  -1.4999999999999999E-002     0.0000000000000000     
  -1.4700000000000000E-002     0.0000000000000000     
  -1.4400000000000000E-002     0.0000000000000000     
  -1.4100000000000000E-002     0.0000000000000000     
  -1.3800000000000000E-002     0.0000000000000000     
  -1.3500000000000000E-002     0.0000000000000000     
  -1.3200000000000000E-002     0.0000000000000000     
  -1.2899999999999998E-002     0.0000000000000000     
  -1.2600000000000000E-002     0.0000000000000000     
  -1.2299999999999998E-002     0.0000000000000000     
  -1.2000000000000000E-002     0.0000000000000000     
  -1.1699999999999999E-002     0.0000000000000000     
  -1.1399999999999999E-002     0.0000000000000000     
  -1.1099999999999999E-002     0.0000000000000000     
  -1.0799999999999999E-002     0.0000000000000000     
  -1.0499999999999999E-002     0.0000000000000000     
  -1.0199999999999999E-002     0.0000000000000000     
  -9.8999999999999991E-003     0.0000000000000000     
  -9.5999999999999992E-003     0.0000000000000000     
  -9.2999999999999992E-003     0.0000000000000000     
  -8.9999999999999993E-003     0.0000000000000000     
  -8.6999999999999994E-003     0.0000000000000000     
  -8.3999999999999995E-003     0.0000000000000000     
  -8.0999999999999996E-003     0.0000000000000000     
  -7.7999999999999988E-003     0.0000000000000000     
  -7.4999999999999997E-003     0.0000000000000000     
  -7.1999999999999998E-003     0.0000000000000000     
  -6.8999999999999981E-003     0.0000000000000000     
  -6.5999999999999982E-003     0.0000000000000000     
  -6.3000000000000000E-003     0.0000000000000000     
  -6.0000000000000001E-003     0.0000000000000000     
  -5.6999999999999985E-003     0.0000000000000000     
  -5.3999999999999986E-003     0.0000000000000000     
  -5.1000000000000004E-003     0.0000000000000000     
  -4.7999999999999987E-003     0.0000000000000000     
  -4.5000000000000005E-003     0.0000000000000000     
  -4.1999999999999989E-003     0.0000000000000000     
  -3.8999999999999990E-003     0.0000000000000000     
  -3.5999999999999990E-003     0.0000000000000000     
  -3.2999999999999991E-003     0.0000000000000000     
  -2.9999999999999992E-003     0.0000000000000000     
  -2.6999999999999993E-003     0.0000000000000000     
  -2.3999999999999994E-003     0.0000000000000000     
  -2.0999999999999977E-003     0.0000000000000000     
  -1.7999999999999995E-003     0.0000000000000000     
  -1.4999999999999979E-003     0.0000000000000000     
  -1.1999999999999997E-003     0.0000000000000000     
  -8.9999999999999976E-004     0.0000000000000000     
  -5.9999999999999810E-004     0.0000000000000000     
  -2.9999999999999992E-004     0.0000000000000000     
   0.0000000000000000          0.0000000000000000     
   3.0000000000000165E-004     0.0000000000000000     
   5.9999999999999984E-004     0.0000000000000000     
   9.0000000000000149E-004     0.0000000000000000     
   1.2000000000000031E-003     0.0000000000000000     
   1.5000000000000013E-003     0.0000000000000000     
   1.8000000000000030E-003     0.0000000000000000     
   2.1000000000000012E-003     0.0000000000000000     
   2.3999999999999994E-003     0.0000000000000000     
   2.7000000000000010E-003     0.0000000000000000     
   2.9999999999999992E-003     0.0000000000000000     
   3.3000000000000008E-003     0.0000000000000000     
   3.6000000000000025E-003     0.0000000000000000     
   3.9000000000000007E-003     0.0000000000000000     
   4.2000000000000023E-003     0.0000000000000000     
   4.5000000000000005E-003     0.0000000000000000     
   4.7999999999999987E-003     0.0000000000000000     
   5.1000000000000004E-003     0.0000000000000000     
   5.4000000000000020E-003     0.0000000000000000     
   5.7000000000000037E-003     0.0000000000000000     
   5.9999999999999984E-003     0.0000000000000000     
   6.3000000000000000E-003     0.0000000000000000     
   6.6000000000000017E-003     0.0000000000000000     
   6.9000000000000034E-003     0.0000000000000000     
   7.2000000000000015E-003     0.0000000000000000     
   7.5000000000000032E-003     0.0000000000000000     
   7.8000000000000014E-003     0.0000000000000000     
   8.0999999999999996E-003     0.0000000000000000     
   8.4000000000000012E-003     0.0000000000000000     
   8.7000000000000029E-003     5.0964521135145120E-037
   9.0000000000000011E-003    -1.4485634319578023E-036
   9.2999999999999992E-003    -1.7419856266758132E-035
   9.6000000000000009E-003    -1.1534652394349080E-035
   9.8999999999999991E-003     5.9944615666389535E-035
   1.0200000000000001E-002     8.0313636878735828E-035
   1.0500000000000002E-002    -3.2458388271603301E-034
   1.0800000000000004E-002    -1.2114819267017195E-033
   1.1099999999999999E-002     5.4528964189058740E-033
   1.1400000000000000E-002    -6.9123475932166089E-035
   1.1700000000000002E-002    -1.8863327118831766E-031
   1.2000000000000004E-002     1.2640807335748319E-030
   1.2300000000000002E-002     5.5930961607605097E-032
   1.2600000000000000E-002    -4.5035536559437941E-029
   1.2900000000000002E-002     2.2917215779834605E-028
   1.3200000000000000E-002     9.7304167840389499E-029
   1.3500000000000002E-002    -5.9212908733180005E-027
   1.3800000000000003E-002     2.5416990514144115E-026
   1.4100000000000001E-002    -5.8272014918149065E-027
   1.4400000000000000E-002    -3.9428971489463382E-025
   1.4700000000000001E-002     1.8518998843824489E-024
   1.4999999999999999E-002    -3.0169291122581002E-024
   1.5300000000000001E-002    -8.7594578490325601E-024
   1.5600000000000003E-002     7.1411305278995522E-023
   1.5899999999999997E-002    -2.2965005652786904E-022
   1.6199999999999999E-002     3.7811377986465933E-022
   1.6500000000000001E-002     1.8060532449460487E-022
   1.6800000000000002E-002    -3.5035343896815025E-021
   1.7100000000000004E-002     1.4035784810733037E-020
   1.7400000000000006E-002    -4.1197323280245802E-020
   1.7700000000000000E-002     1.1235978123810788E-019
   1.8000000000000002E-002    -3.2754149888718973E-019
   1.8300000000000004E-002     1.0272074637266460E-018
   1.8600000000000005E-002    -3.1407925849498109E-018
   1.8900000000000000E-002     8.3854954832807900E-018
   1.9200000000000002E-002    -1.6806788034750425E-017
   1.9500000000000003E-002     1.0819899606552926E-017
   1.9799999999999998E-002     1.0871417738591709E-016
   2.0100000000000000E-002    -6.9769510942273641E-016
   2.0400000000000001E-002     2.4947038826264676E-015
   2.0700000000000003E-002    -4.2292185649817765E-015
   2.0999999999999998E-002    -1.8219392398303828E-014
   2.1299999999999999E-002     2.2475925742955483E-013
   2.1600000000000001E-002    -1.3669290309034632E-012
   2.1900000000000003E-002     6.1114988937627235E-012
   2.2200000000000004E-002    -2.1010481549010862E-011
   2.2500000000000006E-002     5.1910226117612979E-011
   2.2800000000000001E-002    -6.2421942614854231E-011
   2.3100000000000002E-002    -1.5521606222534956E-010
   2.3400000000000004E-002     1.0885682355521453E-009
   2.3699999999999999E-002    -2.7782496303530024E-009
   2.4000000000000000E-002     1.8686192593264650E-009
   2.4300000000000002E-002     1.0501944203156199E-008
   2.4599999999999997E-002    -3.3115540531980514E-008
   2.4900000000000005E-002     1.3967713208273835E-008
   2.5200000000000000E-002     1.1525116150323811E-007
   2.5499999999999995E-002    -1.7984690714456519E-007
   2.5800000000000003E-002    -2.6873624392464990E-007
   2.6099999999999998E-002     6.4416019540658453E-007
   2.6400000000000007E-002     7.8378423040703638E-007
   2.6700000000000002E-002    -1.5904010979284067E-006
   2.6999999999999996E-002    -3.2355471830669558E-006
   2.7300000000000005E-002     2.5923754947143607E-006
   2.7600000000000000E-002     1.8805896615958773E-005
   2.7900000000000008E-002     4.1577975935069844E-005
   2.8200000000000003E-002     6.7784130806103349E-005
   2.8499999999999998E-002     1.0207684681518003E-004
   2.8800000000000006E-002     1.5596767480019480E-004
   2.9100000000000001E-002     2.4520984152331948E-004
   2.9400000000000003E-002     3.8739378214813769E-004
   2.9700000000000004E-002     6.0268142260611057E-004
   3.0000000000000006E-002     9.2036236310377717E-004
   3.0300000000000001E-002     1.3836454600095749E-003
   3.0600000000000002E-002     2.0527455490082502E-003
   3.0900000000000004E-002     3.0086091719567776E-003
   3.1199999999999999E-002     4.3546310625970364E-003
   3.1500000000000007E-002     6.2187854200601578E-003
   3.1800000000000002E-002     8.7559483945369720E-003
   3.2099999999999997E-002     1.2150879949331284E-002
   3.2400000000000005E-002     1.6618499532341957E-002
   3.2700000000000000E-002     2.2393723949790001E-002
   3.3000000000000002E-002     2.9716931283473969E-002
   3.3300000000000003E-002     3.8819327950477600E-002
   3.3599999999999998E-002     4.9897462129592896E-002
   3.3900000000000000E-002     6.3073322176933289E-002
   3.4200000000000001E-002     7.8348867595195770E-002
   3.4500000000000003E-002     9.5552794635295868E-002
   3.4799999999999998E-002    0.11428935825824738     
   3.5099999999999999E-002    0.13388340175151825     
   3.5400000000000001E-002    0.15332555770874023     
   3.5699999999999996E-002    0.17124803364276886     
   3.6000000000000004E-002    0.18591421842575073     
   3.6299999999999999E-002    0.19524024426937103     
   3.6600000000000008E-002    0.19687300920486450     
   3.6900000000000002E-002    0.18828248977661133     
   3.7199999999999997E-002    0.16696904599666595     
   3.7500000000000006E-002    0.13064697384834290     
   3.7800000000000000E-002     7.7507622539997101E-002
   3.8100000000000009E-002     6.5201991237699986E-003
   3.8400000000000004E-002    -8.2365550100803375E-002
   3.8699999999999998E-002   -0.18789008259773254     
   3.9000000000000007E-002   -0.30736902356147766     
   3.9300000000000002E-002   -0.43661385774612427     
   3.9600000000000003E-002   -0.56989836692810059     
   3.9900000000000005E-002   -0.70023989677429199     
   4.0200000000000000E-002   -0.81961810588836670     
   4.0500000000000001E-002   -0.91949188709259033     
   4.0800000000000003E-002   -0.99139231443405151     
   4.1100000000000005E-002    -1.0274810791015625     
   4.1399999999999999E-002    -1.0213311910629272     
   4.1700000000000008E-002   -0.96846455335617065     
   4.2000000000000003E-002   -0.86689889430999756     
   4.2299999999999997E-002   -0.71757841110229492     
   4.2600000000000006E-002   -0.52440696954727173     
   4.2900000000000001E-002   -0.29433947801589966     
   4.3200000000000002E-002    -3.6928333342075348E-002
   4.3500000000000004E-002    0.23610606789588928     
   4.3799999999999999E-002    0.51162457466125488     
   4.4100000000000000E-002    0.77602022886276245     
   4.4400000000000002E-002     1.0158717632293701     
   4.4700000000000004E-002     1.2191624641418457     
   4.4999999999999998E-002     1.3758540153503418     
   4.5300000000000000E-002     1.4785336256027222     
   4.5600000000000002E-002     1.5230793952941895     
   4.5899999999999996E-002     1.5085067749023438     
   4.6200000000000005E-002     1.4372613430023193     
   4.6500000000000000E-002     1.3147695064544678     
   4.6799999999999994E-002     1.1488952636718750     
   4.7100000000000003E-002    0.94957989454269409     
   4.7399999999999998E-002    0.72778034210205078     
   4.7700000000000006E-002    0.49499467015266418     
   4.8000000000000001E-002    0.26243120431900024     
   4.8300000000000010E-002     4.0276400744915009E-002
   4.8600000000000004E-002   -0.16260227560997009     
   4.8899999999999999E-002   -0.33933880925178528     
   4.9200000000000008E-002   -0.48500314354896545     
   4.9500000000000002E-002   -0.59680372476577759     
   4.9800000000000011E-002   -0.67403948307037354     
   5.0100000000000006E-002   -0.71769171953201294     
   5.0400000000000000E-002   -0.73042517900466919     
   5.0700000000000009E-002   -0.71598172187805176     
   5.1000000000000004E-002   -0.67891877889633179     
   5.1299999999999998E-002   -0.62433660030364990     
   5.1600000000000007E-002   -0.55728006362915039     
   5.1900000000000002E-002   -0.48278266191482544     
   5.2200000000000010E-002   -0.40536251664161682     
   5.2500000000000005E-002   -0.32892215251922607     
   5.2800000000000000E-002   -0.25675040483474731     
   5.3099999999999994E-002   -0.19119541347026825     
   5.3400000000000003E-002   -0.13396058976650238     
   5.3699999999999998E-002    -8.5941128432750702E-002
   5.4000000000000006E-002    -4.7308988869190216E-002
   5.4300000000000001E-002    -1.7778690904378891E-002
   5.4599999999999996E-002     3.4857154823839664E-003
   5.4900000000000004E-002     1.7464643344283104E-002
   5.5199999999999999E-002     2.5214999914169312E-002
   5.5499999999999994E-002     2.7693429961800575E-002
   5.5800000000000002E-002     2.5425611063838005E-002
   5.6099999999999997E-002     1.8608046695590019E-002
   5.6400000000000006E-002     6.8441713228821754E-003
   5.6700000000000000E-002    -1.0765080340206623E-002
   5.6999999999999995E-002    -3.5486008971929550E-002
   5.7300000000000004E-002    -6.8845525383949280E-002
   5.7599999999999998E-002   -0.11219568550586700     
   5.7900000000000007E-002   -0.16646005213260651     
   5.8200000000000002E-002   -0.23167730867862701     
   5.8499999999999996E-002   -0.30663207173347473     
   5.8800000000000005E-002   -0.38863414525985718     
   5.9100000000000000E-002   -0.47328087687492371     
   5.9400000000000008E-002   -0.55456203222274780     
   5.9700000000000003E-002   -0.62509578466415405     
   6.0000000000000012E-002   -0.67657053470611572     
   6.0300000000000006E-002   -0.70047414302825928     
   6.0600000000000001E-002   -0.68885606527328491     
   6.0900000000000010E-002   -0.63528913259506226     
   6.1200000000000004E-002   -0.53563606739044189     
   6.1500000000000013E-002   -0.38879647850990295     
   6.1800000000000008E-002   -0.19726485013961792     
   6.2100000000000002E-002     3.2776627689599991E-002
   6.2399999999999997E-002    0.29155707359313965     
   6.2700000000000006E-002    0.56621134281158447     
   6.3000000000000000E-002    0.84168744087219238     
   6.3300000000000009E-002     1.1018007993698120     
   6.3600000000000004E-002     1.3305559158325195     
   6.3899999999999998E-002     1.5133867263793945     
   6.4199999999999993E-002     1.6383728981018066     
   6.4500000000000002E-002     1.6972156763076782     
   6.4800000000000010E-002     1.6858614683151245     
   6.5100000000000005E-002     1.6048750877380371     
   6.5400000000000000E-002     1.4592424631118774     
   6.5700000000000008E-002     1.2579410076141357     
   6.5999999999999989E-002     1.0130988359451294     
   6.6299999999999998E-002    0.73886626958847046     
   6.6600000000000006E-002    0.45032474398612976     
   6.6900000000000001E-002    0.16223761439323425     
   6.7199999999999996E-002   -0.11193849891424179     
   6.7500000000000004E-002   -0.36097577214241028     
   6.7800000000000013E-002   -0.57653874158859253     
   6.8099999999999994E-002   -0.75327545404434204     
   6.8400000000000002E-002   -0.88896292448043823     
   6.8700000000000011E-002   -0.98414367437362671     
   6.8999999999999992E-002    -1.0414876937866211     
   6.9300000000000000E-002    -1.0653524398803711     
   6.9600000000000009E-002    -1.0608566999435425     
   6.9900000000000004E-002    -1.0333855152130127     
   7.0199999999999999E-002   -0.98798453807830811     
   7.0500000000000007E-002   -0.92894500494003296     
   7.0800000000000016E-002   -0.85978490114212036     
   7.1099999999999997E-002   -0.78310722112655640     
   7.1400000000000005E-002   -0.70090532302856445     
   7.1700000000000000E-002   -0.61484342813491821     
   7.1999999999999995E-002   -0.52646225690841675     
   7.2300000000000003E-002   -0.43763646483421326     
   7.2600000000000012E-002   -0.35059922933578491     
   7.2900000000000006E-002   -0.26810288429260254     
   7.3200000000000001E-002   -0.19335934519767761     
   7.3499999999999996E-002   -0.12958611547946930     
   7.3800000000000004E-002    -7.9831920564174652E-002
   7.4099999999999999E-002    -4.6377293765544891E-002
   7.4400000000000008E-002    -3.0286233872175217E-002
   7.4700000000000003E-002    -3.1190969049930573E-002
   7.5000000000000011E-002    -4.6868734061717987E-002
   7.5299999999999992E-002    -7.3364898562431335E-002
   7.5600000000000001E-002   -0.10513436049222946     
   7.5900000000000009E-002   -0.13534122705459595     
   7.6200000000000004E-002   -0.15658232569694519     
   7.6499999999999999E-002   -0.16144232451915741     
   7.6800000000000007E-002   -0.14331598579883575     
   7.7099999999999988E-002    -9.7225971519947052E-002
   7.7399999999999997E-002    -2.0194478332996368E-002
   7.7700000000000005E-002     8.7987042963504791E-002
   7.8000000000000014E-002    0.22473342716693878     
   7.8299999999999995E-002    0.38457873463630676     
   7.8600000000000003E-002    0.55940562486648560     
   7.8900000000000012E-002    0.73908627033233643     
   7.9199999999999993E-002    0.91196745634078979     
   7.9500000000000001E-002     1.0658828020095825     
   7.9800000000000010E-002     1.1889988183975220     
   8.0100000000000018E-002     1.2707298994064331     
   8.0399999999999999E-002     1.3027113676071167     
   8.0700000000000008E-002     1.2793772220611572     
   8.1000000000000003E-002     1.1986563205718994     
   8.1299999999999997E-002     1.0621719360351562     
   8.1600000000000006E-002    0.87532305717468262     
   8.1900000000000014E-002    0.64695626497268677     
   8.2199999999999995E-002    0.38880974054336548     
   8.2500000000000004E-002    0.11488842964172363     
   8.2799999999999999E-002   -0.15979868173599243     
   8.3100000000000007E-002   -0.41996327042579651     
   8.3400000000000002E-002   -0.65134239196777344     
   8.3700000000000011E-002   -0.84177029132843018     
   8.4000000000000005E-002   -0.98168420791625977     
   8.4300000000000000E-002    -1.0653247833251953     
   8.4599999999999995E-002    -1.0905153751373291     
   8.4900000000000003E-002    -1.0590893030166626     
   8.5199999999999998E-002   -0.97664266824722290     
   8.5500000000000007E-002   -0.85166889429092407     
   8.5800000000000001E-002   -0.69539558887481689     
   8.6100000000000010E-002   -0.52046906948089600     
   8.6399999999999991E-002   -0.34019094705581665     
   8.6699999999999999E-002   -0.16781359910964966     
   8.7000000000000008E-002    -1.5311792492866516E-002
   8.7300000000000003E-002    0.10685336589813232     
   8.7599999999999997E-002    0.19055627286434174     
   8.7900000000000006E-002    0.23045806586742401     
   8.8200000000000014E-002    0.22375908493995667     
   8.8499999999999995E-002    0.17076085507869720     
   8.8800000000000004E-002     7.4440531432628632E-002
   8.9100000000000013E-002    -5.9716090559959412E-002
   8.9399999999999993E-002   -0.22361081838607788     
   8.9700000000000002E-002   -0.40733510255813599     
   9.0000000000000011E-002   -0.59905785322189331     
   9.0299999999999991E-002   -0.78566068410873413     
   9.0600000000000000E-002   -0.95337700843811035     
   9.0900000000000009E-002    -1.0878626108169556     
   9.1200000000000017E-002    -1.1754279136657715     
   9.1499999999999998E-002    -1.2034457921981812     
   9.1800000000000007E-002    -1.1611208915710449     
   9.2100000000000001E-002    -1.0407841205596924     
   9.2399999999999996E-002   -0.83820015192031860     
   9.2700000000000005E-002   -0.55378794670104980     
   9.3000000000000013E-002   -0.19306743144989014     
   9.3300000000000008E-002    0.23313117027282715     
   9.3600000000000003E-002    0.70836663246154785     
   9.3899999999999997E-002     1.2114114761352539     
   9.4200000000000006E-002     1.7169637680053711     
   9.4500000000000001E-002     2.1968080997467041     
   9.4800000000000009E-002     2.6219067573547363     
   9.5100000000000004E-002     2.9641456604003906     
   9.5399999999999999E-002     3.1984975337982178     
   9.5699999999999993E-002     3.3053288459777832     
   9.6000000000000002E-002     3.2719185352325439     
   9.6300000000000011E-002     3.0940885543823242     
   9.6600000000000005E-002     2.7769930362701416     
   9.6900000000000000E-002     2.3349266052246094     
   9.7200000000000009E-002     1.7909574508666992     
   9.7499999999999989E-002     1.1750634908676147     
   9.7799999999999998E-002    0.52206844091415405     
   9.8100000000000007E-002   -0.13093000650405884     
   9.8400000000000015E-002   -0.74790740013122559     
   9.8699999999999996E-002    -1.2964253425598145     
   9.9000000000000005E-002    -1.7506452798843384     
   9.9300000000000013E-002    -2.0934829711914062     
   9.9599999999999994E-002    -2.3174161911010742     
   9.9900000000000003E-002    -2.4256944656372070     
  0.10020000000000001         -2.4307997226715088     
  0.10049999999999999         -2.3533580303192139     
  0.10080000000000000         -2.2197613716125488     
  0.10110000000000001         -2.0585696697235107     
  0.10140000000000000         -1.8980635404586792     
  0.10170000000000000         -1.7624728679656982     
  0.10200000000000001         -1.6693497896194458     
  0.10230000000000002         -1.6279178857803345     
  0.10260000000000000         -1.6373192071914673     
  0.10290000000000001         -1.6873023509979248     
  0.10320000000000000         -1.7589713335037231     
  0.10350000000000001         -1.8267021179199219     
  0.10380000000000000         -1.8614635467529297     
  0.10410000000000001         -1.8334970474243164     
  0.10440000000000001         -1.7161506414413452     
  0.10470000000000000         -1.4890187978744507     
  0.10500000000000000         -1.1402481794357300     
  0.10530000000000000        -0.66884183883666992     
  0.10560000000000000         -8.5246101021766663E-002
  0.10590000000000001         0.58893597126007080     
  0.10620000000000000          1.3217673301696777     
  0.10650000000000001          2.0736641883850098     
  0.10679999999999999          2.7999186515808105     
  0.10710000000000000          3.4541099071502686     
  0.10740000000000001          3.9920630455017090     
  0.10770000000000000          4.3747768402099609     
  0.10800000000000000          4.5718331336975098     
  0.10830000000000001          4.5640959739685059     
  0.10859999999999999          4.3445324897766113     
  0.10890000000000000          3.9197921752929688     
  0.10920000000000001          3.3093366622924805     
  0.10950000000000001          2.5439829826354980     
  0.10979999999999999          1.6643711328506470     
  0.11009999999999999         0.71725648641586304     
  0.11040000000000001        -0.24703532457351685     
  0.11070000000000001         -1.1782746315002441     
  0.11100000000000000         -2.0300092697143555     
  0.11130000000000000         -2.7615637779235840     
  0.11160000000000002         -3.3412747383117676     
  0.11190000000000001         -3.7475056648254395     
  0.11220000000000001         -3.9692111015319824     
  0.11250000000000000         -4.0064682960510254     
  0.11280000000000000         -3.8687281608581543     
  0.11309999999999999         -3.5741028785705566     
  0.11340000000000001         -3.1473195552825928     
  0.11369999999999998         -2.6172766685485840     
  0.11400000000000000         -2.0158696174621582     
  0.11430000000000000         -1.3752937316894531     
  0.11460000000000002        -0.72698575258255005     
  0.11489999999999999        -0.10035790503025055     
  0.11520000000000001         0.47854092717170715     
  0.11550000000000001         0.98673599958419800     
  0.11580000000000000          1.4054546356201172     
  0.11609999999999999          1.7199683189392090     
  0.11640000000000002          1.9195430278778076     
  0.11670000000000001          1.9984256029129028     
  0.11700000000000001          1.9550830125808716     
  0.11730000000000000          1.7931618690490723     
  0.11760000000000000          1.5215873718261719     
  0.11789999999999999          1.1543124914169312     
  0.11820000000000001         0.71102511882781982     
  0.11850000000000001         0.21621249616146088     
  0.11880000000000000        -0.30122813582420349     
  0.11910000000000000        -0.80921280384063721     
  0.11940000000000002         -1.2742573022842407     
  0.11970000000000001         -1.6630862951278687     
  0.12000000000000001         -1.9451522827148438     
  0.12030000000000000         -2.0947651863098145     
  0.12060000000000000         -2.0933289527893066     
  0.12089999999999999         -1.9310936927795410     
  0.12119999999999999         -1.6085017919540405     
  0.12150000000000001         -1.1367592811584473     
  0.12180000000000001        -0.53751742839813232     
  0.12210000000000000         0.15800854563713074     
  0.12239999999999999         0.91129904985427856     
  0.12270000000000002          1.6785440444946289     
  0.12300000000000001          2.4138472080230713     
  0.12330000000000001          3.0723605155944824     
  0.12360000000000000          3.6127891540527344     
  0.12390000000000000          4.0007705688476562     
  0.12419999999999999          4.2102675437927246     
  0.12450000000000001          4.2253093719482422     
  0.12480000000000001          4.0409865379333496     
  0.12509999999999999          3.6628084182739258     
  0.12540000000000001          3.1071159839630127     
  0.12570000000000003          2.3988804817199707     
  0.12600000000000000          1.5709252357482910     
  0.12630000000000002         0.66249060630798340     
  0.12659999999999999        -0.28355240821838379     
  0.12690000000000001         -1.2212840318679810     
  0.12719999999999998         -2.1046869754791260     
  0.12750000000000000         -2.8892862796783447     
  0.12780000000000002         -3.5335528850555420     
  0.12809999999999999         -4.0021538734436035     
  0.12840000000000001         -4.2665038108825684     
  0.12869999999999998         -4.3077564239501953     
  0.12900000000000000         -4.1184010505676270     
  0.12930000000000003         -3.7028124332427979     
  0.12959999999999999         -3.0795400142669678     
  0.12990000000000002         -2.2797398567199707     
  0.13019999999999998         -1.3470467329025269     
  0.13050000000000000        -0.33613723516464233     
  0.13080000000000003         0.69140875339508057     
  0.13109999999999999          1.6695504188537598     
  0.13140000000000002          2.5331850051879883     
  0.13169999999999998          3.2229259014129639     
  0.13200000000000001          3.6888995170593262     
  0.13229999999999997          3.8964955806732178     
  0.13260000000000000          3.8282966613769531     
  0.13290000000000002          3.4868199825286865     
  0.13319999999999999          2.8952448368072510     
  0.13350000000000001          2.0950303077697754     
  0.13380000000000003          1.1445623636245728     
  0.13410000000000000         0.11373761296272278     
  0.13440000000000002        -0.92126142978668213     
  0.13469999999999999         -1.8833354711532593     
  0.13500000000000001         -2.7015745639801025     
  0.13529999999999998         -3.3160645961761475     
  0.13560000000000000         -3.6833279132843018     
  0.13590000000000002         -3.7795989513397217     
  0.13619999999999999         -3.6020388603210449     
  0.13650000000000001         -3.1696114540100098     
  0.13680000000000003         -2.5205729007720947     
  0.13710000000000000         -1.7093760967254639     
  0.13740000000000002        -0.80225574970245361     
  0.13769999999999999         0.12892669439315796     
  0.13800000000000001          1.0117766857147217     
  0.13829999999999998          1.7796840667724609     
  0.13860000000000000          2.3769743442535400     
  0.13890000000000002          2.7628173828125000     
  0.13919999999999999          2.9144699573516846     
  0.13950000000000001          2.8284029960632324     
  0.13979999999999998          2.5198605060577393     
  0.14010000000000000          2.0211586952209473     
  0.14040000000000002          1.3785771131515503     
  0.14069999999999999         0.64781260490417480     
  0.14100000000000001        -0.11081609129905701     
  0.14130000000000004        -0.83789348602294922     
  0.14160000000000000         -1.4797948598861694     
  0.14189999999999997         -1.9929454326629639     
  0.14219999999999999         -2.3476963043212891     
  0.14250000000000002         -2.5294876098632812     
  0.14279999999999998         -2.5401046276092529     
  0.14310000000000000         -2.3967511653900146     
  0.14339999999999997         -2.1288681030273438     
  0.14369999999999999         -1.7758380174636841     
  0.14400000000000002         -1.3816027641296387     
  0.14429999999999998        -0.99025607109069824     
  0.14460000000000001        -0.64209324121475220     
  0.14490000000000003        -0.36856889724731445     
  0.14520000000000000        -0.19023527204990387     
  0.14550000000000002        -0.11433939635753632     
  0.14579999999999999        -0.13442504405975342     
  0.14610000000000001        -0.23225384950637817     
  0.14640000000000003        -0.37915414571762085     
  0.14670000000000000        -0.54039740562438965     
  0.14699999999999996        -0.67916727066040039     
  0.14729999999999999        -0.76055306196212769     
  0.14760000000000001        -0.75646573305130005     
  0.14789999999999998        -0.64813649654388428     
  0.14820000000000000        -0.42885866761207581     