  -1.4999999999999999E-002     0.0000000000000000     
  -1.4700000000000000E-002     0.0000000000000000     
  -1.4400000000000000E-002     0.0000000000000000     
  -1.4100000000000000E-002     0.0000000000000000     
  -1.3800000000000000E-002     0.0000000000000000     
  -1.3500000000000000E-002     0.0000000000000000     
  -1.3200000000000000E-002     0.0000000000000000     
  -1.2899999999999998E-002     0.0000000000000000     
  -1.2600000000000000E-002     0.0000000000000000     
  -1.2299999999999998E-002     0.0000000000000000     
  -1.2000000000000000E-002     0.0000000000000000     
  -1.1699999999999999E-002     0.0000000000000000     
  -1.1399999999999999E-002     0.0000000000000000     
  -1.1099999999999999E-002     0.0000000000000000     
  -1.0799999999999999E-002     0.0000000000000000     
  -1.0499999999999999E-002     0.0000000000000000     
  -1.0199999999999999E-002     0.0000000000000000     
  -9.8999999999999991E-003     0.0000000000000000     
  -9.5999999999999992E-003     0.0000000000000000     
  -9.2999999999999992E-003     0.0000000000000000     
  -8.9999999999999993E-003     0.0000000000000000     
  -8.6999999999999994E-003     0.0000000000000000     
  -8.3999999999999995E-003     0.0000000000000000     
  -8.0999999999999996E-003     0.0000000000000000     
  -7.7999999999999988E-003     0.0000000000000000     
  -7.4999999999999997E-003     0.0000000000000000     
  -7.1999999999999998E-003     0.0000000000000000     
  -6.8999999999999981E-003     0.0000000000000000     
  -6.5999999999999982E-003     0.0000000000000000     
  -6.3000000000000000E-003     0.0000000000000000     
  -6.0000000000000001E-003     0.0000000000000000     
  -5.6999999999999985E-003     0.0000000000000000     
  -5.3999999999999986E-003     0.0000000000000000     
  -5.1000000000000004E-003     0.0000000000000000     
  -4.7999999999999987E-003     0.0000000000000000     
  -4.5000000000000005E-003     0.0000000000000000     
  -4.1999999999999989E-003     0.0000000000000000     
  -3.8999999999999990E-003     0.0000000000000000     
  -3.5999999999999990E-003     0.0000000000000000     
  -3.2999999999999991E-003     0.0000000000000000     
  -2.9999999999999992E-003     0.0000000000000000     
  -2.6999999999999993E-003     0.0000000000000000     
  -2.3999999999999994E-003     0.0000000000000000     
  -2.0999999999999977E-003     0.0000000000000000     
  -1.7999999999999995E-003     0.0000000000000000     
  -1.4999999999999979E-003     0.0000000000000000     
  -1.1999999999999997E-003     0.0000000000000000     
  -8.9999999999999976E-004     0.0000000000000000     
  -5.9999999999999810E-004     0.0000000000000000     
  -2.9999999999999992E-004     0.0000000000000000     
   0.0000000000000000          0.0000000000000000     
   3.0000000000000165E-004     0.0000000000000000     
   5.9999999999999984E-004     0.0000000000000000     
   9.0000000000000149E-004     0.0000000000000000     
   1.2000000000000031E-003     0.0000000000000000     
   1.5000000000000013E-003     0.0000000000000000     
   1.8000000000000030E-003     0.0000000000000000     
   2.1000000000000012E-003     0.0000000000000000     
   2.3999999999999994E-003     0.0000000000000000     
   2.7000000000000010E-003     0.0000000000000000     
   2.9999999999999992E-003     0.0000000000000000     
   3.3000000000000008E-003     0.0000000000000000     
   3.6000000000000025E-003     0.0000000000000000     
   3.9000000000000007E-003     0.0000000000000000     
   4.2000000000000023E-003     0.0000000000000000     
   4.5000000000000005E-003     0.0000000000000000     
   4.7999999999999987E-003     0.0000000000000000     
   5.1000000000000004E-003     0.0000000000000000     
   5.4000000000000020E-003     0.0000000000000000     
   5.7000000000000037E-003     0.0000000000000000     
   5.9999999999999984E-003    -8.0189828764555178E-038
   6.3000000000000000E-003    -4.1266105407217798E-036
   6.6000000000000017E-003    -8.5488130107437089E-036
   6.9000000000000034E-003     3.0833173513880462E-035
   7.2000000000000015E-003     7.5882819049152836E-035
   7.5000000000000032E-003    -2.4375930548286008E-034
   7.8000000000000014E-003    -1.0758958688229419E-033
   8.0999999999999996E-003     2.3139218293217393E-034
   8.4000000000000012E-003     4.6220960405014934E-033
   8.7000000000000029E-003     2.3622717901141053E-033
   9.0000000000000011E-003    -1.5892241469819296E-032
   9.2999999999999992E-003    -2.6816634152080245E-032
   9.6000000000000009E-003     3.3546835776171528E-032
   9.8999999999999991E-003     4.8508430665000854E-031
   1.0200000000000001E-002    -2.0195780321334210E-030
   1.0500000000000002E-002    -2.1441990605872505E-030
   1.0800000000000004E-002     7.9708101712354672E-029
   1.1099999999999999E-002    -3.8629448190618259E-028
   1.1400000000000000E-002    -1.8671166028824462E-028
   1.1700000000000002E-002     1.0300798119001790E-026
   1.2000000000000004E-002    -4.5322902722702510E-026
   1.2300000000000002E-002     1.7088456000984660E-026
   1.2600000000000000E-002     6.7597695531216661E-025
   1.2900000000000002E-002    -3.2351038904274940E-024
   1.3200000000000000E-002     5.0690257500315230E-024
   1.3500000000000002E-002     1.6321762131059890E-023
   1.3800000000000003E-002    -1.1782968905064974E-022
   1.4100000000000001E-002     3.0991359659949375E-022
   1.4400000000000000E-002    -2.1809473845654746E-022
   1.4700000000000001E-002    -1.3127477432265813E-021
   1.4999999999999999E-002     5.0193711210402787E-021
   1.5300000000000001E-002    -4.8631986470591166E-021
   1.5600000000000003E-002    -2.4331129379224053E-020
   1.5899999999999997E-002     1.2740211844995012E-019
   1.6199999999999999E-002    -2.9077707781006006E-019
   1.6500000000000001E-002     1.1626745720749408E-019
   1.6800000000000002E-002     2.2130869620176212E-018
   1.7100000000000004E-002    -1.3336309832303687E-017
   1.7400000000000006E-002     5.7333581281229951E-017
   1.7700000000000000E-002    -2.2483864803727716E-016
   1.8000000000000002E-002     8.5797720874101300E-016
   1.8300000000000004E-002    -3.1877307307173839E-015
   1.8600000000000005E-002     1.1200371445443230E-014
   1.8900000000000000E-002    -3.5344724952614557E-014
   1.9200000000000002E-002     9.0061079270219278E-014
   1.9500000000000003E-002    -1.2079282109901295E-013
   1.9799999999999998E-002    -4.3720200073206064E-013
   2.0100000000000000E-002     4.3758373489274098E-012
   2.0400000000000001E-002    -2.0947845592081658E-011
   2.0700000000000003E-002     6.8223077308443175E-011
   2.0999999999999998E-002    -1.4037511281815494E-010
   2.1299999999999999E-002     5.1066558910643965E-011
   2.1600000000000001E-002     8.4584951917742457E-010
   2.1900000000000003E-002    -3.2477003094504433E-009
   2.2200000000000004E-002     4.5860577455052692E-009
   2.2500000000000006E-002     6.0711082205958840E-009
   2.2800000000000001E-002    -3.5967655340602788E-008
   2.3100000000000002E-002     3.6331927526537343E-008
   2.3400000000000004E-002     9.6508709252446719E-008
   2.3699999999999999E-002    -2.3521564528466701E-007
   2.4000000000000000E-002    -1.8789505491794272E-007
   2.4300000000000002E-002     7.8287406585034146E-007
   2.4599999999999997E-002     6.0415942862971804E-007
   2.4900000000000005E-002    -2.0607992266074499E-006
   2.5200000000000000E-002    -3.0930302060885585E-006
   2.5499999999999995E-002     4.6119085989087782E-006
   2.5800000000000003E-002     2.3405499295302420E-005
   2.6099999999999998E-002     4.9016686223916049E-005
   2.6400000000000007E-002     7.8892842132602479E-005
   2.6700000000000002E-002     1.1886439523828198E-004
   2.6999999999999996E-002     1.8202983772211152E-004
   2.7300000000000005E-002     2.8598957537514721E-004
   2.7600000000000000E-002     4.5023848448108583E-004
   2.7900000000000008E-002     6.9791523654137363E-004
   2.8200000000000003E-002     1.0628206421386191E-003
   2.8499999999999998E-002     1.5941839705612831E-003
   2.8800000000000006E-002     2.3602135679678601E-003
   2.9100000000000001E-002     3.4517530632675042E-003
   2.9400000000000003E-002     4.9843561191522529E-003
   2.9700000000000004E-002     7.1003802906084712E-003
   3.0000000000000006E-002     9.9710791491250395E-003
   3.0300000000000001E-002     1.3799826031661022E-002
   3.0600000000000002E-002     1.8820932647582667E-002
   3.0900000000000004E-002     2.5286999256775688E-002
   3.1199999999999999E-002     3.3452693599246408E-002
   3.1500000000000007E-002     4.3556903789386148E-002
   3.1800000000000002E-002     5.5791606286570428E-002
   3.2099999999999997E-002     7.0259143321063089E-002
   3.2400000000000005E-002     8.6920287422961984E-002
   3.2700000000000000E-002    0.10553453218249542     
   3.3000000000000002E-002    0.12560491023575615     
   3.3300000000000003E-002    0.14631805444822188     
   3.3599999999999998E-002    0.16649473578328955     
   3.3900000000000000E-002    0.18456219001282559     
   3.4200000000000001E-002    0.19855412378192394     
   3.4500000000000003E-002    0.20614421942240302     
   3.4799999999999998E-002    0.20473173666400868     
   3.5099999999999999E-002    0.19158385429036429     
   3.5400000000000001E-002    0.16404132038173902     
   3.5699999999999996E-002    0.11977714408379914     
   3.6000000000000004E-002     5.7043101278842379E-002
   3.6299999999999999E-002    -2.4993449453849514E-002
   3.6600000000000008E-002   -0.12597721234547921     
   3.6900000000000002E-002   -0.24411861062754525     
   3.7199999999999997E-002   -0.37598757418635742     
   3.7500000000000006E-002   -0.51651727370044043     
   3.7800000000000000E-002   -0.65902526947638052     
   3.8100000000000009E-002   -0.79548707602242885     
   3.8400000000000004E-002   -0.91694797310707443     
   3.8699999999999998E-002    -1.0140222148610967     
   3.9000000000000007E-002    -1.0776241463099581     
   3.9300000000000002E-002    -1.0996482781386021     
   3.9600000000000003E-002    -1.0737128570737440     
   3.9900000000000005E-002   -0.99586051113859853     
   4.0200000000000000E-002   -0.86504824945288306     
   4.0500000000000001E-002   -0.68352965513258468     
   4.0800000000000003E-002   -0.45695303722085789     
   4.1100000000000005E-002   -0.19413242682110177     
   4.1399999999999999E-002     9.3283763797139319E-002
   4.1700000000000008E-002    0.39163377935776200     
   4.2000000000000003E-002    0.68598945352003149     
   4.2299999999999997E-002    0.96118755223900720     
   4.2600000000000006E-002     1.2029987188693951     
   4.2900000000000001E-002     1.3988330651783016     
   4.3200000000000002E-002     1.5389182807089057     
   4.3500000000000004E-002     1.6166924225994350     
   4.3799999999999999E-002     1.6292578634356474     
   4.4100000000000000E-002     1.5776590004009492     
   4.4400000000000002E-002     1.4663862374421797     
   4.4700000000000004E-002     1.3032562701054076     
   4.4999999999999998E-002     1.0985868827102721     
   4.5300000000000000E-002    0.86440560393550570     
   4.5600000000000002E-002    0.61374466575452402     
   4.5899999999999996E-002    0.35955775338654838     
   4.6200000000000005E-002    0.11402466062246175     
   4.6500000000000000E-002   -0.11207844206848483     
   4.6799999999999994E-002   -0.31012626506001251     
   4.7100000000000003E-002   -0.47370868805551325     
   4.7399999999999998E-002   -0.59899054054172751     
   4.7700000000000006E-002   -0.68460068838921018     
   4.8000000000000001E-002   -0.73135857035959972     
   4.8300000000000010E-002   -0.74222474784260939     
   4.8600000000000004E-002   -0.72154524634729711     
   4.8899999999999999E-002   -0.67489558467285704     
   4.9200000000000008E-002   -0.60856115406857114     
   4.9500000000000002E-002   -0.52891195445549144     
   4.9800000000000011E-002   -0.44236519311502143     
   5.0100000000000006E-002   -0.35473729187541103     
   5.0400000000000000E-002   -0.27114878224369932     
   5.0700000000000009E-002   -0.19587598489681657     
   5.1000000000000004E-002   -0.13201801060406915     
   5.1299999999999998E-002    -8.1730222531703145E-002
   5.1600000000000007E-002    -4.6012065778757272E-002
   5.1900000000000002E-002    -2.4852021361868704E-002
   5.2200000000000010E-002    -1.7428642559002783E-002
   5.2500000000000005E-002    -2.2061511346185281E-002
   5.2800000000000000E-002    -3.6676420353969230E-002
   5.3099999999999994E-002    -5.8919846292734945E-002
   5.3400000000000003E-002    -8.6367923036051453E-002
   5.3699999999999998E-002   -0.11695521067019099     
   5.4000000000000006E-002   -0.14899580254304512     
   5.4300000000000001E-002   -0.18142267436345350     
   5.4599999999999996E-002   -0.21393797104263790     
   5.4900000000000004E-002   -0.24678625792420039     
   5.5199999999999999E-002   -0.28079261793992849     
   5.5499999999999994E-002   -0.31697624286566217     
   5.5800000000000002E-002   -0.35616690150923702     
   5.6099999999999997E-002   -0.39879344161883701     
   5.6400000000000006E-002   -0.44419559151299026     
   5.6700000000000000E-002   -0.49060446561545845     
   5.6999999999999995E-002   -0.53479598753379953     
   5.7300000000000004E-002   -0.57195862143421294     
   5.7599999999999998E-002   -0.59622647240232141     
   5.7900000000000007E-002   -0.60074666998356108     
   5.8200000000000002E-002   -0.57856859351904788     
   5.8499999999999996E-002   -0.52337431316728455     
   5.8800000000000005E-002   -0.43015095029958417     
   5.9100000000000000E-002   -0.29629484334813050     
   5.9400000000000008E-002   -0.12203276214123626     
   5.9700000000000003E-002     8.9026947709704096E-002
   6.0000000000000012E-002    0.32973245680640906     
   6.0300000000000006E-002    0.58972399259961250     
   6.0600000000000001E-002    0.85583491752966268     
   6.0900000000000010E-002     1.1131651344840847     
   6.1200000000000004E-002     1.3460690316420312     
   6.1500000000000013E-002     1.5394122756396698     
   6.1800000000000008E-002     1.6799329766225739     
   6.2100000000000002E-002     1.7572013998023124     
   6.2399999999999997E-002     1.7646403232263452     
   6.2700000000000006E-002     1.7000576627077564     
   6.3000000000000000E-002     1.5657091214263872     
   6.3300000000000009E-002     1.3682856216487238     
   6.3600000000000004E-002     1.1181878345377925     
   6.3899999999999998E-002    0.82870318067100968     
   6.4199999999999993E-002    0.51507214846267146     
   6.4500000000000002E-002    0.19308312218176749     
   6.4800000000000010E-002   -0.12182347686660133     
   6.5100000000000005E-002   -0.41561889769387683     
   6.5400000000000000E-002   -0.67667663794711608     
   6.5700000000000008E-002   -0.89596142307420834     
   6.5999999999999989E-002    -1.0677639061240143     
   6.6299999999999998E-002    -1.1892929895545734     
   6.6600000000000006E-002    -1.2605845762567398     
   6.6900000000000001E-002    -1.2843035835419983     
   6.7199999999999996E-002    -1.2647324112962508     
   6.7500000000000004E-002    -1.2077083710660688     
   6.7800000000000013E-002    -1.1197666812254354     
   6.8099999999999994E-002    -1.0077230637002366     
   6.8400000000000002E-002   -0.87859762135414954     
   6.8700000000000011E-002   -0.73893312235169972     
   6.8999999999999992E-002   -0.59512634777275863     
   6.9300000000000000E-002   -0.45318868431926340     
   6.9600000000000009E-002   -0.31868893996956338     
   6.9900000000000004E-002   -0.19703036725030643     
   7.0199999999999999E-002    -9.3013666989094190E-002
   7.0500000000000007E-002    -1.0960504885847475E-002
   7.0800000000000016E-002     4.5558283950657863E-002
   7.1099999999999997E-002     7.4118780524967676E-002
   7.1400000000000005E-002     7.3694962123575625E-002
   7.1700000000000000E-002     4.4969751096973987E-002
   7.1999999999999995E-002    -9.2991042491876730E-003
   7.2300000000000003E-002    -8.4399768237800210E-002
   7.2600000000000012E-002   -0.17358437461834653     
   7.2900000000000006E-002   -0.26829303614484346     
   7.3200000000000001E-002   -0.35900769480945272     
   7.3499999999999996E-002   -0.43546053804661611     
   7.3800000000000004E-002   -0.48781534376739799     
   7.4099999999999999E-002   -0.50739510391476372     
   7.4400000000000008E-002   -0.48722897196449644     
   7.4700000000000003E-002   -0.42340145002525986     
   7.5000000000000011E-002   -0.31471129106398266     
   7.5299999999999992E-002   -0.16356564017644359     
   7.5600000000000001E-002     2.4250648024807031E-002
   7.5900000000000009E-002    0.24015103861813669     
   7.6200000000000004E-002    0.47270321248750946     
   7.6499999999999999E-002    0.70911774108520120     
   7.6800000000000007E-002    0.93560045362193733     
   7.7099999999999988E-002     1.1384779022647287     
   7.7399999999999997E-002     1.3053928190220034     
   7.7700000000000005E-002     1.4257273033604889     
   7.8000000000000014E-002     1.4917951415491046     
   7.8299999999999995E-002     1.4991209097022491     
   7.8600000000000003E-002     1.4466983241649771     
   7.8900000000000012E-002     1.3372818798109947     
   7.9199999999999993E-002     1.1769710587789888     
   7.9500000000000001E-002    0.97485959042663595     
   7.9800000000000010E-002    0.74248141925453837     
   8.0100000000000018E-002    0.49286332577667480     
   8.0399999999999999E-002    0.23981870891184531     
   8.0700000000000008E-002    -3.0478824787112391E-003
   8.1000000000000003E-002   -0.22340950292932460     
   8.1299999999999997E-002   -0.41073726525994658     
   8.1600000000000006E-002   -0.55731501193072042     
   8.1900000000000014E-002   -0.65862663629165041     
   8.2199999999999995E-002   -0.71347168473581490     
   8.2500000000000004E-002   -0.72449258775240466     
   8.2799999999999999E-002   -0.69731135311662129     
   8.3100000000000007E-002   -0.64074568052159364     
   8.3400000000000002E-002   -0.56598491495436321     
   8.3700000000000011E-002   -0.48556433117077269     
   8.4000000000000005E-002   -0.41303213296114549     
   8.4300000000000000E-002   -0.36120487210517460     
   8.4599999999999995E-002   -0.34173013872891644     
   8.4900000000000003E-002   -0.36388727404171206     
   8.5199999999999998E-002   -0.43356916405529233     
   8.5500000000000007E-002   -0.55285047907645612     
   8.5800000000000001E-002   -0.71906801889333494     
   8.6100000000000010E-002   -0.92493192676159453     
   8.6399999999999991E-002    -1.1582800339237380     
   8.6699999999999999E-002    -1.4025880764712042     
   8.7000000000000008E-002    -1.6378504603650867     
   8.7300000000000003E-002    -1.8415299571658466     
   8.7599999999999997E-002    -1.9901136785414977     
   8.7900000000000006E-002    -2.0606173713120199     
   8.8200000000000014E-002    -2.0326210585578224     
   8.8499999999999995E-002    -1.8897642691685661     
   8.8800000000000004E-002    -1.6216913948448308     
   8.9100000000000013E-002    -1.2253866962183864     
   8.9399999999999993E-002   -0.70605022849093402     
   8.9700000000000002E-002    -7.8009601542576634E-002
   9.0000000000000011E-002    0.63604009109066695     
   9.0299999999999991E-002     1.4051094714739083     
   9.0600000000000000E-002     2.1919698637427629     
   9.0900000000000009E-002     2.9549444576352215     
   9.1200000000000017E-002     3.6501217595651951     
   9.1499999999999998E-002     4.2351066300413009     
   9.1800000000000007E-002     4.6708996935686855     
   9.2100000000000001E-002     4.9257630535249177     
   9.2399999999999996E-002     4.9775482269533882     
   9.2700000000000005E-002     4.8151929476910311     
   9.3000000000000013E-002     4.4408134565850332     
   9.3300000000000008E-002     3.8691135546738167     
   9.3600000000000003E-002     3.1271330136591899     
   9.3899999999999997E-002     2.2527969019112106     
   9.4200000000000006E-002     1.2916853153154051     
   9.4500000000000001E-002    0.29451623347321298     
   9.4800000000000009E-002   -0.68687792060293873     
   9.5100000000000004E-002    -1.6037092415784393     
   9.5399999999999999E-002    -2.4128208232524244     
   9.5699999999999993E-002    -3.0807360379650817     
   9.6000000000000002E-002    -3.5850297321558457     
   9.6300000000000011E-002    -3.9155224610010180     
   9.6600000000000005E-002    -4.0747531274054296     
   9.6900000000000000E-002    -4.0758239160344232     
   9.7200000000000009E-002    -3.9412605803124308     
   9.7499999999999989E-002    -3.6993857227702165     
   9.7799999999999998E-002    -3.3811407647242930     
   9.8100000000000007E-002    -3.0174248747360508     
   9.8400000000000015E-002    -2.6349163013479142     
   9.8699999999999996E-002    -2.2549375793176125     
   9.9000000000000005E-002    -1.8913358748813138     
   9.9300000000000013E-002    -1.5498668423542910     
   9.9599999999999994E-002    -1.2297774919723565     
   9.9900000000000003E-002   -0.92402880834399426     
  0.10020000000000001        -0.62225157301546119     
  0.10049999999999999        -0.31319397330077781     
  0.10080000000000000          1.3676854917566761E-002
  0.10110000000000001         0.36452446411936101     
  0.10140000000000000         0.74079868810986771     
  0.10170000000000000          1.1375697006719498     
  0.10200000000000001          1.5432530332210241     
  0.10230000000000002          1.9410728825323886     
  0.10260000000000000          2.3094694450918922     
  0.10290000000000001          2.6247917130149148     
  0.10320000000000000          2.8633900476138479     
  0.10350000000000001          3.0036363671840576     
  0.10380000000000000          3.0285809871235330     
  0.10410000000000001          2.9274543982938468     
  0.10440000000000001          2.6970991603095200     
  0.10470000000000000          2.3427004042043507     
  0.10500000000000000          1.8778675173266208     
  0.10530000000000000          1.3239918261267718     
  0.10560000000000000         0.70915553007149867     
  0.10590000000000001          6.6186703925751988E-002
  0.10620000000000000        -0.56944150465075438     
  0.10650000000000001         -1.1616466061643731     
  0.10679999999999999         -1.6767026998742907     
  0.10710000000000000         -2.0850887331026584     
  0.10740000000000001         -2.3638800490733090     
  0.10770000000000000         -2.4983643084903520     
  0.10800000000000000         -2.4826965578046298     
  0.10830000000000001         -2.3210667731461427     
  0.10859999999999999         -2.0266346727619364     
  0.10890000000000000         -1.6210569534079227     
  0.10920000000000001         -1.1330177976445839     
  0.10950000000000001        -0.59573440969541558     
  0.10979999999999999         -4.5418450574195912E-002
  0.11009999999999999         0.48153565401179677     
  0.11040000000000001         0.95070450506676840     
  0.11070000000000001          1.3314973305141038     
  0.11100000000000000          1.5992022536526349     
  0.11130000000000000          1.7357600579030219     
  0.11160000000000002          1.7307176777792392     
  0.11190000000000001          1.5819634922311039     
  0.11220000000000001          1.2951394168806374     
  0.11250000000000000         0.88393092180466581     
  0.11280000000000000         0.36933119522575897     
  0.11309999999999999        -0.22134279041014082     
  0.11340000000000001        -0.85489662224378904     
  0.11369999999999998         -1.4941150172996025     
  0.11400000000000000         -2.0989163473874406     
  0.11430000000000000         -2.6283718912477667     
  0.11460000000000002         -3.0432948404756388     
  0.11489999999999999         -3.3079109598677547     
  0.11520000000000001         -3.3934455213610732     
  0.11550000000000001         -3.2801748185774500     
  0.11580000000000000         -2.9593343977580133     
  0.11609999999999999         -2.4357363707084545     
  0.11640000000000002         -1.7276473928336529     
  0.11670000000000001        -0.86737149725781748     
  0.11700000000000001         0.10043476297985166     
  0.11730000000000000          1.1213782844562630     
  0.11760000000000000          2.1342639019032088     
  0.11789999999999999          3.0760689055816570     
  0.11820000000000001          3.8861691827191720     
  0.11850000000000001          4.5110156733182549     
  0.11880000000000000          4.9088517020839220     
  0.11910000000000000          5.0524255390327824     
  0.11940000000000002          4.9318511224124109     
  0.11970000000000001          4.5552274810929987     
  0.12000000000000001          3.9479084191365956     
  0.12030000000000000          3.1509593314026887     
  0.12060000000000000          2.2175712596753741     
  0.12089999999999999          1.2095077822162885     
  0.12119999999999999         0.19213041077475213     
  0.12150000000000001        -0.77016345162616062     
  0.12180000000000001         -1.6181938049503160     
  0.12210000000000000         -2.3022228355300136     
  0.12239999999999999         -2.7846511860784773     
  0.12270000000000002         -3.0424787133431863     
  0.12300000000000001         -3.0680626538558471     
  0.12330000000000001         -2.8692178157332648     
  0.12360000000000000         -2.4684345038375284     
  0.12390000000000000         -1.9009046636975384     
  0.12419999999999999         -1.2120051054030654     
  0.12450000000000001        -0.45422339317311256     
  0.12480000000000001         0.31641386962714790     
  0.12509999999999999          1.0437875029681010     
  0.12540000000000001          1.6755472815509607     
  0.12570000000000003          2.1662885531405074     
  0.12600000000000000          2.4808033116332382     
  0.12630000000000002          2.5965725810852405     
  0.12659999999999999          2.5052897502281013     
  0.12690000000000001          2.2139822392920365     
  0.12719999999999998          1.7441911484707475     
  0.12750000000000000          1.1308557422460623     
  0.12780000000000002         0.41966773638423138     
  0.12809999999999999        -0.33645650339142108     
  0.12840000000000001         -1.0810511686347830     
  0.12869999999999998         -1.7593111665569658     
  0.12900000000000000         -2.3219904731895227     
  0.12930000000000003         -2.7298645221260571     
  0.12959999999999999         -2.9572057989571476     
  0.12990000000000002         -2.9932208743755808     
  0.13019999999999998         -2.8438709833360036     
  0.13050000000000000         -2.5303071533879091     
  0.13080000000000003         -2.0868346531763180     
  0.13109999999999999         -1.5579454817159188     
  0.13140000000000002        -0.99330401346880492     
  0.13169999999999998        -0.44334236431614116     
  0.13200000000000001          4.5891341008726272E-002
  0.13229999999999997         0.43720132927764155     
  0.13260000000000000         0.70512221026302235     
  0.13290000000000002         0.83856005146389734     
  0.13319999999999999         0.84124630819626134     
  0.13350000000000001         0.73049564051748206     
  0.13380000000000003         0.53496862194326411     
  0.13410000000000000         0.29085724881298880     
  0.13440000000000002          3.7442353432912689E-002
  0.13469999999999999        -0.18741990393292518     
  0.13500000000000001        -0.35199746510797070     
  0.13529999999999998        -0.43407747799941587     
  0.13560000000000000        -0.42339126377346403     
  0.13590000000000002        -0.32310514919700317     
  0.13619999999999999        -0.14885453031577089     
  0.13650000000000001          7.3169760862790589E-002
  0.13680000000000003         0.30946891480515148     
  0.13710000000000000         0.52334424397786261     
  0.13740000000000002         0.67937598912449315     
  0.13769999999999999         0.74798172786274542     
  0.13800000000000001         0.70882780401761813     
  0.13829999999999998         0.55374800724323059     
  0.13860000000000000         0.28783120133551776     
  0.13890000000000002         -7.1004030671658391E-002
  0.13919999999999999        -0.49365052014124799     
  0.13950000000000001        -0.94287896801568749     
  0.13979999999999998         -1.3774257442316298     
  0.14010000000000000         -1.7563760797820969     
  0.14040000000000002         -2.0433102111435488     
  0.14069999999999999         -2.2102367983327937     
  0.14100000000000001         -2.2401942158666444     
  0.14130000000000004         -2.1289922505279719     
  0.14160000000000000         -1.8849922121901699     
  0.14189999999999997         -1.5278204048340029     
  0.14219999999999999         -1.0860925907044781     
  0.14250000000000002        -0.59356382921956552     
  0.14279999999999998         -8.6257562443319502E-002
  0.14310000000000000         0.40163959531298232     
  0.14339999999999997         0.84113067528527452     
  0.14369999999999999          1.2099292299659083     
  0.14400000000000002          1.4945128533501801     
  0.14429999999999998          1.6899253726118673     
  0.14460000000000001          1.7988820444842588     
  0.14490000000000003          1.8307187563742815     
  0.14520000000000000          1.7985660504976480     
  0.14550000000000002          1.7177525484495746     
  0.14579999999999999          1.6034895434389540     
  0.14610000000000001          1.4690739631198539     
  0.14640000000000003          1.3255362751518192     
  0.14670000000000000          1.1808438825674870     
  0.14699999999999996          1.0400948206920688     
  0.14729999999999999         0.90704151704356661     
  0.14760000000000001         0.78419974823102123     
  0.14789999999999998         0.67430836313794629     
  0.14820000000000000         0.58163831123970411     