  -1.4999999999999999E-002     0.0000000000000000     
  -1.4700000000000000E-002    -2.9721164705178623E-038
  -1.4400000000000000E-002    -4.1011027216900443E-030
  -1.4100000000000000E-002    -2.4472598682072740E-026
  -1.3800000000000000E-002    -4.4257067071731546E-024
  -1.3500000000000000E-002    -4.8632906103469535E-023
  -1.3200000000000000E-002     1.5795960664869855E-021
  -1.2899999999999998E-002     1.3389000941763548E-020
  -1.2600000000000000E-002    -1.2554022003591592E-019
  -1.2299999999999998E-002    -5.8966483842607289E-019
  -1.2000000000000000E-002     3.7149896189695248E-018
  -1.1699999999999999E-002     6.7157708838892270E-018
  -1.1399999999999999E-002    -5.2620444935722478E-017
  -1.1099999999999999E-002     1.8202322620097423E-016
  -1.0799999999999999E-002    -3.0507835427159593E-016
  -1.0499999999999999E-002    -5.1411715515727043E-015
  -1.0199999999999999E-002     2.5992245387924399E-014
  -9.8999999999999991E-003    -7.5204791380484856E-016
  -9.5999999999999992E-003    -2.3357199520638559E-013
  -9.2999999999999992E-003     4.9467284226805603E-013
  -8.9999999999999993E-003    -8.3703621305751011E-015
  -8.6999999999999994E-003    -1.3632005822388692E-012
  -8.3999999999999995E-003     2.9295119993841019E-012
  -8.0999999999999996E-003    -4.0104331318660818E-012
  -7.7999999999999988E-003     9.5961156277043382E-013
  -7.4999999999999997E-003     5.5123139644855629E-012
  -7.1999999999999998E-003    -6.0159261524577713E-013
  -6.8999999999999981E-003    -2.9168327780662674E-012
  -6.5999999999999982E-003    -4.0396233519599836E-011
  -6.3000000000000000E-003     8.3683683126192763E-011
  -6.0000000000000001E-003    -3.8475314819688245E-012
  -5.6999999999999985E-003    -1.8564111645306713E-010
  -5.3999999999999986E-003     2.4474863037821128E-010
  -5.1000000000000004E-003     1.7655914441447346E-010
  -4.7999999999999987E-003    -7.9563503822552862E-010
  -4.5000000000000005E-003     3.9057338385877604E-010
  -4.1999999999999989E-003     1.0882697010291065E-009
  -3.8999999999999990E-003    -1.7553421619043339E-009
  -3.5999999999999990E-003     4.3111208694370844E-010
  -3.2999999999999991E-003     2.0660613649319722E-009
  -2.9999999999999992E-003    -2.0378547706225894E-009
  -2.6999999999999993E-003    -2.1965319151099009E-009
  -2.3999999999999994E-003     2.7366221366772217E-009
  -2.0999999999999977E-003     1.1813428460077353E-009
  -1.7999999999999995E-003     1.6304429704508463E-011
  -1.4999999999999979E-003     1.2762249528455751E-008
  -1.1999999999999997E-003    -4.7402866744629292E-008
  -8.9999999999999976E-004    -1.0926136211620506E-010
  -5.9999999999999810E-004     1.9788905467330939E-007
  -2.9999999999999992E-004    -1.9057145651975226E-007
   0.0000000000000000         -4.8245262831309190E-007
   3.0000000000000165E-004     8.9809876837856921E-007
   5.9999999999999984E-004     9.7987204107152880E-007
   9.0000000000000149E-004    -3.4003848224621326E-006
   1.2000000000000031E-003    -1.6951378436362617E-006
   1.5000000000000013E-003     1.1424092046698827E-005
   1.8000000000000030E-003     3.4278561295363025E-006
   2.1000000000000012E-003    -3.4236585831071522E-005
   2.3999999999999994E-003    -1.9208547678889161E-005
   2.7000000000000010E-003     1.2560361143943593E-004
   2.9999999999999992E-003     3.7723909274430380E-004
   3.3000000000000008E-003     6.7007615552210336E-004
   3.6000000000000025E-003     9.7848309688309230E-004
   3.9000000000000007E-003     1.3548150009467796E-003
   4.2000000000000023E-003     1.9544481193851104E-003
   4.5000000000000005E-003     3.0122219814245413E-003
   4.7999999999999987E-003     4.7320948325741963E-003
   5.1000000000000004E-003     7.2658568613324509E-003
   5.4000000000000020E-003     1.0876736631458911E-002
   5.7000000000000037E-003     1.6015491867608533E-002
   5.9999999999999984E-003     2.3276867469995133E-002
   6.3000000000000000E-003     3.3400596432130336E-002
   6.6000000000000017E-003     4.7239305767540096E-002
   6.9000000000000034E-003     6.5759678103446184E-002
   7.2000000000000015E-003     9.0082741014245515E-002
   7.5000000000000032E-003    0.12141958301156253     
   7.8000000000000014E-003    0.16094855993493651     
   8.0999999999999996E-003    0.20966245464541089     
   8.4000000000000012E-003    0.26818542578383653     
   8.7000000000000029E-003    0.33650025974656206     
   9.0000000000000011E-003    0.41358040635841320     
   9.2999999999999992E-003    0.49713218016954031     
   9.6000000000000009E-003    0.58324478909141142     
   9.8999999999999991E-003    0.66597229640314737     
   1.0200000000000001E-002    0.73710443664678138     
   1.0500000000000002E-002    0.78600411028874717     
   1.0800000000000004E-002    0.79980097727690946     
   1.1099999999999999E-002    0.76386548240549601     
   1.1400000000000000E-002    0.66250198196866350     
   1.1700000000000002E-002    0.48016011738747011     
   1.2000000000000004E-002    0.20280306988941366     
   1.2300000000000002E-002   -0.17993749935038217     
   1.2600000000000000E-002   -0.67277356375319464     
   1.2900000000000002E-002    -1.2727041470788087     
   1.3200000000000000E-002    -1.9671189479908442     
   1.3500000000000002E-002    -2.7325677759714324     
   1.3800000000000003E-002    -3.5339739796825427     
   1.4100000000000001E-002    -4.3251424344966409     
   1.4400000000000000E-002    -5.0504692066706696     
   1.4700000000000001E-002    -5.6479005951446482     
   1.4999999999999999E-002    -6.0531745243752937     
   1.5300000000000001E-002    -6.2049030288547158     
   1.5600000000000003E-002    -6.0504478501644314     
   1.5899999999999997E-002    -5.5517946837352667     
   1.6199999999999999E-002    -4.6907653215018001     
   1.6500000000000001E-002    -3.4731438505038312     
   1.6800000000000002E-002    -1.9310945045079038     
   1.7100000000000004E-002   -0.12304233648759322     
   1.7400000000000006E-002     1.8683560033142470     
   1.7700000000000000E-002     3.9417366875689197     
   1.8000000000000002E-002     5.9832288823081257     
   1.8300000000000004E-002     7.8755016174014827     
   1.8600000000000005E-002     9.5071572181865918     
   1.8900000000000000E-002     10.780870585498121     
   1.9200000000000002E-002     11.623000746771652     
   1.9500000000000003E-002     11.988363495186491     
   1.9799999999999998E-002     11.864286232616621     
   2.0100000000000000E-002     11.271682507558864     
   2.0400000000000001E-002     10.260913341830076     
   2.0700000000000003E-002     8.9085279018305528     
   2.0999999999999998E-002     7.3087641854675667     
   2.1299999999999999E-002     5.5645104460319885     
   2.1600000000000001E-002     3.7789614972249552     
   2.1900000000000003E-002     2.0448756277908728     
   2.2200000000000004E-002    0.43925216912699261     
   2.2500000000000006E-002   -0.98321562484944280     
   2.2800000000000001E-002    -2.1933589382353844     
   2.3100000000000002E-002    -3.1866002594103549     
   2.3400000000000004E-002    -3.9820162601786961     
   2.3699999999999999E-002    -4.6169671627226307     
   2.4000000000000000E-002    -5.1407634949511163     
   2.4300000000000002E-002    -5.6086546566226616     
   2.4599999999999997E-002    -6.0728298067038793     
   2.4900000000000005E-002    -6.5772381874299981     
   2.5200000000000000E-002    -7.1505826176264691     
   2.5499999999999995E-002    -7.8019863813602797     
   2.5800000000000003E-002    -8.5203151088361722     
   2.6099999999999998E-002    -9.2717750977315347     
   2.6400000000000007E-002    -10.003832667655303     
   2.6700000000000002E-002    -10.647835326410927     
   2.6999999999999996E-002    -11.124142581007590     
   2.7300000000000005E-002    -11.350309514155413     
   2.7600000000000000E-002    -11.246840755174162     
   2.7900000000000008E-002    -10.745305962617067     
   2.8200000000000003E-002    -9.7957955790265032     
   2.8499999999999998E-002    -8.3722295706388934     
   2.8800000000000006E-002    -6.4782690005200152     
   2.9100000000000001E-002    -4.1494562400272912     
   2.9400000000000003E-002    -1.4540311292498300     
   2.9700000000000004E-002     1.5083593207460808     
   3.0000000000000006E-002     4.6118746634751062     
   3.0300000000000001E-002     7.7105392824757644     
   3.0600000000000002E-002     10.646790394038653     
   3.0900000000000004E-002     13.261730430167873     
   3.1199999999999999E-002     15.406585751314879     
   3.1500000000000007E-002     16.952278306615909     
   3.1800000000000002E-002     17.801575770609304     
   3.2099999999999997E-002     17.894773571668793     
   3.2400000000000005E-002     17.217225958800952     
   3.2700000000000000E-002     15.801612709513165     
   3.3000000000000002E-002     13.724827304691416     
   3.3300000000000003E-002     11.106934678974767     
   3.3599999999999998E-002     8.0995542097123803     
   3.3900000000000000E-002     4.8765064707273069     
   3.4200000000000001E-002     1.6210523753159025     
   3.4500000000000003E-002    -1.4895551906899271     
   3.4799999999999998E-002    -4.2953024858666708     
   3.5099999999999999E-002    -6.6677667168310109     
   3.5400000000000001E-002    -8.5176661012283432     
   3.5699999999999996E-002    -9.8014759216215062     
   3.6000000000000004E-002    -10.522544546818025     
   3.6299999999999999E-002    -10.727744335310945     
   3.6600000000000008E-002    -10.501317863952011     
   3.6900000000000002E-002    -9.9542764305975879     
   3.7199999999999997E-002    -9.2126451943876759     
   3.7500000000000006E-002    -8.4044329819811878     
   3.7800000000000000E-002    -7.6478388180728132     
   3.8100000000000009E-002    -7.0403783667647986     
   3.8400000000000004E-002    -6.6525162119030767     
   3.8699999999999998E-002    -6.5240594861624288     
   3.9000000000000007E-002    -6.6623277369779998     
   3.9300000000000002E-002    -7.0460572186734112     
   3.9600000000000003E-002    -7.6281520051407199     
   3.9900000000000005E-002    -8.3413964319292120     
   4.0200000000000000E-002    -9.1036062103869426     
   4.0500000000000001E-002    -9.8196553460919347     
   4.0800000000000003E-002    -10.387132478051171     
   4.1100000000000005E-002    -10.695206027486734     
   4.1399999999999999E-002    -10.627223643223914     
   4.1700000000000008E-002    -10.063687993797032     
   4.2000000000000003E-002    -8.8834446635737834     
   4.2299999999999997E-002    -6.9740110466442786     
   4.2600000000000006E-002    -4.2401584896140747     
   4.2900000000000001E-002   -0.61715346979435992     
   4.3200000000000002E-002     3.9099633782896888     
   4.3500000000000004E-002     9.2946269481324748     
   4.3799999999999999E-002     15.410272181689805     
   4.4100000000000000E-002     22.043391482063555     
   4.4400000000000002E-002     28.890328567606140     
   4.4700000000000004E-002     35.563840954496435     
   4.4999999999999998E-002     41.614325016645722     
   4.5300000000000000E-002     46.554792320653291     
   4.5600000000000002E-002     49.900520163315889     
   4.5899999999999996E-002     51.210861006004166     
   4.6200000000000005E-002     50.132407265593429     
   4.6500000000000000E-002     46.443337243672431     
   4.6799999999999994E-002     40.083422890415704     
   4.7100000000000003E-002     31.176815120624951     
   4.7399999999999998E-002     20.038833630965541     
   4.7700000000000006E-002     7.1627963736858078     
   4.8000000000000001E-002    -6.8043326337807457     
   4.8300000000000010E-002    -21.105395042212422     
   4.8600000000000004E-002    -34.926016113807691     
   4.8899999999999999E-002    -47.454735182425793     
   4.9200000000000008E-002    -57.943271144751179     
   4.9500000000000002E-002    -65.763740745180201     
   4.9800000000000011E-002    -70.455384873606846     
   5.0100000000000006E-002    -71.758203582328974     
   5.0400000000000000E-002    -69.631897501000481     
   5.0700000000000009E-002    -64.254031672666997     
   5.1000000000000004E-002    -56.003516418349818     
   5.1299999999999998E-002    -45.428399229476781     
   5.1600000000000007E-002    -33.199488476162969     
   5.1900000000000002E-002    -20.061637601704547     
   5.2200000000000010E-002    -6.7735236554561311     
   5.2500000000000005E-002     5.9414144929664872     
   5.2800000000000000E-002     17.445203776918675     
   5.3099999999999994E-002     27.223752202726018     
   5.3400000000000003E-002     34.908427988941185     
   5.3699999999999998E-002     40.292380978536812     
   5.4000000000000006E-002     43.327453551627968     
   5.4300000000000001E-002     44.110187758102938     
   5.4599999999999996E-002     42.860836772708183     
   5.4900000000000004E-002     39.892189843245887     
   5.5199999999999999E-002     35.575723757813762     
   5.5499999999999994E-002     30.313075305089569     
   5.5800000000000002E-002     24.499235615390489     
   5.6099999999999997E-002     18.502370486981818     
   5.6400000000000006E-002     12.643761611139809     
   5.6700000000000000E-002     7.1812332075729586     
   5.6999999999999995E-002     2.3122424899331406     
   5.7300000000000004E-002    -1.8356616810737876     
   5.7599999999999998E-002    -5.1938233160098832     
   5.7900000000000007E-002    -7.7448819680219572     
   5.8200000000000002E-002    -9.5198953006790816     
   5.8499999999999996E-002    -10.577704151606611     
   5.8800000000000005E-002    -11.006024156508147     
   5.9100000000000000E-002    -10.906656358980465     
   5.9400000000000008E-002    -10.386842705659689     
   5.9700000000000003E-002    -9.5596361896396616     
   6.0000000000000012E-002    -8.5286136806626587     
   6.0300000000000006E-002    -7.3918871101005550     
   6.0600000000000001E-002    -6.2342846400934206     
   6.0900000000000010E-002    -5.1230449859743601     
   6.1200000000000004E-002    -4.1107817067078400     
   6.1500000000000013E-002    -3.2301412938751213     
   6.1800000000000008E-002    -2.4969875999781692     
   6.2100000000000002E-002    -1.9122364846648026     
   6.2399999999999997E-002    -1.4635628654001565     
   6.2700000000000006E-002    -1.1306796263031273     
   6.3000000000000000E-002   -0.88848207320641848     
   6.3300000000000009E-002   -0.71067364453603332     
   6.3600000000000004E-002   -0.57492963304830980     
   6.3899999999999998E-002   -0.46374724711421145     
   6.4199999999999993E-002   -0.36408775654441961     
   6.4500000000000002E-002   -0.27148422968176256     
   6.4800000000000010E-002   -0.18413032284275044     
   6.5100000000000005E-002   -0.10374621583704879     
   6.5400000000000000E-002    -3.4659282477161657E-002
   6.5700000000000008E-002     2.3032038185288206E-002
   6.5999999999999989E-002     6.8297610550053900E-002
   6.6299999999999998E-002    0.10464522525603748     
   6.6600000000000006E-002    0.13740888669140361     
   6.6900000000000001E-002    0.17123749941424116     
   6.7199999999999996E-002    0.21369528968516249     
   6.7500000000000004E-002    0.26803826690811050     
   6.7800000000000013E-002    0.33563577174180459     
   6.8099999999999994E-002    0.41569887639406566     
   6.8400000000000002E-002    0.50206438088323324     
   6.8700000000000011E-002    0.58866392442024917     
   6.8999999999999992E-002    0.66825069473803822     
   6.9300000000000000E-002    0.73217601100307661     
   6.9600000000000009E-002    0.77704078329538007     
   6.9900000000000004E-002    0.79961700085854304     
   7.0199999999999999E-002    0.80076517964007010     
   7.0500000000000007E-002    0.78630248468993003     
   7.0800000000000016E-002    0.75865008781013898     
   7.1099999999999997E-002    0.72539786875798740     
   7.1400000000000005E-002    0.69110174474803543     
   7.1700000000000000E-002    0.65737770718946464     
   7.1999999999999995E-002    0.62768739100070192     
   7.2300000000000003E-002    0.59690370827240002     
   7.2600000000000012E-002    0.56337312679493934     
   7.2900000000000006E-002    0.52321708825337332     
   7.3200000000000001E-002    0.47031803176005482     
   7.3499999999999996E-002    0.40705240644406970     
   7.3800000000000004E-002    0.33155235834515118     
   7.4099999999999999E-002    0.24861990123683508     
   7.4400000000000008E-002    0.16612370785888952     
   7.4700000000000003E-002     8.8330839234057157E-002
   7.5000000000000011E-002     2.6004736779834142E-002
   7.5299999999999992E-002    -1.7182654016790755E-002
   7.5600000000000001E-002    -3.8532740348519390E-002
   7.5900000000000009E-002    -3.6562374460976321E-002
   7.6200000000000004E-002    -1.8512316006104201E-002
   7.6499999999999999E-002     1.1071159281154319E-002
   7.6800000000000007E-002     4.2521904935366006E-002
   7.7099999999999988E-002     6.5658257504337403E-002
   7.7399999999999997E-002     7.5903879602249980E-002
   7.7700000000000005E-002     6.6443085986870543E-002
   7.8000000000000014E-002     3.7462358341073754E-002
   7.8299999999999995E-002    -6.8123352959940098E-003
   7.8600000000000003E-002    -6.2633022876412481E-002
   7.8900000000000012E-002   -0.11974579748103198     
   7.9199999999999993E-002   -0.17104116548771819     
   7.9500000000000001E-002   -0.20974505062715298     
   7.9800000000000010E-002   -0.22935405633808870     
   8.0100000000000018E-002   -0.23150421305786217     
   8.0399999999999999E-002   -0.21648490201484094     
   8.0700000000000008E-002   -0.19060433145303257     
   8.1000000000000003E-002   -0.16299859559678209     
   8.1299999999999997E-002   -0.13890338784778011     
   8.1600000000000006E-002   -0.12791388099645928     
   8.1900000000000014E-002   -0.13349132206804093     
   8.2199999999999995E-002   -0.15630895006214907     
   8.2500000000000004E-002   -0.19546134247219005     
   8.2799999999999999E-002   -0.24298793470167901     
   8.3100000000000007E-002   -0.29210554111490428     
   8.3400000000000002E-002   -0.33331013103305906     
   8.3700000000000011E-002   -0.35713550017865803     
   8.4000000000000005E-002   -0.35870939821948555     
   8.4300000000000000E-002   -0.33322809447121315     
   8.4599999999999995E-002   -0.28268419757731245     
   8.4900000000000003E-002   -0.21244609454397878     
   8.5199999999999998E-002   -0.12942220397023241     
   8.5500000000000007E-002    -4.5733048970053258E-002
   8.5800000000000001E-002     2.8039401019852139E-002
   8.6100000000000010E-002     8.1992571752564025E-002
   8.6399999999999991E-002    0.10807474436863318     
   8.6699999999999999E-002    0.10340586362514514     
   8.7000000000000008E-002     6.8731142231133663E-002
   8.7300000000000003E-002     9.6946288763088972E-003
   8.7599999999999997E-002    -6.3523924342249849E-002
   8.7900000000000006E-002   -0.13904030930433930     
   8.8200000000000014E-002   -0.20335156679913724     
   8.8499999999999995E-002   -0.24474083217934117     
   8.8800000000000004E-002   -0.25463871844933905     
   8.9100000000000013E-002   -0.22786138475885576     
   8.9399999999999993E-002   -0.16692838379697750     
   8.9700000000000002E-002    -7.8919713091833987E-002
   9.0000000000000011E-002     2.2895240809904682E-002
   9.0299999999999991E-002    0.12216730448404967     
   9.0600000000000000E-002    0.20059339025229050     
   9.0900000000000009E-002    0.24124051859184892     
   9.1200000000000017E-002    0.23116592138883352     
   9.1499999999999998E-002    0.16355670437147218     
   9.1800000000000007E-002     4.1933078255431466E-002
   9.2100000000000001E-002   -0.12324749939620472     
   9.2399999999999996E-002   -0.31032395095335463     
   9.2700000000000005E-002   -0.49140908913384429     
   9.3000000000000013E-002   -0.63495301166717510     
   9.3300000000000008E-002   -0.70746244561362737     
   9.3600000000000003E-002   -0.68288174811420177     
   9.3899999999999997E-002   -0.54124071614196545     
   9.4200000000000006E-002   -0.27710627601943516     
   9.4500000000000001E-002     9.9012506754448892E-002
   9.4800000000000009E-002    0.56312107404012313     
   9.5100000000000004E-002     1.0728393715230737     
   9.5399999999999999E-002     1.5773993880482351     
   9.5699999999999993E-002     2.0191518308816399     
   9.6000000000000002E-002     2.3393250501134233     
   9.6300000000000011E-002     2.4902486987748809     
   9.6600000000000005E-002     2.4342041795677600     
   9.6900000000000000E-002     2.1558033646922841     
   9.7200000000000009E-002     1.6610722670971683     
   9.7499999999999989E-002    0.97824136619408453     
   9.7799999999999998E-002    0.15928936635093294     
   9.8100000000000007E-002   -0.73104640513797392     
   9.8400000000000015E-002    -1.6156503207667896     
   9.8699999999999996E-002    -2.4166167079888226     
   9.9000000000000005E-002    -3.0632073684439405     
   9.9300000000000013E-002    -3.4966412074333846     
   9.9599999999999994E-002    -3.6793881356301696     
   9.9900000000000003E-002    -3.5961313345774197     
  0.10020000000000001         -3.2546863514104345     
  0.10049999999999999         -2.6861524614348085     
  0.10080000000000000         -1.9390952246114423     
  0.10110000000000001         -1.0753680973922179     
  0.10140000000000000        -0.16352293228123926     
  0.10170000000000000         0.72991107030608049     
  0.10200000000000001          1.5414960296019871     
  0.10230000000000002          2.2207776566760487     
  0.10260000000000000          2.7298167309515975     
  0.10290000000000001          3.0457779164314900     
  0.10320000000000000          3.1629718085511342     
  0.10350000000000001          3.0871925739237334     
  0.10380000000000000          2.8394090363423317     
  0.10410000000000001          2.4474509389046446     
  0.10440000000000001          1.9464916775723680     
  0.10470000000000000          1.3762586675659207     
  0.10500000000000000         0.77409658698826878     
  0.10530000000000000         0.18040980101352844     
  0.10560000000000000        -0.37253979665664261     
  0.10590000000000001        -0.85546997534518709     
  0.10620000000000000         -1.2445443391350963     
  0.10650000000000001         -1.5280623489040153     
  0.10679999999999999         -1.6952299246893716     
  0.10710000000000000         -1.7504133652175184     
  0.10740000000000001         -1.7008684406676107     
  0.10770000000000000         -1.5594349004923718     
  0.10800000000000000         -1.3496780352529640     
  0.10830000000000001         -1.0885489192072981     
  0.10859999999999999        -0.80393915725423781     
  0.10890000000000000        -0.51639942914684411     
  0.10920000000000001        -0.24309951916348899     
  0.10950000000000001         -4.0102746134156320E-003
  0.10979999999999999         0.19643977036218274     
  0.11009999999999999         0.34858637941331594     
  0.11040000000000001         0.45303643968109242     
  0.11070000000000001         0.51559035614033277     
  0.11100000000000000         0.53673547592426729     
  0.11130000000000000         0.52905863429994326     
  0.11160000000000002         0.49674817290967876     
  0.11190000000000001         0.44612804766175529     
  0.11220000000000001         0.38703885151326922     
  0.11250000000000000         0.31877561338934690     
  0.11280000000000000         0.24970278143379776     
  0.11309999999999999         0.18146282496033095     
  0.11340000000000001         0.11410711315224775     
  0.11369999999999998          5.5169777587973479E-002
  0.11400000000000000          1.8076890658802469E-003
  0.11430000000000000         -4.1082321337575056E-002
  0.11460000000000002         -7.1291268043210287E-002
  0.11489999999999999         -9.2335106472690498E-002
  0.11520000000000001         -9.8935596119653191E-002
  0.11550000000000001         -9.6765555934993142E-002
  0.11580000000000000         -8.7349749056814474E-002
  0.11609999999999999         -7.1082589022772424E-002
  0.11640000000000002         -5.6961574714334162E-002
  0.11670000000000001         -4.2456255762220119E-002
  0.11700000000000001         -3.3111841592383728E-002
  0.11730000000000000         -3.1347753591032507E-002
  0.11760000000000000         -3.2684379343982023E-002
  0.11789999999999999         -4.2400169118599673E-002
  0.11820000000000001         -5.3100411587768681E-002
  0.11850000000000001         -6.4829562789606721E-002
  0.11880000000000000         -7.6988211179636057E-002
  0.11910000000000000         -8.3120943697382543E-002
  0.11940000000000002         -8.8047080916777709E-002
  0.11970000000000001         -8.7305166793683942E-002
  0.12000000000000001         -8.3327909498569053E-002
  0.12030000000000000         -7.8445778708202463E-002
  0.12060000000000000         -7.0538151407281036E-002
  0.12089999999999999         -6.4333691618950375E-002
  0.12119999999999999         -5.7368178236666512E-002
  0.12150000000000001         -5.0364190093646233E-002
  0.12180000000000001         -4.3025763669757966E-002
  0.12210000000000000         -3.3044523236604562E-002
  0.12239999999999999         -2.0585620164755292E-002
  0.12270000000000002         -4.6020601957242335E-003
  0.12300000000000001          1.4557246255594458E-002
  0.12330000000000001          3.5726651603531834E-002
  0.12360000000000000          5.6292949146992649E-002
  0.12390000000000000          7.4983883319481859E-002
  0.12419999999999999          8.8503856238832168E-002
  0.12450000000000001          9.5183660427724304E-002
  0.12480000000000001          9.4966177920657868E-002
  0.12509999999999999          8.5724700012054345E-002
  0.12540000000000001          7.1212555838593761E-002
  0.12570000000000003          5.1753505674678679E-002
  0.12600000000000000          3.0336063970155341E-002
  0.12630000000000002          1.1480885341986102E-002
  0.12659999999999999         -5.8706314300595031E-003
  0.12690000000000001         -1.6820409192455088E-002
  0.12719999999999998         -2.2896352784394058E-002
  0.12750000000000000         -2.4951468795996967E-002
  0.12780000000000002         -2.2398210017691711E-002
  0.12809999999999999         -1.9927565344850851E-002
  0.12840000000000001         -1.6450105548131311E-002
  0.12869999999999998         -1.4631867835409151E-002
  0.12900000000000000         -1.5122113542939575E-002
  0.12930000000000003         -1.5916629733448762E-002
  0.12959999999999999         -1.7296654544748713E-002
  0.12990000000000002         -1.7163893096715066E-002
  0.13019999999999998         -1.3561060897209876E-002
  0.13050000000000000         -6.7175510304234021E-003
  0.13080000000000003          4.4178072341471419E-003
  0.13109999999999999          1.9119259925251264E-002
  0.13140000000000002          3.4033525614465931E-002
  0.13169999999999998          4.8827981347919991E-002
  0.13200000000000001          5.9283678289111963E-002
  0.13229999999999997          6.3483309348781436E-002
  0.13260000000000000          6.1680818163122098E-002
  0.13290000000000002          5.1142398266153188E-002
  0.13319999999999999          3.5862314231790648E-002
  0.13350000000000001          1.6427958931528375E-002
  0.13380000000000003         -4.5353620568743258E-003
  0.13410000000000000         -2.1652711153755375E-002
  0.13440000000000002         -3.5356084660644271E-002
  0.13469999999999999         -4.1072631130254833E-002
  0.13500000000000001         -3.9619620153228507E-002
  0.13529999999999998         -3.2597729622790617E-002
  0.13560000000000000         -1.9549167746579776E-002
  0.13590000000000002         -5.4608720512114850E-003
  0.13619999999999999          8.9019070645731668E-003
  0.13650000000000001          2.0604157575735318E-002
  0.13680000000000003          2.8220628001660558E-002
  0.13710000000000000          3.1940401191506096E-002
  0.13740000000000002          3.2066453781386284E-002
  0.13769999999999999          3.0388395464305495E-002
  0.13800000000000001          2.8538578284872274E-002
  0.13829999999999998          2.8720384756624195E-002
  0.13860000000000000          3.0722484750337342E-002
  0.13890000000000002          3.6503301470999672E-002
  0.13919999999999999          4.2660722645257887E-002
  0.13950000000000001          4.8860937451873587E-002
  0.13979999999999998          5.3370516579703819E-002
  0.14010000000000000          5.0813243967098742E-002
  0.14040000000000002          4.4081689247342792E-002
  0.14069999999999999          2.8474776002477942E-002
  0.14100000000000001          6.9710567182264538E-003
  0.14130000000000004         -1.7745800020240621E-002
  0.14160000000000000         -4.6054008874442776E-002
  0.14189999999999997         -6.9379795206795880E-002
  0.14219999999999999         -8.9072764823555861E-002
  0.14250000000000002         -9.9972799018073877E-002
  0.14279999999999998        -0.10025270595401969     
  0.14310000000000000         -9.3782109860479856E-002
  0.14339999999999997         -7.6856666415335395E-002
  0.14369999999999999         -5.6897940780909706E-002
  0.14400000000000002         -3.5117609763603841E-002
  0.14429999999999998         -1.3636247771139448E-002
  0.14460000000000001          1.6609127150379877E-003
  0.14490000000000003          1.3670646235565242E-002
  0.14520000000000000          1.8946845561925954E-002
  0.14550000000000002          2.0040805404278286E-002
  0.14579999999999999          1.9337529852788693E-002
  0.14610000000000001          1.7325498410165230E-002
  0.14640000000000003          1.8122405715590151E-002
  0.14670000000000000          2.0993286327282437E-002
  0.14699999999999996          2.6729566838776309E-002
  0.14729999999999999          3.4525001322852300E-002
  0.14760000000000001          4.2078412875997451E-002
  0.14789999999999998          4.6640589666743670E-002
  0.14820000000000000          4.7021322895001383E-002