  -1.4999999999999999E-002     0.0000000000000000     
  -1.4700000000000000E-002    -7.8866743453172434E-025
  -1.4400000000000000E-002    -2.4544739978340619E-020
  -1.4100000000000000E-002    -2.8412839355011822E-018
  -1.3800000000000000E-002     2.7860399024234798E-017
  -1.3500000000000000E-002     6.9732097439072119E-016
  -1.3200000000000000E-002    -1.4721062011749405E-015
  -1.2899999999999998E-002    -2.2892067911784807E-014
  -1.2600000000000000E-002    -2.1037737901981390E-015
  -1.2299999999999998E-002     3.1326418270443919E-013
  -1.2000000000000000E-002     2.4483214447966549E-013
  -1.1699999999999999E-002    -8.3751367126625720E-013
  -1.1399999999999999E-002    -4.0023736146074402E-012
  -1.1099999999999999E-002    -1.7504851490261432E-011
  -1.0799999999999999E-002     5.1658939519247424E-011
  -1.0499999999999999E-002     1.7774887995154511E-010
  -1.0199999999999999E-002    -4.2483122687779310E-010
  -9.8999999999999991E-003    -5.4848887940618442E-010
  -9.5999999999999992E-003     1.6829612852707275E-009
  -9.2999999999999992E-003    -1.4841945241272498E-010
  -8.9999999999999993E-003    -2.0011497440166451E-009
  -8.6999999999999994E-003     3.3061541792788108E-009
  -8.3999999999999995E-003    -3.9187435550198253E-009
  -8.0999999999999996E-003    -3.9118445011480280E-009
  -7.7999999999999988E-003     1.0156302428513821E-008
  -7.4999999999999997E-003     5.3214720653069186E-010
  -7.1999999999999998E-003    -4.7802467164896980E-009
  -6.8999999999999981E-003     2.3993236996398053E-009
  -6.5999999999999982E-003     1.0711899359430862E-008
  -6.3000000000000000E-003    -4.0201176890998173E-008
  -6.0000000000000001E-003    -3.6865495358787806E-008
  -5.6999999999999985E-003     1.0758312663816587E-007
  -5.3999999999999986E-003     4.5025550147713868E-008
  -5.1000000000000004E-003    -6.6468380570914803E-008
  -4.7999999999999987E-003    -5.9595351500175657E-008
  -4.5000000000000005E-003    -3.0979809087219114E-008
  -4.1999999999999989E-003     6.5705363618667609E-008
  -3.8999999999999990E-003    -1.4067695599745237E-007
  -3.5999999999999990E-003    -1.1306316476255033E-007
  -3.2999999999999991E-003     6.9217595644965267E-007
  -2.9999999999999992E-003     8.9718507628119983E-007
  -2.6999999999999993E-003    -1.8181207476515898E-006
  -2.3999999999999994E-003    -3.5322820568083695E-006
  -2.0999999999999977E-003     3.8100460329973390E-006
  -1.7999999999999995E-003     9.5964410071823996E-006
  -1.4999999999999979E-003    -5.2271374723345372E-006
  -1.1999999999999997E-003    -2.6756262261611502E-005
  -8.9999999999999976E-004    -9.7524007166985630E-008
  -5.9999999999999810E-004     1.4026178243219968E-004
  -2.9999999999999992E-004     3.9849735720422349E-004
   0.0000000000000000          6.9187261884307320E-004
   3.0000000000000165E-004     9.7787555477745619E-004
   5.9999999999999984E-004     1.3523669707228118E-003
   9.0000000000000149E-004     1.9954323691709561E-003
   1.2000000000000031E-003     3.1054487735838743E-003
   1.5000000000000013E-003     4.8589699776559747E-003
   1.8000000000000030E-003     7.4178917819188450E-003
   2.1000000000000012E-003     1.1016129882805481E-002
   2.3999999999999994E-003     1.6080621323456196E-002
   2.7000000000000010E-003     2.3266160779687239E-002
   2.9999999999999992E-003     3.3315562494301232E-002
   3.3000000000000008E-003     4.7004021161705767E-002
   3.6000000000000025E-003     6.5223380383753193E-002
   3.9000000000000007E-003     8.8967496628292286E-002
   4.2000000000000023E-003    0.11928401187819726     
   4.5000000000000005E-003    0.15720236737773519     
   4.7999999999999987E-003    0.20354820181310629     
   5.1000000000000004E-003    0.25865954033836935     
   5.4000000000000020E-003    0.32207100390863719     
   5.7000000000000037E-003    0.39226331870862996     
   5.9999999999999984E-003    0.46636865464624400     
   6.3000000000000000E-003    0.53980736186268707     
   6.6000000000000017E-003    0.60591552879656163     
   6.9000000000000034E-003    0.65567755018392759     
   7.2000000000000015E-003    0.67768616346012323     
   7.5000000000000032E-003    0.65830530777562046     
   7.8000000000000014E-003    0.58219024527142693     
   8.0999999999999996E-003    0.43324709640386239     
   8.4000000000000012E-003    0.19602042454182245     
   8.7000000000000029E-003   -0.14284398973398105     
   9.0000000000000011E-003   -0.59253118344783751     
   9.2999999999999992E-003    -1.1558169466686374     
   9.6000000000000009E-003    -1.8267290348163527     
   9.8999999999999991E-003    -2.5885465493711166     
   1.0200000000000001E-002    -3.4123747572118077     
   1.0500000000000002E-002    -4.2566029460811734     
   1.0800000000000004E-002    -5.0675429911978540     
   1.1099999999999999E-002    -5.7811174841679787     
   1.1400000000000000E-002    -6.3262241651305544     
   1.1700000000000002E-002    -6.6295455122717897     
   1.2000000000000004E-002    -6.6210863287097084     
   1.2300000000000002E-002    -6.2410245407271532     
   1.2600000000000000E-002    -5.4464141497773539     
   1.2900000000000002E-002    -4.2171849118907829     
   1.3200000000000000E-002    -2.5615951079472055     
   1.3500000000000002E-002   -0.51861137543810720     
   1.3800000000000003E-002     1.8404050045722045     
   1.4100000000000001E-002     4.4140983818616917     
   1.4400000000000000E-002     7.0756251026931487     
   1.4700000000000001E-002     9.6795923487990905     
   1.4999999999999999E-002     12.072395534844816     
   1.5300000000000001E-002     14.101365345324155     
   1.5600000000000003E-002     15.626955952222431     
   1.5899999999999997E-002     16.532282600368603     
   1.6199999999999999E-002     16.731370933790288     
   1.6500000000000001E-002     16.177358213259197     
   1.6800000000000002E-002     14.864571097229145     
   1.7100000000000004E-002     12.830295818934587     
   1.7400000000000006E-002     10.152209357200888     
   1.7700000000000000E-002     6.9423941035912549     
   1.8000000000000002E-002     3.3428242081475545     
   1.8300000000000004E-002   -0.48534414742860577     
   1.8600000000000005E-002    -4.3694593938132016     
   1.8900000000000000E-002    -8.1331777501355731     
   1.9200000000000002E-002    -11.608282744692090     
   1.9500000000000003E-002    -14.637414816501774     
   1.9799999999999998E-002    -17.084404647726245     
   2.0100000000000000E-002    -18.837114451928073     
   2.0400000000000001E-002    -19.811025274863255     
   2.0700000000000003E-002    -19.954795430203660     
   2.0999999999999998E-002    -19.249260306241467     
   2.1299999999999999E-002    -17.710816679875506     
   2.1600000000000001E-002    -15.391854017048672     
   2.1900000000000003E-002    -12.378794136148258     
   2.2200000000000004E-002    -8.7921477345227004     
   2.2500000000000006E-002    -4.7809149919970935     
   2.2800000000000001E-002   -0.51815720689989320     
   2.3100000000000002E-002     3.8060964934530546     
   2.3400000000000004E-002     7.9960850864057988     
   2.3699999999999999E-002     11.858871341719208     
   2.4000000000000000E-002     15.217257094760363     
   2.4300000000000002E-002     17.921358655409833     
   2.4599999999999997E-002     19.856195702303552     
   2.4900000000000005E-002     20.951459937301138     
   2.5200000000000000E-002     21.182667222975340     
   2.5499999999999995E-002     20.570526156136225     
   2.5800000000000003E-002     19.176898838492889     
   2.6099999999999998E-002     17.092188741466316     
   2.6400000000000007E-002     14.425428927072915     
   2.6700000000000002E-002     11.289474909302953     
   2.6999999999999996E-002     7.7867078024042371     
   2.7300000000000005E-002     4.0025052601809108     
   2.7600000000000000E-002    -4.8877062688603701E-003
   2.7900000000000008E-002    -4.1999657425801615     
   2.8200000000000003E-002    -8.5648090534340326     
   2.8499999999999998E-002    -13.086607211830795     
   2.8800000000000006E-002    -17.738436227752011     
   2.9100000000000001E-002    -22.463474565247907     
   2.9400000000000003E-002    -27.156044797143835     
   2.9700000000000004E-002    -31.649617486821853     
   3.0000000000000006E-002    -35.714129556741739     
   3.0300000000000001E-002    -39.060143358404218     
   3.0600000000000002E-002    -41.355553637819696     
   3.0900000000000004E-002    -42.253949013884153     
   3.1199999999999999E-002    -41.428221492046532     
   3.1500000000000007E-002    -38.611073629116163     
   3.1800000000000002E-002    -33.636140002768116     
   3.2099999999999997E-002    -26.469164286353362     
   3.2400000000000005E-002    -17.235961291323804     
   3.2700000000000000E-002    -6.2335214491876627     
   3.3000000000000002E-002     6.0784510715188844     
   3.3300000000000003E-002     19.095526771803520     
   3.3599999999999998E-002     32.109365671392879     
   3.3900000000000000E-002     44.356207863227041     
   3.4200000000000001E-002     55.077439201529387     
   3.4500000000000003E-002     63.577102253316355     
   3.4799999999999998E-002     69.283364832070603     
   3.5099999999999999E-002     71.791853131144649     
   3.5400000000000001E-002     70.901843173754287     
   3.5699999999999996E-002     66.636559625854488     
   3.6000000000000004E-002     59.234205441132644     
   3.6299999999999999E-002     49.137744146031991     
   3.6600000000000008E-002     36.952369316906925     
   3.6900000000000002E-002     23.401377460670801     
   3.7199999999999997E-002     9.2733198485497894     
   3.7500000000000006E-002    -4.6452344605090730     
   3.7800000000000000E-002    -17.611699826282347     
   3.8100000000000009E-002    -28.990196123545275     
   3.8400000000000004E-002    -38.280677512075954     
   3.8699999999999998E-002    -45.144588665003994     
   3.9000000000000007E-002    -49.424123856967299     
   3.9300000000000002E-002    -51.125256771139505     
   3.9600000000000003E-002    -50.413457503820609     
   3.9900000000000005E-002    -47.581777147638945     
   4.0200000000000000E-002    -43.015538186906042     
   4.0500000000000001E-002    -37.160914027512263     
   4.0800000000000003E-002    -30.481158952720989     
   4.1100000000000005E-002    -23.426812846120356     
   4.1399999999999999E-002    -16.404896617674069     
   4.1700000000000008E-002    -9.7584156002108102     
   4.2000000000000003E-002    -3.7529082966303697     
   4.2299999999999997E-002     1.4271568325456769     
   4.2600000000000006E-002     5.6775511549030284     
   4.2900000000000001E-002     8.9667883920253075     
   4.3200000000000002E-002     11.319347993193048     
   4.3500000000000004E-002     12.810135697777866     
   4.3799999999999999E-002     13.540411649457980     
   4.4100000000000000E-002     13.630787737171040     
   4.4400000000000002E-002     13.210889240040331     
   4.4700000000000004E-002     12.402590362857325     
   4.4999999999999998E-002     11.326133662924406     
   4.5300000000000000E-002     10.084068197389627     
   4.5600000000000002E-002     8.7670709895484720     
   4.5899999999999996E-002     7.4516445516115368     
   4.6200000000000005E-002     6.1950790334449266     
   4.6500000000000000E-002     5.0445204289566163     
   4.6799999999999994E-002     4.0274892249013021     
   4.7100000000000003E-002     3.1605204460369833     
   4.7399999999999998E-002     2.4467605686025706     
   4.7700000000000006E-002     1.8763913711542415     
   4.8000000000000001E-002     1.4334479358068819     
   4.8300000000000010E-002     1.0939723331585682     
   4.8600000000000004E-002    0.83186154013657188     
   4.8899999999999999E-002    0.62122456232471635     
   4.9200000000000008E-002    0.44014275041461204     
   4.9500000000000002E-002    0.27142835717579494     
   4.9800000000000011E-002    0.10553179469303053     
   5.0100000000000006E-002    -6.1372795190524077E-002
   5.0400000000000000E-002   -0.22729595176367123     
   5.0700000000000009E-002   -0.38459149065010934     
   5.1000000000000004E-002   -0.52735567740209888     
   5.1299999999999998E-002   -0.64613837389437734     
   5.1600000000000007E-002   -0.73753169247754613     
   5.1900000000000002E-002   -0.80076315204872017     
   5.2200000000000010E-002   -0.83643524673230729     
   5.2500000000000005E-002   -0.85356439474383095     
   5.2800000000000000E-002   -0.85636774699409202     
   5.3099999999999994E-002   -0.85490707576271774     
   5.3400000000000003E-002   -0.85549965983060616     
   5.3699999999999998E-002   -0.85959629846048458     
   5.4000000000000006E-002   -0.87152051309106682     
   5.4300000000000001E-002   -0.88564110602728974     
   5.4599999999999996E-002   -0.90038748666806612     
   5.4900000000000004E-002   -0.90991344126303630     
   5.5199999999999999E-002   -0.90840814242095291     
   5.5499999999999994E-002   -0.89616333643192547     
   5.5800000000000002E-002   -0.86993911682765912     
   5.6099999999999997E-002   -0.83432832665787160     
   5.6400000000000006E-002   -0.79282284582667018     
   5.6700000000000000E-002   -0.74988455210567295     
   5.6999999999999995E-002   -0.71111030225621263     
   5.7300000000000004E-002   -0.67764822750121212     
   5.7599999999999998E-002   -0.65050501428476082     
   5.7900000000000007E-002   -0.62632341395097058     
   5.8200000000000002E-002   -0.60004601486115305     
   5.8499999999999996E-002   -0.56450221704896464     
   5.8800000000000005E-002   -0.51365749947080097     
   5.9100000000000000E-002   -0.44181889690076659     
   5.9400000000000008E-002   -0.34741428998007962     
   5.9700000000000003E-002   -0.23231646981705811     
   6.0000000000000012E-002    -9.9968035034056602E-002
   6.0300000000000006E-002     3.8005936706723809E-002
   6.0600000000000001E-002    0.17416090285458630     
   6.0900000000000010E-002    0.29651925001900459     
   6.1200000000000004E-002    0.39604342162073980     
   6.1500000000000013E-002    0.46987340252211762     
   6.1800000000000008E-002    0.51165350702071977     
   6.2100000000000002E-002    0.52746340897554411     
   6.2399999999999997E-002    0.51981458993256613     
   6.2700000000000006E-002    0.49642104206837523     
   6.3000000000000000E-002    0.46776762883357925     
   6.3300000000000009E-002    0.43592784521133154     
   6.3600000000000004E-002    0.41063155524993000     
   6.3899999999999998E-002    0.38968848800344524     
   6.4199999999999993E-002    0.37322034682358662     
   6.4500000000000002E-002    0.35978915066401029     
   6.4800000000000010E-002    0.34104359352647862     
   6.5100000000000005E-002    0.31820979447136644     
   6.5400000000000000E-002    0.28520019421023335     
   6.5700000000000008E-002    0.24408341518437293     
   6.5999999999999989E-002    0.19883278181306085     
   6.6299999999999998E-002    0.15251251670749699     
   6.6600000000000006E-002    0.11579597707014733     
   6.6900000000000001E-002     9.2349679816995156E-002
   6.7199999999999996E-002     8.9415438214552445E-002
   6.7500000000000004E-002    0.10901586391131879     
   6.7800000000000013E-002    0.14768593174601907     
   6.8099999999999994E-002    0.20201260192810899     
   6.8400000000000002E-002    0.26042311705697685     
   6.8700000000000011E-002    0.31288087146826404     
   6.8999999999999992E-002    0.34738420885308519     
   6.9300000000000000E-002    0.35295543043941890     
   6.9600000000000009E-002    0.32459431261772598     
   6.9900000000000004E-002    0.25916463732723205     
   7.0199999999999999E-002    0.16162149630891243     
   7.0500000000000007E-002     4.0936112270671954E-002
   7.0800000000000016E-002    -9.0868088897027022E-002
   7.1099999999999997E-002   -0.21712647371041705     
   7.1400000000000005E-002   -0.32371643288014962     
   7.1700000000000000E-002   -0.39804610742135260     
   7.1999999999999995E-002   -0.43053531395081457     
   7.2300000000000003E-002   -0.41999730111750422     
   7.2600000000000012E-002   -0.36854781956970539     
   7.2900000000000006E-002   -0.28527049739319299     
   7.3200000000000001E-002   -0.18452877695560277     
   7.3499999999999996E-002    -7.9665126837993094E-002
   7.3800000000000004E-002     1.1143508750031117E-002
   7.4099999999999999E-002     7.7281695676813200E-002
   7.4400000000000008E-002    0.10947995701474378     
   7.4700000000000003E-002    0.10317999508610121     
   7.5000000000000011E-002     6.6253224388257648E-002
   7.5299999999999992E-002     3.7205440696124192E-003
   7.5600000000000001E-002    -6.6624281608552938E-002
   7.5900000000000009E-002   -0.12952537673096842     
   7.6200000000000004E-002   -0.17028603187449809     
   7.6499999999999999E-002   -0.17164877715751548     
   7.6800000000000007E-002   -0.13147590680772936     
   7.7099999999999988E-002    -4.4451653603831964E-002
   7.7399999999999997E-002     7.8727016879673206E-002
   7.7700000000000005E-002    0.22135730280720600     
   7.8000000000000014E-002    0.36507475257537347     
   7.8299999999999995E-002    0.47764834567930148     
   7.8600000000000003E-002    0.53746021643584285     
   7.8900000000000012E-002    0.51779602552122483     
   7.9199999999999993E-002    0.40235189053495546     
   7.9500000000000001E-002    0.18796183044794734     
   7.9800000000000010E-002   -0.12375539009392963     
   8.0100000000000018E-002   -0.50675870055821548     
   8.0399999999999999E-002   -0.93204118970371042     
   8.0700000000000008E-002    -1.3555758323195040     
   8.1000000000000003E-002    -1.7256930371529009     
   8.1299999999999997E-002    -1.9966609451633897     
   8.1600000000000006E-002    -2.1187698030348443     
   8.1900000000000014E-002    -2.0618165030095232     
   8.2199999999999995E-002    -1.8068269984749517     
   8.2500000000000004E-002    -1.3547702203257259     
   8.2799999999999999E-002   -0.73157668871955872     
   8.3100000000000007E-002     2.3140829530152729E-002
   8.3400000000000002E-002    0.84669759499069386     
   8.3700000000000011E-002     1.6692254661424073     
   8.4000000000000005E-002     2.4160594462255176     
   8.4300000000000000E-002     3.0141005143784554     
   8.4599999999999995E-002     3.4056477510633201     
   8.4900000000000003E-002     3.5478778803896986     
   8.5199999999999998E-002     3.4219549834862519     
   8.5500000000000007E-002     3.0345131054225263     
   8.5800000000000001E-002     2.4141892956101714     
   8.6100000000000010E-002     1.6123952360172211     
   8.6399999999999991E-002    0.69530123457992588     
   8.6699999999999999E-002   -0.26336266035312406     
   8.7000000000000008E-002    -1.1867409248380625     
   8.7300000000000003E-002    -2.0068593373381702     
   8.7599999999999997E-002    -2.6665366285396885     
   8.7900000000000006E-002    -3.1248224347136784     
   8.8200000000000014E-002    -3.3619820887424794     
   8.8499999999999995E-002    -3.3740902266938519     
   8.8800000000000004E-002    -3.1773063393458405     
   8.9100000000000013E-002    -2.8010612106496353     
   8.9399999999999993E-002    -2.2834002109939604     
   8.9700000000000002E-002    -1.6712637751596731     
   9.0000000000000011E-002    -1.0094456071330082     
   9.0299999999999991E-002   -0.34381100016981669     
   9.0600000000000000E-002    0.28637270205880228     
   9.0900000000000009E-002    0.84902006523109463     
   9.1200000000000017E-002     1.3171098953022096     
   9.1499999999999998E-002     1.6759868592748361     
   9.1800000000000007E-002     1.9144607382272625     
   9.2100000000000001E-002     2.0318269032888594     
   9.2399999999999996E-002     2.0332026348378829     
   9.2700000000000005E-002     1.9291135752423454     
   9.3000000000000013E-002     1.7369580917716547     
   9.3300000000000008E-002     1.4748467443830577     
   9.3600000000000003E-002     1.1670167997542222     
   9.3899999999999997E-002    0.83543423209753342     
   9.4200000000000006E-002    0.50390176961749766     
   9.4500000000000001E-002    0.19315903376917287     
   9.4800000000000009E-002    -8.0415844269564829E-002
   9.5100000000000004E-002   -0.30276304888495353     
   9.5399999999999999E-002   -0.46891342350235732     
   9.5699999999999993E-002   -0.57532324104304777     
   9.6000000000000002E-002   -0.62705495149644008     
   9.6300000000000011E-002   -0.63157496223058374     
   9.6600000000000005E-002   -0.59781641184870882     
   9.6900000000000000E-002   -0.53965332905248387     
   9.7200000000000009E-002   -0.46509693299127619     
   9.7499999999999989E-002   -0.38640395417857754     
   9.7799999999999998E-002   -0.30960865564964113     
   9.8100000000000007E-002   -0.23886607408631644     
   9.8400000000000015E-002   -0.17894993062890485     
   9.8699999999999996E-002   -0.12629994511763698     
   9.9000000000000005E-002    -8.3915020103642712E-002
   9.9300000000000013E-002    -4.8108105835374504E-002
   9.9599999999999994E-002    -1.8043988240323550E-002
   9.9900000000000003E-002     4.2031700893240265E-003
  0.10020000000000001          2.2703417167410755E-002
  0.10049999999999999          3.3053372975845985E-002
  0.10080000000000000          3.7584091516545737E-002
  0.10110000000000001          3.5901271864011486E-002
  0.10140000000000000          2.6659537786796195E-002
  0.10170000000000000          1.5132384729348192E-002
  0.10200000000000001          5.7519642282932715E-004
  0.10230000000000002         -1.2010700541709718E-002
  0.10260000000000000         -1.9610474909308007E-002
  0.10290000000000001         -2.2165900947972439E-002
  0.10320000000000000         -1.5580689206861509E-002
  0.10350000000000001         -2.2403084426587672E-003
  0.10380000000000000          1.7026723734738645E-002
  0.10410000000000001          4.0719630790854167E-002
  0.10440000000000001          6.3457524768179230E-002
  0.10470000000000000          8.3931944784121360E-002
  0.10500000000000000          9.8709620641635798E-002
  0.10530000000000000         0.10538000309207463     
  0.10560000000000000         0.10546111812666115     
  0.10590000000000001          9.7745085914584751E-002
  0.10620000000000000          8.4878937809261548E-002
  0.10650000000000001          6.9458325453840702E-002
  0.10679999999999999          5.1903160286462163E-002
  0.10710000000000000          3.6640394677059873E-002
  0.10740000000000001          2.2761064481351012E-002
  0.10770000000000000          1.0591150269938759E-002
  0.10800000000000000          1.2119619468989665E-003
  0.10830000000000001         -8.7766465923473369E-003
  0.10859999999999999         -1.7993021786923191E-002
  0.10890000000000000         -2.8468496725619463E-002
  0.10920000000000001         -4.0297176204117213E-002
  0.10950000000000001         -5.1244147156135345E-002
  0.10979999999999999         -6.2095296195484373E-002
  0.11009999999999999         -6.9544472046952688E-002
  0.11040000000000001         -7.2577801617801363E-002
  0.11070000000000001         -7.0854784919271774E-002
  0.11100000000000000         -6.2986277084670084E-002
  0.11130000000000000         -5.0655627961060157E-002
  0.11160000000000002         -3.5161990938986309E-002
  0.11190000000000001         -1.8316642964410379E-002
  0.11220000000000001         -3.4356304917967373E-003
  0.11250000000000000          7.4593874659519138E-003
  0.11280000000000000          1.3136593414392717E-002
  0.11309999999999999          1.1701324627220622E-002
  0.11340000000000001          5.2375060929304995E-003
  0.11369999999999998         -5.7738710398627657E-003
  0.11400000000000000         -1.9964404533696384E-002
  0.11430000000000000         -3.2620918995623860E-002
  0.11460000000000002         -4.5089318422680602E-002
  0.11489999999999999         -5.3024234459699393E-002
  0.11520000000000001         -5.6542358149282546E-002
  0.11550000000000001         -5.7776543711537398E-002
  0.11580000000000000         -5.3564055199206484E-002
  0.11609999999999999         -5.0049298770274309E-002
  0.11640000000000002         -4.5037675978317093E-002
  0.11670000000000001         -4.0043828772209800E-002
  0.11700000000000001         -3.8164723920978472E-002
  0.11730000000000000         -3.3385447459292783E-002
  0.11760000000000000         -3.0640459731482106E-002
  0.11789999999999999         -2.5064186671801769E-002
  0.11820000000000001         -1.5186971009123640E-002
  0.11850000000000001         -4.3764735861280823E-003
  0.11880000000000000          1.3474973692691905E-002
  0.11910000000000000          3.1873689961354978E-002
  0.11940000000000002          5.1976923856373869E-002
  0.11970000000000001          7.2410053867239810E-002
  0.12000000000000001          8.5788147801332398E-002
  0.12030000000000000          9.6152282441943071E-002
  0.12060000000000000          9.7014407701233707E-002
  0.12089999999999999          8.9528387294085077E-002
  0.12119999999999999          7.7169834391715653E-002
  0.12150000000000001          5.6447743613752210E-002
  0.12180000000000001          3.5121423149308911E-002
  0.12210000000000000          1.2692221914478677E-002
  0.12239999999999999         -8.4787932806553723E-003
  0.12270000000000002         -2.2734333143764635E-002
  0.12300000000000001         -3.4617938509922841E-002
  0.12330000000000001         -3.9883147644759621E-002
  0.12360000000000000         -4.1168372827048383E-002
  0.12390000000000000         -4.2153383279846079E-002
  0.12419999999999999         -3.9898309347241478E-002
  0.12450000000000001         -4.0750415450531471E-002
  0.12480000000000001         -4.2371288969044241E-002
  0.12509999999999999         -4.4479903071031668E-002
  0.12540000000000001         -4.9309546392391379E-002
  0.12570000000000003         -5.0316561658092285E-002
  0.12600000000000000         -5.0239382926233533E-002
  0.12630000000000002         -4.5773923674124584E-002
  0.12659999999999999         -3.4929643710927660E-002
  0.12690000000000001         -2.1963491628932519E-002
  0.12719999999999998         -3.6608693314986729E-003
  0.12750000000000000          1.4601148539275716E-002
  0.12780000000000002          3.0655736637777542E-002
  0.12809999999999999          4.4207045772866271E-002
  0.12840000000000001          4.9356108144751110E-002
  0.12869999999999998          4.8980848782210762E-002
  0.12900000000000000          4.1371883578484203E-002
  0.12930000000000003          2.7715664431478659E-002
  0.12959999999999999          1.3125964512624488E-002
  0.12990000000000002         -2.6687567720052874E-003
  0.13019999999999998         -1.4440777239941041E-002
  0.13050000000000000         -2.0312784213140769E-002
  0.13080000000000003         -2.0336419516662381E-002
  0.13109999999999999         -1.2218943776898264E-002
  0.13140000000000002          5.0406350565501690E-004
  0.13169999999999998          1.6708548142373603E-002
  0.13200000000000001          3.4696839069626395E-002
  0.13229999999999997          5.0013008329838238E-002
  0.13260000000000000          6.2939887958671115E-002
  0.13290000000000002          7.1583101401102578E-002
  0.13319999999999999          7.5413507390886148E-002
  0.13350000000000001          7.7566484210972231E-002
  0.13380000000000003          7.7464734279229841E-002
  0.13410000000000000          7.8157225559940091E-002
  0.13440000000000002          8.1085157256590712E-002
  0.13469999999999999          8.5078654336762316E-002
  0.13500000000000001          9.1859417088986373E-002
  0.13529999999999998          9.7728997670158080E-002
  0.13560000000000000         0.10108294858479383     
  0.13590000000000002         0.10064101996453440     
  0.13619999999999999          9.1595897016757188E-002
  0.13650000000000001          7.5497073104374923E-002
  0.13680000000000003          5.0725597180262483E-002
  0.13710000000000000          1.8714918674596848E-002
  0.13740000000000002         -1.6329957093736192E-002
  0.13769999999999999         -5.3324034012059540E-002
  0.13800000000000001         -8.6348650041409680E-002
  0.13829999999999998        -0.11327651514984982     
  0.13860000000000000        -0.13235778189116720     
  0.13890000000000002        -0.14106286368916210     
  0.13919999999999999        -0.14194257252153053     
  0.13950000000000001        -0.13498003018449012     
  0.13979999999999998        -0.12330476719590044     
  0.14010000000000000        -0.11068340030547374     
  0.14040000000000002         -9.8003502153965805E-002
  0.14069999999999999         -8.8782061766657705E-002
  0.14100000000000001         -8.2498113434099629E-002
  0.14130000000000004         -7.8809078160697155E-002
  0.14160000000000000         -7.7059266359866374E-002
  0.14189999999999997         -7.4086138043702343E-002
  0.14219999999999999         -6.9667223273144563E-002
  0.14250000000000002         -6.1459691363809688E-002
  0.14279999999999998         -4.9575340710474203E-002
  0.14310000000000000         -3.4990665486922534E-002
  0.14339999999999997         -1.8393501876908136E-002
  0.14369999999999999         -2.7809466479101763E-003
  0.14400000000000002          1.0402606929529878E-002
  0.14429999999999998          1.8652105029517307E-002
  0.14460000000000001          2.1259501889030585E-002
  0.14490000000000003          1.8865410805730121E-002
  0.14520000000000000          1.1887245649105205E-002
  0.14550000000000002          3.9379265626784676E-003
  0.14579999999999999         -3.1669203104873200E-003
  0.14610000000000001         -6.0622725929173615E-003
  0.14640000000000003         -2.4960194632582255E-003
  0.14670000000000000          7.5756583582337056E-003
  0.14699999999999996          2.5859395115272354E-002
  0.14729999999999999          4.8879800147886066E-002
  0.14760000000000001          7.5715532804068619E-002
  0.14789999999999998         0.10288772288820702     
  0.14820000000000000         0.12598689615759495     