  -1.4999999999999999E-002     0.0000000000000000     
  -1.4700000000000000E-002     1.7624060173203432E-006
  -1.4400000000000000E-002     8.2587823992138316E-006
  -1.4100000000000000E-002    -1.0091722151989001E-005
  -1.3800000000000000E-002    -1.5658608652238220E-005
  -1.3500000000000000E-002    -5.1699912489488653E-005
  -1.3200000000000000E-002    -1.9354611427804835E-005
  -1.2899999999999998E-002     1.3288662461467566E-004
  -1.2600000000000000E-002     9.7750065486108971E-005
  -1.2299999999999998E-002     1.1697769676213474E-004
  -1.2000000000000000E-002    -3.5472466822274781E-005
  -1.1699999999999999E-002    -1.1838854287746572E-004
  -1.1399999999999999E-002    -5.1995895292262384E-005
  -1.1099999999999999E-002     7.3018747101974684E-005
  -1.0799999999999999E-002     6.2762505166941715E-004
  -1.0499999999999999E-002     8.9372993590846076E-004
  -1.0199999999999999E-002     1.6459463024705331E-003
  -9.8999999999999991E-003     2.3249944728718731E-003
  -9.5999999999999992E-003     3.1101723179050422E-003
  -9.2999999999999992E-003     4.8521627476187934E-003
  -8.9999999999999993E-003     6.5770037437363205E-003
  -8.6999999999999994E-003     9.7448953697542653E-003
  -8.3999999999999995E-003     1.3559637522221245E-002
  -8.0999999999999996E-003     1.9004000080914477E-002
  -7.7999999999999988E-003     2.6540133830916163E-002
  -7.4999999999999997E-003     3.5658087707668984E-002
  -7.1999999999999998E-003     4.9198648057668715E-002
  -6.8999999999999981E-003     6.5372043601644170E-002
  -6.5999999999999982E-003     8.5713900857822600E-002
  -6.3000000000000000E-003    0.10985297805562144     
  -6.0000000000000001E-003    0.13640368903158873     
  -5.6999999999999985E-003    0.16665181759372971     
  -5.3999999999999986E-003    0.19562499958657975     
  -5.1000000000000004E-003    0.22233195015775031     
  -4.7999999999999987E-003    0.23964910977159937     
  -4.5000000000000005E-003    0.23844401622114386     
  -4.1999999999999989E-003    0.21022417013575412     
  -3.8999999999999990E-003    0.13656068001423538     
  -3.5999999999999990E-003     2.1586952703120943E-003
  -3.2999999999999991E-003   -0.21755615199367107     
  -2.9999999999999992E-003   -0.54884085824989626     
  -2.6999999999999993E-003    -1.0164527520678917     
  -2.3999999999999994E-003    -1.6521384581588379     
  -2.0999999999999977E-003    -2.4766232308562977     
  -1.7999999999999995E-003    -3.5099587401208598     
  -1.4999999999999979E-003    -4.7588044721492961     
  -1.1999999999999997E-003    -6.2091312433168646     
  -8.9999999999999976E-004    -7.8325154780673500     
  -5.9999999999999810E-004    -9.5644132302086327     
  -2.9999999999999992E-004    -11.314679443071839     
   0.0000000000000000         -12.960329060297596     
   3.0000000000000165E-004    -14.342181784977299     
   5.9999999999999984E-004    -15.283403152277430     
   9.0000000000000149E-004    -15.583546768637660     
   1.2000000000000031E-003    -15.043633261956444     
   1.5000000000000013E-003    -13.482970378727543     
   1.8000000000000030E-003    -10.750339089369646     
   2.1000000000000012E-003    -6.7622452181757566     
   2.3999999999999994E-003    -1.5087623318193550     
   2.7000000000000010E-003     4.9232282303967168     
   2.9999999999999992E-003     12.332689440350748     
   3.3000000000000008E-003     20.419236928368719     
   3.6000000000000025E-003     28.771150966271193     
   3.9000000000000007E-003     36.898263914542270     
   4.2000000000000023E-003     44.261836796000210     
   4.5000000000000005E-003     50.297764422269026     
   4.7999999999999987E-003     54.487195216103459     
   5.1000000000000004E-003     56.376749900101061     
   5.4000000000000020E-003     55.637316282632128     
   5.7000000000000037E-003     52.102472170171609     
   5.9999999999999984E-003     45.772498860864971     
   6.3000000000000000E-003     36.858354844658720     
   6.6000000000000017E-003     25.740332031403454     
   6.9000000000000034E-003     12.965949219762344     
   7.2000000000000015E-003   -0.78468197546357032     
   7.5000000000000032E-003    -14.773883193247684     
   7.8000000000000014E-003    -28.221655425779318     
   8.0999999999999996E-003    -40.400669364526948     
   8.4000000000000012E-003    -50.667978968405805     
   8.7000000000000029E-003    -58.506020232982110     
   9.0000000000000011E-003    -63.582573070619048     
   9.2999999999999992E-003    -65.726921925553739     
   9.6000000000000009E-003    -64.971056890939735     
   9.8999999999999991E-003    -61.516478359050780     
   1.0200000000000001E-002    -55.702764296941268     
   1.0500000000000002E-002    -48.002007650441101     
   1.0800000000000004E-002    -38.939797030798218     
   1.1099999999999999E-002    -29.085582676634658     
   1.1400000000000000E-002    -18.997054652813290     
   1.1700000000000002E-002    -9.1766825671594603     
   1.2000000000000004E-002    -6.9364223799084357E-002
   1.2300000000000002E-002     7.9887725083850114     
   1.2600000000000000E-002     14.758179369055824     
   1.2900000000000002E-002     20.100326099359449     
   1.3200000000000000E-002     23.985714954596688     
   1.3500000000000002E-002     26.456642899783787     
   1.3800000000000003E-002     27.631412360545141     
   1.4100000000000001E-002     27.676525363692292     
   1.4400000000000000E-002     26.778237937682434     
   1.4700000000000001E-002     25.143213624837813     
   1.4999999999999999E-002     22.966298529913388     
   1.5300000000000001E-002     20.424358533828581     
   1.5600000000000003E-002     17.679323074668162     
   1.5899999999999997E-002     14.853904430458783     
   1.6199999999999999E-002     12.053132093255442     
   1.6500000000000001E-002     9.3579798266687249     
   1.6800000000000002E-002     6.8204635379617571     
   1.7100000000000004E-002     4.4918184865016570     
   1.7400000000000006E-002     2.3990365381377714     
   1.7700000000000000E-002    0.56659078467969914     
   1.8000000000000002E-002   -0.98393783864856488     
   1.8300000000000004E-002    -2.2496114627610950     
   1.8600000000000005E-002    -3.2200923469861351     
   1.8900000000000000E-002    -3.9046920864952170     
   1.9200000000000002E-002    -4.3206443553269160     
   1.9500000000000003E-002    -4.4884266345911144     
   1.9799999999999998E-002    -4.4488201814138080     
   2.0100000000000000E-002    -4.2395430927351612     
   2.0400000000000001E-002    -3.9071773591642369     
   2.0700000000000003E-002    -3.5005530579820316     
   2.0999999999999998E-002    -3.0592569751919427     
   2.1299999999999999E-002    -2.6218464396621073     
   2.1600000000000001E-002    -2.2160745801051860     
   2.1900000000000003E-002    -1.8569365802001627     
   2.2200000000000004E-002    -1.5550482361115314     
   2.2500000000000006E-002    -1.3087016154825051     
   2.2800000000000001E-002    -1.1094522023217905     
   2.3100000000000002E-002   -0.95269406778016474     
   2.3400000000000004E-002   -0.82289506073555785     
   2.3699999999999999E-002   -0.71393747399713092     
   2.4000000000000000E-002   -0.62027768632576041     
   2.4300000000000002E-002   -0.53159871687879345     
   2.4599999999999997E-002   -0.45319720312713940     
   2.4900000000000005E-002   -0.37652477167230458     
   2.5200000000000000E-002   -0.30197555994388203     
   2.5499999999999995E-002   -0.22882354848094533     
   2.5800000000000003E-002   -0.14508189153951223     
   2.6099999999999998E-002    -5.3204284274852881E-002
   2.6400000000000007E-002     5.8701247668911272E-002
   2.6700000000000002E-002    0.19347930895698884     
   2.6999999999999996E-002    0.34956194433011234     
   2.7300000000000005E-002    0.53113225633298988     
   2.7600000000000000E-002    0.72562257904619720     
   2.7900000000000008E-002    0.92587284364617517     
   2.8200000000000003E-002     1.1187355111297634     
   2.8499999999999998E-002     1.2867483142277507     
   2.8800000000000006E-002     1.4195445313749850     
   2.9100000000000001E-002     1.5049002160831400     
   2.9400000000000003E-002     1.5359889590427009     
   2.9700000000000004E-002     1.5131079162289893     
   3.0000000000000006E-002     1.4384185806198744     
   3.0300000000000001E-002     1.3188101159356265     
   3.0600000000000002E-002     1.1680673420354708     
   3.0900000000000004E-002    0.99209175136633476     
   3.1199999999999999E-002    0.80385253511473209     
   3.1500000000000007E-002    0.61125561168910814     
   3.1800000000000002E-002    0.41328916872707833     
   3.2099999999999997E-002    0.22022167499110668     
   3.2400000000000005E-002     2.4219588850983964E-002
   3.2700000000000000E-002   -0.17074564179226925     
   3.3000000000000002E-002   -0.36099256542226321     
   3.3300000000000003E-002   -0.55183852227320429     
   3.3599999999999998E-002   -0.72577618378594622     
   3.3900000000000000E-002   -0.88330924623060270     
   3.4200000000000001E-002    -1.0109105020883682     
   3.4500000000000003E-002    -1.0945607280929792     
   3.4799999999999998E-002    -1.1356581381892781     
   3.5099999999999999E-002    -1.1188026690904209     
   3.5400000000000001E-002    -1.0531714152061582     
   3.5699999999999996E-002   -0.94361727561362052     
   3.6000000000000004E-002   -0.79699406425585018     
   3.6299999999999999E-002   -0.63755573628816542     
   3.6600000000000008E-002   -0.47397664123682226     
   3.6900000000000002E-002   -0.32671396523122365     
   3.7199999999999997E-002   -0.21029506495265338     
   3.7500000000000006E-002   -0.12761898556361206     
   3.7800000000000000E-002    -8.7471779243511349E-002
   3.8100000000000009E-002    -8.3029400024995426E-002
   3.8400000000000004E-002   -0.10548386365480014     
   3.8699999999999998E-002   -0.14837433645051434     
   3.9000000000000007E-002   -0.19426511672497337     
   3.9300000000000002E-002   -0.23606528058880816     
   3.9600000000000003E-002   -0.26717875591568774     
   3.9900000000000005E-002   -0.27785214937357061     
   4.0200000000000000E-002   -0.27489605467854084     
   4.0500000000000001E-002   -0.25534934983963797     
   4.0800000000000003E-002   -0.22447337438873127     
   4.1100000000000005E-002   -0.19111466225204321     
   4.1399999999999999E-002   -0.15042909457365461     
   4.1700000000000008E-002   -0.11197754424433715     
   4.2000000000000003E-002    -6.9004345827585301E-002
   4.2299999999999997E-002    -1.8333441925995508E-002
   4.2600000000000006E-002     3.9020537904520536E-002
   4.2900000000000001E-002    0.11460406573429127     
   4.3200000000000002E-002    0.20184695347309223     
   4.3500000000000004E-002    0.30350338469887461     
   4.3799999999999999E-002    0.41325541573960400     
   4.4100000000000000E-002    0.51863583578037975     
   4.4400000000000002E-002    0.61356212312997016     
   4.4700000000000004E-002    0.67996433342565510     
   4.4999999999999998E-002    0.71125125517123777     
   4.5300000000000000E-002    0.69778633560430592     
   4.5600000000000002E-002    0.63764327420874700     
   4.5899999999999996E-002    0.53562655644745938     
   4.6200000000000005E-002    0.39892669112549939     
   4.6500000000000000E-002    0.24457564016114741     
   4.6799999999999994E-002     8.4641496068498467E-002
   4.7100000000000003E-002    -6.0249475262289687E-002
   4.7399999999999998E-002   -0.18083241890401869     
   4.7700000000000006E-002   -0.26837045255804881     
   4.8000000000000001E-002   -0.32029970332635305     
   4.8300000000000010E-002   -0.34907267164357059     
   4.8600000000000004E-002   -0.36041411528394818     
   4.8899999999999999E-002   -0.37954846117382068     
   4.9200000000000008E-002   -0.42217584866329538     
   4.9500000000000002E-002   -0.50445134059490115     
   4.9800000000000011E-002   -0.64435561005944919     
   5.0100000000000006E-002   -0.83665137050988747     
   5.0400000000000000E-002    -1.0820232816190263     
   5.0700000000000009E-002    -1.3584585690963529     
   5.1000000000000004E-002    -1.6365670489317274     
   5.1299999999999998E-002    -1.8868080013404303     
   5.1600000000000007E-002    -2.0631346647856095     
   5.1900000000000002E-002    -2.1337882021759835     
   5.2200000000000010E-002    -2.0654576256779258     
   5.2500000000000005E-002    -1.8350739243230301     
   5.2800000000000000E-002    -1.4403230878916347     
   5.3099999999999994E-002   -0.88717091279947802     
   5.3400000000000003E-002   -0.20370016615995290     
   5.3699999999999998E-002    0.56569943342965345     
   5.4000000000000006E-002     1.3696507001203244     
   5.4300000000000001E-002     2.1430054037801796     
   5.4599999999999996E-002     2.8198430334602342     
   5.4900000000000004E-002     3.3439822749071517     
   5.5199999999999999E-002     3.6586629057571738     
   5.5499999999999994E-002     3.7332580605506211     
   5.5800000000000002E-002     3.5520274841781259     
   5.6099999999999997E-002     3.1164766110701763     
   5.6400000000000006E-002     2.4642446206625337     
   5.6700000000000000E-002     1.6346453655100035     
   5.6999999999999995E-002    0.69800136639902810     
   5.7300000000000004E-002   -0.26952896691269501     
   5.7599999999999998E-002    -1.1967762101036215     
   5.7900000000000007E-002    -1.9984043886350378     
   5.8200000000000002E-002    -2.6203813700435177     
   5.8499999999999996E-002    -3.0111323042921612     
   5.8800000000000005E-002    -3.1427463683544588     
   5.9100000000000000E-002    -3.0199629870692846     
   5.9400000000000008E-002    -2.6533012670337088     
   5.9700000000000003E-002    -2.0901774084028730     
   6.0000000000000012E-002    -1.3833497808408630     
   6.0300000000000006E-002   -0.59496844329068299     
   6.0600000000000001E-002    0.20278276118060745     
   6.0900000000000010E-002    0.95230444130663017     
   6.1200000000000004E-002     1.5970050588523321     
   6.1500000000000013E-002     2.0966795492807933     
   6.1800000000000008E-002     2.4296053525022927     
   6.2100000000000002E-002     2.5862356066753733     
   6.2399999999999997E-002     2.5733079435468653     
   6.2700000000000006E-002     2.4128178015721389     
   6.3000000000000000E-002     2.1288969557089281     
   6.3300000000000009E-002     1.7552844191483885     
   6.3600000000000004E-002     1.3272704714587391     
   6.3899999999999998E-002    0.87033528803718951     
   6.4199999999999993E-002    0.41995050392083733     
   6.4500000000000002E-002    -7.9090449152321440E-003
   6.4800000000000010E-002   -0.39403212346701721     
   6.5100000000000005E-002   -0.72142505227631659     
   6.5400000000000000E-002   -0.99145468223192523     
   6.5700000000000008E-002    -1.1884891201915266     
   6.5999999999999989E-002    -1.3188831437781765     
   6.6299999999999998E-002    -1.3820097906181807     
   6.6600000000000006E-002    -1.3762617383360336     
   6.6900000000000001E-002    -1.3178391825649758     
   6.7199999999999996E-002    -1.2049428523847077     
   6.7500000000000004E-002    -1.0555228651822226     
   6.7800000000000013E-002   -0.88134364729509329     
   6.8099999999999994E-002   -0.69169939997998853     
   6.8400000000000002E-002   -0.50776320634508743     
   6.8700000000000011E-002   -0.33438441739260938     
   6.8999999999999992E-002   -0.18516313514390781     
   6.9300000000000000E-002    -6.6030169929932270E-002
   6.9600000000000009E-002     2.3443366657351250E-002
   6.9900000000000004E-002     8.1185915044791557E-002
   7.0199999999999999E-002    0.11404136446772162     
   7.0500000000000007E-002    0.12825273553347216     
   7.0800000000000016E-002    0.13045965468044685     
   7.1099999999999997E-002    0.12795575656388625     
   7.1400000000000005E-002    0.12763725874066267     
   7.1700000000000000E-002    0.12945237448182567     
   7.1999999999999995E-002    0.13773806749707784     
   7.2300000000000003E-002    0.14981743913083356     
   7.2600000000000012E-002    0.16138863097032186     
   7.2900000000000006E-002    0.17506725296705739     
   7.3200000000000001E-002    0.18121853327645976     
   7.3499999999999996E-002    0.18440170041844084     
   7.3800000000000004E-002    0.18212150946263339     
   7.4099999999999999E-002    0.17273848223153543     
   7.4400000000000008E-002    0.16555492305129249     
   7.4700000000000003E-002    0.15428266081750586     
   7.5000000000000011E-002    0.14693706154249231     
   7.5299999999999992E-002    0.14276790444254228     
   7.5600000000000001E-002    0.13753649916643607     
   7.5900000000000009E-002    0.13576418095270970     
   7.6200000000000004E-002    0.12827428378431982     
   7.6499999999999999E-002    0.11531207503357321     
   7.6800000000000007E-002     9.4282197452968286E-002
   7.7099999999999988E-002     6.0200204109595923E-002
   7.7399999999999997E-002     1.6458170026048324E-002
   7.7700000000000005E-002    -3.7353855175890738E-002
   7.8000000000000014E-002    -9.8204787651558156E-002
   7.8299999999999995E-002   -0.15902192598484444     
   7.8600000000000003E-002   -0.21710637739861482     
   7.8900000000000012E-002   -0.26791655389584168     
   7.9199999999999993E-002   -0.30390018448918976     
   7.9500000000000001E-002   -0.32874909484376147     
   7.9800000000000010E-002   -0.33717972365137339     
   8.0100000000000018E-002   -0.33133361472085809     
   8.0399999999999999E-002   -0.31818077328918104     
   8.0700000000000008E-002   -0.29255979735526783     
   8.1000000000000003E-002   -0.26744756110352341     
   8.1299999999999997E-002   -0.23835455956401397     
   8.1600000000000006E-002   -0.20762936425746048     
   8.1900000000000014E-002   -0.18195809890529269     
   8.2199999999999995E-002   -0.14992343982710121     
   8.2500000000000004E-002   -0.12207140663544003     
   8.2799999999999999E-002    -8.9634776111026770E-002
   8.3100000000000007E-002    -5.1872624203374240E-002
   8.3400000000000002E-002    -1.5462119099552307E-002
   8.3700000000000011E-002     2.9053168229982052E-002
   8.4000000000000005E-002     6.9529427022488280E-002
   8.4300000000000000E-002    0.10946036563779016     
   8.4599999999999995E-002    0.14629467381515293     
   8.4900000000000003E-002    0.17249015166332216     
   8.5199999999999998E-002    0.19432056757650695     
   8.5500000000000007E-002    0.20442975977533484     
   8.5800000000000001E-002    0.20718804422371218     
   8.6100000000000010E-002    0.20481278079926479     
   8.6399999999999991E-002    0.19646098104477172     
   8.6699999999999999E-002    0.18850254966489377     
   8.7000000000000008E-002    0.18106781779901659     
   8.7300000000000003E-002    0.17576135867234388     
   8.7599999999999997E-002    0.17428230225673857     
   8.7900000000000006E-002    0.17547025871547373     
   8.8200000000000014E-002    0.17742679138105100     
   8.8499999999999995E-002    0.18084785577259854     
   8.8800000000000004E-002    0.18100464489991808     
   8.9100000000000013E-002    0.17870253061698804     
   8.9399999999999993E-002    0.17349109403501295     
   8.9700000000000002E-002    0.16174682864055079     
   9.0000000000000011E-002    0.14934880001385675     
   9.0299999999999991E-002    0.13204009244165560     
   9.0600000000000000E-002    0.11409509866904832     
   9.0900000000000009E-002     9.7356959162566703E-002
   9.1200000000000017E-002     7.8006952488540726E-002
   9.1499999999999998E-002     6.2117650027233601E-002
   9.1800000000000007E-002     4.3597687134488139E-002
   9.2100000000000001E-002     2.4669544550284028E-002
   9.2399999999999996E-002     4.4842706702249435E-003
   9.2700000000000005E-002    -2.0694377077658005E-002
   9.3000000000000013E-002    -4.6271267994638876E-002
   9.3300000000000008E-002    -7.6161099352437756E-002
   9.3600000000000003E-002   -0.10597118583450005     
   9.3899999999999997E-002   -0.13472491593029989     
   9.4200000000000006E-002   -0.16070470771360945     
   9.4500000000000001E-002   -0.17992140954723856     
   9.4800000000000009E-002   -0.19244480534975716     
   9.5100000000000004E-002   -0.19511456059908117     
   9.5399999999999999E-002   -0.19018019078948445     
   9.5699999999999993E-002   -0.17644260381615240     
   9.6000000000000002E-002   -0.15744453001665715     
   9.6300000000000011E-002   -0.13430691605167189     
   9.6600000000000005E-002   -0.10842112374227053     
   9.6900000000000000E-002    -8.4346777592100075E-002
   9.7200000000000009E-002    -5.9627143953865147E-002
   9.7499999999999989E-002    -3.9004654432164498E-002
   9.7799999999999998E-002    -1.9613029793164150E-002
   9.8100000000000007E-002    -1.4781072122883043E-003
   9.8400000000000015E-002     1.4307002772012745E-002
   9.8699999999999996E-002     3.1964695577698876E-002
   9.9000000000000005E-002     4.7482845132345575E-002
   9.9300000000000013E-002     6.4011289487581280E-002
   9.9599999999999994E-002     7.9476633912533207E-002
   9.9900000000000003E-002     9.2466925974366593E-002
  0.10020000000000001         0.10356379098764135     
  0.10049999999999999         0.10990445261338122     
  0.10080000000000000         0.11333087188763136     
  0.10110000000000001         0.11226633429535271     
  0.10140000000000000         0.10914386957679367     
  0.10170000000000000         0.10431626577548281     
  0.10200000000000001         0.10026057434256863     
  0.10230000000000002          9.8543410180685242E-002
  0.10260000000000000          9.8511814270196840E-002
  0.10290000000000001         0.10369143705554951     
  0.10320000000000000         0.10932362671705009     
  0.10350000000000001         0.11784650860300205     
  0.10380000000000000         0.12566301549135295     
  0.10410000000000001         0.12919240830123258     
  0.10440000000000001         0.13066033006960787     
  0.10470000000000000         0.12251466563673574     
  0.10500000000000000         0.11009933184818022     
  0.10530000000000000          9.0469473472037598E-002
  0.10560000000000000          6.3806597239150803E-002
  0.10590000000000001          3.6541025317121445E-002
  0.10620000000000000          3.9511861601900788E-003
  0.10650000000000001         -2.6331246224416627E-002
  0.10679999999999999         -5.5746235247984055E-002
  0.10710000000000000         -8.4601707864161213E-002
  0.10740000000000001        -0.10912519088353001     
  0.10770000000000000        -0.13459818695279147     
  0.10800000000000000        -0.15772835919285555     
  0.10830000000000001        -0.18049961404366677     
  0.10859999999999999        -0.20449237203902193     
  0.10890000000000000        -0.22653552627201101     
  0.10920000000000001        -0.24757501533040838     
  0.10950000000000001        -0.26565593375831220     
  0.10979999999999999        -0.27736559071696654     
  0.11009999999999999        -0.28316380573651756     
  0.11040000000000001        -0.28088036025422891     
  0.11070000000000001        -0.26875484261305616     
  0.11100000000000000        -0.25061752767833223     
  0.11130000000000000        -0.22365592120396016     
  0.11160000000000002        -0.19302687244937733     
  0.11190000000000001        -0.16161938153661914     
  0.11220000000000001        -0.12805682977629917     
  0.11250000000000000        -0.10058233877597811     
  0.11280000000000000         -7.4200681952614644E-002
  0.11309999999999999         -5.2342869637459044E-002
  0.11340000000000001         -3.5840781795773102E-002
  0.11369999999999998         -1.7831142214516205E-002
  0.11400000000000000         -3.9457846323860402E-003
  0.11430000000000000          1.3445094599761287E-002
  0.11460000000000002          3.3267500403005246E-002
  0.11489999999999999          5.3667127077855814E-002
  0.11520000000000001          7.9842709287005098E-002
  0.11550000000000001         0.10470764609018124     
  0.11580000000000000         0.13084736747206183     
  0.11609999999999999         0.15595278812851943     
  0.11640000000000002         0.17611952201986902     
  0.11670000000000001         0.19459551515040996     
  0.11700000000000001         0.20807315030373985     
  0.11730000000000000         0.21808068432770877     
  0.11760000000000000         0.22718936215899621     
  0.11789999999999999         0.23398279899086649     
  0.11820000000000001         0.24118624841706637     
  0.11850000000000001         0.25022748247498683     
  0.11880000000000000         0.25784691110339963     
  0.11910000000000000         0.26666394917434921     
  0.11940000000000002         0.27258165085281849     
  0.11970000000000001         0.27273099545605994     
  0.12000000000000001         0.26859000528371979     
  0.12030000000000000         0.25284534952005977     
  0.12060000000000000         0.22966672119624176     
  0.12089999999999999         0.19708093300342266     
  0.12119999999999999         0.15392154165805949     
  0.12150000000000001         0.10821481005284705     
  0.12180000000000001          5.5962376923381796E-002
  0.12210000000000000          4.6724434833851358E-003
  0.12239999999999999         -4.3347997479022737E-002
  0.12270000000000002         -8.9833717639920874E-002
  0.12300000000000001        -0.12759456233724142     
  0.12330000000000001        -0.16209573533821553     
  0.12360000000000000        -0.19094361307570473     
  0.12390000000000000        -0.21464050471397567     
  0.12419999999999999        -0.23797547428624011     
  0.12450000000000001        -0.25729111217718614     
  0.12480000000000001        -0.27620381498977231     
  0.12509999999999999        -0.29361175653755023     
  0.12540000000000001        -0.30670873603267168     
  0.12570000000000003        -0.31638079891659299     
  0.12600000000000000        -0.31955023441798680     
  0.12630000000000002        -0.31402841330280395     
  0.12659999999999999        -0.30183956833127024     
  0.12690000000000001        -0.28038275764746512     
  0.12719999999999998        -0.25172002053463505     
  0.12750000000000000        -0.21996761242998719     
  0.12780000000000002        -0.18320197184634424     
  0.12809999999999999        -0.14885839325125350     
  0.12840000000000001        -0.11600749075800021     
  0.12869999999999998         -8.5422379802015502E-002
  0.12900000000000000         -6.1526614838447014E-002
  0.12930000000000003         -3.7231013499451571E-002
  0.12959999999999999         -1.6621480915399195E-002
  0.12990000000000002          4.7569600642269061E-003
  0.13019999999999998          3.1093268678081820E-002
  0.13050000000000000          5.8369141768680688E-002
  0.13080000000000003          9.3619431340184800E-002
  0.13109999999999999         0.13252493870676307     
  0.13140000000000002         0.17403713431583334     
  0.13169999999999998         0.21953516802070805     
  0.13200000000000001         0.26110254818101275     
  0.13229999999999997         0.30084368558004471     
  0.13260000000000000         0.33473400663934783     
  0.13290000000000002         0.35987618861116033     
  0.13319999999999999         0.37984802049723854     
  0.13350000000000001         0.39065729901961177     
  0.13380000000000003         0.39521760145655449     
  0.13410000000000000         0.39586402279652866     
  0.13440000000000002         0.38960105150641233     
  0.13469999999999999         0.38111656987597087     
  0.13500000000000001         0.36825009382015139     
  0.13529999999999998         0.34887504009045323     
  0.13560000000000000         0.32572921132964172     
  0.13590000000000002         0.29241124716376365     
  0.13619999999999999         0.25141110421397084     
  0.13650000000000001         0.20175475363716777     
  0.13680000000000003         0.14070756841143905     
  0.13710000000000000          7.5336127060781077E-002
  0.13740000000000002          2.6277247079088961E-003
  0.13769999999999999         -7.1215744162644423E-002
  0.13800000000000001        -0.14187723208772152     
  0.13829999999999998        -0.21016086245060350     
  0.13860000000000000        -0.26835022072704096     
  0.13890000000000002        -0.31902918969044158     
  0.13919999999999999        -0.35979502215313008     
  0.13950000000000001        -0.38976990258165500     
  0.13979999999999998        -0.41341101494977650     
  0.14010000000000000        -0.42888025127932039     
  0.14040000000000002        -0.44024523605753707     
  0.14069999999999999        -0.44796034941647456     
  0.14100000000000001        -0.45145913283420214     
  0.14130000000000004        -0.45232172695345163     
  0.14160000000000000        -0.44854779307503989     
  0.14189999999999997        -0.43953232521029584     
  0.14219999999999999        -0.42437447943051865     
  0.14250000000000002        -0.40215924069630660     
  0.14279999999999998        -0.37232746769665859     
  0.14310000000000000        -0.33625548976917052     
  0.14339999999999997        -0.29422031843062157     
  0.14369999999999999        -0.24819230704332629     
  0.14400000000000002        -0.20110258021110461     
  0.14429999999999998        -0.15243882141283738     
  0.14460000000000001        -0.10579652109157323     
  0.14490000000000003         -6.0224418821956949E-002
  0.14520000000000000         -1.5180015159123372E-002
  0.14550000000000002          2.8572045259222412E-002
  0.14579999999999999          7.4639559901868324E-002
  0.14610000000000001         0.12231379805049425     
  0.14640000000000003         0.17316486899493011     
  0.14670000000000000         0.22825934635909739     
  0.14699999999999996         0.28536885823437430     
  0.14729999999999999         0.34443827397152305     
  0.14760000000000001         0.40276013910267672     
  0.14789999999999998         0.45595426906729308     
  0.14820000000000000         0.50344273526537897     