  -1.4999999999999999E-002     0.0000000000000000     
  -1.4700000000000000E-002     0.0000000000000000     
  -1.4400000000000000E-002     0.0000000000000000     
  -1.4100000000000000E-002     0.0000000000000000     
  -1.3800000000000000E-002     0.0000000000000000     
  -1.3500000000000000E-002     0.0000000000000000     
  -1.3200000000000000E-002     0.0000000000000000     
  -1.2899999999999998E-002     0.0000000000000000     
  -1.2600000000000000E-002     0.0000000000000000     
  -1.2299999999999998E-002     0.0000000000000000     
  -1.2000000000000000E-002     0.0000000000000000     
  -1.1699999999999999E-002     0.0000000000000000     
  -1.1399999999999999E-002     0.0000000000000000     
  -1.1099999999999999E-002     0.0000000000000000     
  -1.0799999999999999E-002     0.0000000000000000     
  -1.0499999999999999E-002     0.0000000000000000     
  -1.0199999999999999E-002     0.0000000000000000     
  -9.8999999999999991E-003     0.0000000000000000     
  -9.5999999999999992E-003     0.0000000000000000     
  -9.2999999999999992E-003     0.0000000000000000     
  -8.9999999999999993E-003     0.0000000000000000     
  -8.6999999999999994E-003     0.0000000000000000     
  -8.3999999999999995E-003     0.0000000000000000     
  -8.0999999999999996E-003     0.0000000000000000     
  -7.7999999999999988E-003     0.0000000000000000     
  -7.4999999999999997E-003     0.0000000000000000     
  -7.1999999999999998E-003     0.0000000000000000     
  -6.8999999999999981E-003     0.0000000000000000     
  -6.5999999999999982E-003     0.0000000000000000     
  -6.3000000000000000E-003     0.0000000000000000     
  -6.0000000000000001E-003     0.0000000000000000     
  -5.6999999999999985E-003     0.0000000000000000     
  -5.3999999999999986E-003     0.0000000000000000     
  -5.1000000000000004E-003     0.0000000000000000     
  -4.7999999999999987E-003     0.0000000000000000     
  -4.5000000000000005E-003     0.0000000000000000     
  -4.1999999999999989E-003     0.0000000000000000     
  -3.8999999999999990E-003     0.0000000000000000     
  -3.5999999999999990E-003     0.0000000000000000     
  -3.2999999999999991E-003     0.0000000000000000     
  -2.9999999999999992E-003     0.0000000000000000     
  -2.6999999999999993E-003     0.0000000000000000     
  -2.3999999999999994E-003     0.0000000000000000     
  -2.0999999999999977E-003     0.0000000000000000     
  -1.7999999999999995E-003     0.0000000000000000     
  -1.4999999999999979E-003     0.0000000000000000     
  -1.1999999999999997E-003     0.0000000000000000     
  -8.9999999999999976E-004     0.0000000000000000     
  -5.9999999999999810E-004     0.0000000000000000     
  -2.9999999999999992E-004     0.0000000000000000     
   0.0000000000000000          0.0000000000000000     
   3.0000000000000165E-004     0.0000000000000000     
   5.9999999999999984E-004     0.0000000000000000     
   9.0000000000000149E-004     0.0000000000000000     
   1.2000000000000031E-003     0.0000000000000000     
   1.5000000000000013E-003     0.0000000000000000     
   1.8000000000000030E-003     0.0000000000000000     
   2.1000000000000012E-003     0.0000000000000000     
   2.3999999999999994E-003     0.0000000000000000     
   2.7000000000000010E-003     0.0000000000000000     
   2.9999999999999992E-003     0.0000000000000000     
   3.3000000000000008E-003     0.0000000000000000     
   3.6000000000000025E-003     0.0000000000000000     
   3.9000000000000007E-003     0.0000000000000000     
   4.2000000000000023E-003     0.0000000000000000     
   4.5000000000000005E-003     0.0000000000000000     
   4.7999999999999987E-003     0.0000000000000000     
   5.1000000000000004E-003     0.0000000000000000     
   5.4000000000000020E-003     0.0000000000000000     
   5.7000000000000037E-003     0.0000000000000000     
   5.9999999999999984E-003     0.0000000000000000     
   6.3000000000000000E-003     0.0000000000000000     
   6.6000000000000017E-003     0.0000000000000000     
   6.9000000000000034E-003     0.0000000000000000     
   7.2000000000000015E-003     0.0000000000000000     
   7.5000000000000032E-003     0.0000000000000000     
   7.8000000000000014E-003     0.0000000000000000     
   8.0999999999999996E-003     0.0000000000000000     
   8.4000000000000012E-003     0.0000000000000000     
   8.7000000000000029E-003     0.0000000000000000     
   9.0000000000000011E-003     0.0000000000000000     
   9.2999999999999992E-003     0.0000000000000000     
   9.6000000000000009E-003     0.0000000000000000     
   9.8999999999999991E-003     0.0000000000000000     
   1.0200000000000001E-002    -5.3215064762866892E-037
   1.0500000000000002E-002    -2.6608152988497326E-036
   1.0800000000000004E-002    -6.2348940702287119E-036
   1.1099999999999999E-002     1.6258187462896505E-035
   1.1400000000000000E-002     2.5733433878156328E-035
   1.1700000000000002E-002     8.6307412549012852E-035
   1.2000000000000004E-002    -1.2362528987514068E-033
   1.2300000000000002E-002    -2.8465341409390495E-033
   1.2600000000000000E-002     9.2262482725983899E-032
   1.2900000000000002E-002    -4.5115242787666633E-031
   1.3200000000000000E-002    -1.4163795684187807E-030
   1.3500000000000002E-002     2.4595177128130570E-029
   1.3800000000000003E-002    -7.2745708265722119E-029
   1.4100000000000001E-002    -3.6153920435314195E-028
   1.4400000000000000E-002     3.4156910675951945E-027
   1.4700000000000001E-002    -7.2286606530026548E-027
   1.4999999999999999E-002    -3.3769295704228637E-026
   1.5300000000000001E-002     2.6994065828422406E-025
   1.5600000000000003E-002    -6.5830388306506201E-025
   1.5899999999999997E-002    -8.4059233262552955E-025
   1.6199999999999999E-002     1.1831776040889848E-023
   1.6500000000000001E-002    -4.2209646719976717E-023
   1.6800000000000002E-002     6.3416957311049579E-023
   1.7100000000000004E-002     1.1684118003283666E-022
   1.7400000000000006E-002    -1.0551675231007501E-021
   1.7700000000000000E-002     3.7341493556250889E-021
   1.8000000000000002E-002    -9.0063732056329093E-021
   1.8300000000000004E-002     1.5963545384159207E-020
   1.8600000000000005E-002    -1.8384483317251710E-020
   1.8900000000000000E-002    -1.1068135422705536E-020
   1.9200000000000002E-002     2.1837754287037755E-019
   1.9500000000000003E-002    -1.3704140056567884E-018
   1.9799999999999998E-002     7.0106030183900629E-018
   2.0100000000000000E-002    -3.1751142524390755E-017
   2.0400000000000001E-002     1.3180192648279496E-016
   2.0700000000000003E-002    -5.1774878313007268E-016
   2.0999999999999998E-002     1.9805000382597726E-015
   2.1299999999999999E-002    -7.5129882716007228E-015
   2.1600000000000001E-002     2.8286890584321329E-014
   2.1900000000000003E-002    -1.0369776462211891E-013
   2.2200000000000004E-002     3.5652847319399272E-013
   2.2500000000000006E-002    -1.0840795492197963E-012
   2.2800000000000001E-002     2.6082840314661793E-012
   2.3100000000000002E-002    -3.3015634497146618E-012
   2.3400000000000004E-002    -9.1781773153831736E-012
   2.3699999999999999E-002     7.9340395364724259E-011
   2.4000000000000000E-002    -2.9102897869393018E-010
   2.4300000000000002E-002     5.9678378905303475E-010
   2.4599999999999997E-002    -1.5635889805132308E-010
   2.4900000000000005E-002    -3.3313158898096162E-009
   2.5200000000000000E-002     1.0467738675856708E-008
   2.5499999999999995E-002    -8.1527264939040833E-009
   2.5800000000000003E-002    -3.2995625787179961E-008
   2.6099999999999998E-002     8.9861785568245978E-008
   2.6400000000000007E-002     1.2481143230047564E-008
   2.6700000000000002E-002    -3.3176823421854351E-007
   2.6999999999999996E-002     1.2532689197541913E-007
   2.7300000000000005E-002     9.6370706614834489E-007
   2.7600000000000000E-002    -1.9636426884517277E-007
   2.7900000000000008E-002    -2.8436286356736673E-006
   2.8200000000000003E-002    -1.4467043456534157E-006
   2.8499999999999998E-002     9.3642711362917908E-006
   2.8800000000000006E-002     2.8604232284124009E-005
   2.9100000000000001E-002     5.1743074436672032E-005
   2.9400000000000003E-002     7.9442354035563767E-005
   2.9700000000000004E-002     1.1993100633844733E-004
   3.0000000000000006E-002     1.8649760750122368E-004
   3.0300000000000001E-002     2.9528807499445975E-004
   3.0600000000000002E-002     4.6373801887966692E-004
   3.0900000000000004E-002     7.1466434746980667E-004
   3.1199999999999999E-002     1.0824815835803747E-003
   3.1500000000000007E-002     1.6162481624633074E-003
   3.1800000000000002E-002     2.3833143059164286E-003
   3.2099999999999997E-002     3.4718830138444901E-003
   3.2400000000000005E-002     4.9924794584512711E-003
   3.2700000000000000E-002     7.0804757997393608E-003
   3.3000000000000002E-002     9.8985712975263596E-003
   3.3300000000000003E-002     1.3639517128467560E-002
   3.3599999999999998E-002     1.8521346151828766E-002
   3.3900000000000000E-002     2.4774793535470963E-002
   3.4200000000000001E-002     3.2630600035190582E-002
   3.4500000000000003E-002     4.2300585657358170E-002
   3.4799999999999998E-002     5.3947888314723969E-002
   3.5099999999999999E-002     6.7644000053405762E-002
   3.5400000000000001E-002     8.3322055637836456E-002
   3.5699999999999996E-002    0.10072781890630722     
   3.6000000000000004E-002    0.11936773359775543     
   3.6299999999999999E-002    0.13845381140708923     
   3.6600000000000008E-002    0.15686571598052979     
   3.6900000000000002E-002    0.17313191294670105     
   3.7199999999999997E-002    0.18543481826782227     
   3.7500000000000006E-002    0.19165050983428955     
   3.7800000000000000E-002    0.18942557275295258     
   3.8100000000000009E-002    0.17632213234901428     
   3.8400000000000004E-002    0.15000912547111511     
   3.8699999999999998E-002    0.10846984386444092     
   3.9000000000000007E-002     5.0247792154550552E-002
   3.9300000000000002E-002    -2.5267442688345909E-002
   3.9600000000000003E-002   -0.11762337386608124     
   3.9900000000000005E-002   -0.22506211698055267     
   4.0200000000000000E-002   -0.34441265463829041     
   4.0500000000000001E-002   -0.47106239199638367     
   4.0800000000000003E-002   -0.59902131557464600     
   4.1100000000000005E-002   -0.72118419408798218     
   4.1399999999999999E-002   -0.82965928316116333     
   4.1700000000000008E-002   -0.91626954078674316     
   4.2000000000000003E-002   -0.97312802076339722     
   4.2299999999999997E-002   -0.99324095249176025     
   4.2600000000000006E-002   -0.97115761041641235     
   4.2900000000000001E-002   -0.90350800752639771     
   4.3200000000000002E-002   -0.78944635391235352     
   4.3500000000000004E-002   -0.63091987371444702     
   4.3799999999999999E-002   -0.43272057175636292     
   4.4100000000000000E-002   -0.20240865647792816     
   4.4400000000000002E-002     5.0194285809993744E-002
   4.4700000000000004E-002    0.31347286701202393     
   4.4999999999999998E-002    0.57473790645599365     
   4.5300000000000000E-002    0.82116955518722534     
   4.5600000000000002E-002     1.0404777526855469     
   4.5899999999999996E-002     1.2218842506408691     
   4.6200000000000005E-002     1.3567346334457397     
   4.6500000000000000E-002     1.4389958381652832     
   4.6799999999999994E-002     1.4657065868377686     
   4.7100000000000003E-002     1.4369490146636963     
   4.7399999999999998E-002     1.3558510541915894     
   4.7700000000000006E-002     1.2281950712203979     
   4.8000000000000001E-002     1.0619267225265503     
   4.8300000000000010E-002    0.86660659313201904     
   4.8600000000000004E-002    0.65267038345336914     
   4.8899999999999999E-002    0.43076688051223755     
   4.9200000000000008E-002    0.21114295721054077     
   4.9500000000000002E-002     2.9897056519985199E-003
   4.9800000000000011E-002   -0.18592312932014465     
   5.0100000000000006E-002   -0.34955081343650818     
   5.0400000000000000E-002   -0.48381677269935608     
   5.0700000000000009E-002   -0.58652359247207642     
   5.1000000000000004E-002   -0.65733361244201660     
   5.1299999999999998E-002   -0.69749575853347778     
   5.1600000000000007E-002   -0.70960444211959839     
   5.1900000000000002E-002   -0.69726979732513428     
   5.2200000000000010E-002   -0.66471630334854126     
   5.2500000000000005E-002   -0.61651694774627686     
   5.2800000000000000E-002   -0.55726188421249390     
   5.3099999999999994E-002   -0.49131289124488831     
   5.3400000000000003E-002   -0.42256373167037964     
   5.3699999999999998E-002   -0.35429546236991882     
   5.4000000000000006E-002   -0.28909069299697876     
   5.4300000000000001E-002   -0.22878670692443848     
   5.4599999999999996E-002   -0.17451421916484833     
   5.4900000000000004E-002   -0.12670882046222687     
   5.5199999999999999E-002    -8.5296429693698883E-002
   5.5499999999999994E-002    -4.9760684370994568E-002
   5.5800000000000002E-002    -1.9320385530591011E-002
   5.6099999999999997E-002     6.8077999167144299E-003
   5.6400000000000006E-002     2.9316648840904236E-002
   5.6700000000000000E-002     4.8509053885936737E-002
   5.6999999999999995E-002     6.4218930900096893E-002
   5.7300000000000004E-002     7.5724393129348755E-002
   5.7599999999999998E-002     8.1642381846904755E-002
   5.7900000000000007E-002     8.0133460462093353E-002
   5.8200000000000002E-002     6.8911917507648468E-002
   5.8499999999999996E-002     4.5630194246768951E-002
   5.8800000000000005E-002     8.2537094131112099E-003
   5.9100000000000000E-002    -4.4656895101070404E-002
   5.9400000000000008E-002   -0.11334522068500519     
   5.9700000000000003E-002   -0.19664040207862854     
   6.0000000000000012E-002   -0.29159510135650635     
   6.0300000000000006E-002   -0.39335355162620544     
   6.0600000000000001E-002   -0.49531614780426025     
   6.0900000000000010E-002   -0.58927273750305176     
   6.1200000000000004E-002   -0.66607099771499634     
   6.1500000000000013E-002   -0.71626812219619751     
   6.1800000000000008E-002   -0.73097008466720581     
   6.2100000000000002E-002   -0.70281058549880981     
   6.2399999999999997E-002   -0.62675923109054565     
   6.2700000000000006E-002   -0.50090527534484863     
   6.3000000000000000E-002   -0.32699906826019287     
   6.3300000000000009E-002   -0.11060716956853867     
   6.3600000000000004E-002    0.13895441591739655     
   6.3899999999999998E-002    0.40916150808334351     
   6.4199999999999993E-002    0.68511140346527100     
   6.4500000000000002E-002    0.95052599906921387     
   6.4800000000000010E-002     1.1891086101531982     
   6.5100000000000005E-002     1.3858187198638916     
   6.5400000000000000E-002     1.5280617475509644     
   6.5700000000000008E-002     1.6067725419998169     
   6.5999999999999989E-002     1.6170414686203003     
   6.6299999999999998E-002     1.5585429668426514     
   6.6600000000000006E-002     1.4355065822601318     
   6.6900000000000001E-002     1.2561912536621094     
   6.7199999999999996E-002     1.0322616100311279     
   6.7500000000000004E-002    0.77761816978454590     
   6.7800000000000013E-002    0.50724524259567261     
   6.8099999999999994E-002    0.23605003952980042     
   6.8400000000000002E-002    -2.2363614290952682E-002
   6.8700000000000011E-002   -0.25653532147407532     
   6.8999999999999992E-002   -0.45787280797958374     
   6.9300000000000000E-002   -0.62107765674591064     
   6.9600000000000009E-002   -0.74406492710113525     
   6.9900000000000004E-002   -0.82779091596603394     
   7.0199999999999999E-002   -0.87571346759796143     
   7.0500000000000007E-002   -0.89301282167434692     
   7.0800000000000016E-002   -0.88596481084823608     
   7.1099999999999997E-002   -0.86100697517395020     
   7.1400000000000005E-002   -0.82412117719650269     
   7.1700000000000000E-002   -0.78038054704666138     
   7.1999999999999995E-002   -0.73350459337234497     
   7.2300000000000003E-002   -0.68589043617248535     
   7.2600000000000012E-002   -0.63868921995162964     
   7.2900000000000006E-002   -0.59202176332473755     
   7.3200000000000001E-002   -0.54552334547042847     
   7.3499999999999996E-002   -0.49855157732963562     
   7.3800000000000004E-002   -0.45072257518768311     
   7.4099999999999999E-002   -0.40218806266784668     
   7.4400000000000008E-002   -0.35362502932548523     
   7.4700000000000003E-002   -0.30651804804801941     
   7.5000000000000011E-002   -0.26268211007118225     
   7.5299999999999992E-002   -0.22409127652645111     
   7.5600000000000001E-002   -0.19261331856250763     
   7.5900000000000009E-002   -0.16934756934642792     
   7.6200000000000004E-002   -0.15452195703983307     
   7.6499999999999999E-002   -0.14714977145195007     
   7.6800000000000007E-002   -0.14483278989791870     
   7.7099999999999988E-002   -0.14408342540264130     
   7.7399999999999997E-002   -0.14024972915649414     
   7.7700000000000005E-002   -0.12809397280216217     
   7.8000000000000014E-002   -0.10236164927482605     
   7.8299999999999995E-002    -5.8102082461118698E-002
   7.8600000000000003E-002     8.4126070141792297E-003
   7.8900000000000012E-002     9.9386870861053467E-002
   7.9199999999999993E-002    0.21500775218009949     
   7.9500000000000001E-002    0.35298836231231689     
   7.9800000000000010E-002    0.50882083177566528     
   8.0100000000000018E-002    0.67556822299957275     
   8.0399999999999999E-002    0.84435528516769409     
   8.0700000000000008E-002     1.0049321651458740     
   8.1000000000000003E-002     1.1460835933685303     
   8.1299999999999997E-002     1.2568062543869019     
   8.1600000000000006E-002     1.3269044160842896     
   8.1900000000000014E-002     1.3478671312332153     
   8.2199999999999995E-002     1.3137998580932617     
   8.2500000000000004E-002     1.2217997312545776     
   8.2799999999999999E-002     1.0726857185363770     
   8.3100000000000007E-002    0.87093776464462280     
   8.3400000000000002E-002    0.62460929155349731     
   8.3700000000000011E-002    0.34508243203163147     
   8.4000000000000005E-002     4.6153366565704346E-002
   8.4300000000000000E-002   -0.25666758418083191     
   8.4599999999999995E-002   -0.54732477664947510     
   8.4900000000000003E-002   -0.81035405397415161     
   8.5199999999999998E-002    -1.0318875312805176     
   8.5500000000000007E-002    -1.2008012533187866     
   8.5800000000000001E-002    -1.3092802762985229     
   8.6100000000000010E-002    -1.3535928726196289     
   8.6399999999999991E-002    -1.3340433835983276     
   8.6699999999999999E-002    -1.2549555301666260     
   8.7000000000000008E-002    -1.1243081092834473     
   8.7300000000000003E-002   -0.95275610685348511     
   8.7599999999999997E-002   -0.75311398506164551     
   8.7900000000000006E-002   -0.53912413120269775     
   8.8200000000000014E-002   -0.32457432150840759     
   8.8499999999999995E-002   -0.12250784784555435     
   8.8800000000000004E-002     5.5850520730018616E-002
   8.9100000000000013E-002    0.20137497782707214     
   8.9399999999999993E-002    0.30765113234519958     
   8.9700000000000002E-002    0.37099844217300415     
   9.0000000000000011E-002    0.39036357402801514     
   9.0299999999999991E-002    0.36744683980941772     
   9.0600000000000000E-002    0.30602169036865234     
   9.0900000000000009E-002    0.21192832291126251     
   9.1200000000000017E-002     9.2530369758605957E-002
   9.1499999999999998E-002    -4.3734636157751083E-002
   9.1800000000000007E-002   -0.18741157650947571     
   9.2100000000000001E-002   -0.32874837517738342     
   9.2399999999999996E-002   -0.45767959952354431     
   9.2700000000000005E-002   -0.56421542167663574     
   9.3000000000000013E-002   -0.63901263475418091     
   9.3300000000000008E-002   -0.67338824272155762     
   9.3600000000000003E-002   -0.66015571355819702     
   9.3899999999999997E-002   -0.59392821788787842     
   9.4200000000000006E-002   -0.47154390811920166     
   9.4500000000000001E-002   -0.29298511147499084     
   9.4800000000000009E-002    -6.1311982572078705E-002
   9.5100000000000004E-002    0.21666792035102844     
   9.5399999999999999E-002    0.53037679195404053     
   9.5699999999999993E-002    0.86593270301818848     
   9.6000000000000002E-002     1.2062689065933228     
   9.6300000000000011E-002     1.5323081016540527     
   9.6600000000000005E-002     1.8239597082138062     
   9.6900000000000000E-002     2.0613033771514893     
   9.7200000000000009E-002     2.2265126705169678     
   9.7499999999999989E-002     2.3049972057342529     
   9.7799999999999998E-002     2.2870433330535889     
   9.8100000000000007E-002     2.1689350605010986     
   9.8400000000000015E-002     1.9532330036163330     
   9.8699999999999996E-002     1.6494554281234741     
   9.9000000000000005E-002     1.2733043432235718     
   9.9300000000000013E-002    0.84566456079483032     
   9.9599999999999994E-002    0.39152097702026367     
   9.9900000000000003E-002    -6.2722101807594299E-002
  0.10020000000000001        -0.49063718318939209     
  0.10049999999999999        -0.86849200725555420     
  0.10080000000000000         -1.1773988008499146     
  0.10110000000000001         -1.4044916629791260     
  0.10140000000000000         -1.5447800159454346     
  0.10170000000000000         -1.6009879112243652     
  0.10200000000000001         -1.5835170745849609     
  0.10230000000000002         -1.5096242427825928     
  0.10260000000000000         -1.4010633230209351     
  0.10290000000000001         -1.2824175357818604     
  0.10320000000000000         -1.1781431436538696     
  0.10350000000000001         -1.1098138093948364     
  0.10380000000000000         -1.0940668582916260     
  0.10410000000000001         -1.1399706602096558     
  0.10440000000000001         -1.2482881546020508     
  0.10470000000000000         -1.4106504917144775     
  0.10500000000000000         -1.6097333431243896     
  0.10530000000000000         -1.8211125135421753     
  0.10560000000000000         -2.0148658752441406     
  0.10590000000000001         -2.1585495471954346     
  0.10620000000000000         -2.2203078269958496     
  0.10650000000000001         -2.1717851161956787     
  0.10679999999999999         -1.9914834499359131     
  0.10710000000000000         -1.6668945550918579     
  0.10740000000000001         -1.1965574026107788     
  0.10770000000000000        -0.59092557430267334     
  0.10800000000000000         0.12795443832874298     
  0.10830000000000001         0.92697256803512573     
  0.10859999999999999          1.7645957469940186     
  0.10890000000000000          2.5930860042572021     
  0.10920000000000001          3.3621425628662109     
  0.10950000000000001          4.0225858688354492     
  0.10979999999999999          4.5295395851135254     
  0.11009999999999999          4.8465309143066406     
  0.11040000000000001          4.9477562904357910     
  0.11070000000000001          4.8204278945922852     
  0.11100000000000000          4.4659552574157715     
  0.11130000000000000          3.8996572494506836     
  0.11160000000000002          3.1503190994262695     
  0.11190000000000001          2.2576637268066406     
  0.11220000000000001          1.2696083784103394     
  0.11250000000000000         0.23918966948986053     
  0.11280000000000000        -0.77975887060165405     
  0.11309999999999999         -1.7357969284057617     
  0.11340000000000001         -2.5834383964538574     
  0.11369999999999998         -3.2860288619995117     
  0.11400000000000000         -3.8172383308410645     
  0.11430000000000000         -4.1624774932861328     
  0.11460000000000002         -4.3184809684753418     
  0.11489999999999999         -4.2926278114318848     
  0.11520000000000001         -4.1012873649597168     
  0.11550000000000001         -3.7674868106842041     
  0.11580000000000000         -3.3189001083374023     
  0.11609999999999999         -2.7852723598480225     
  0.11640000000000002         -2.1963551044464111     
  0.11670000000000001         -1.5805801153182983     
  0.11700000000000001        -0.96359097957611084     
  0.11730000000000000        -0.36771023273468018     
  0.11760000000000000         0.18812792003154755     
  0.11789999999999999         0.68862193822860718     
  0.11820000000000001          1.1212810277938843     
  0.11850000000000001          1.4763983488082886     
  0.11880000000000000          1.7466652393341064     
  0.11910000000000000          1.9269177913665771     
  0.11940000000000002          2.0144774913787842     
  0.11970000000000001          2.0090873241424561     
  0.12000000000000001          1.9134645462036133     
  0.12030000000000000          1.7335803508758545     
  0.12060000000000000          1.4787821769714355     
  0.12089999999999999          1.1621396541595459     
  0.12119999999999999         0.80017828941345215     
  0.12150000000000001         0.41245391964912415     
  0.12180000000000001          2.0891610532999039E-002
  0.12210000000000000        -0.35146576166152954     
  0.12239999999999999        -0.68144410848617554     
  0.12270000000000002        -0.94737517833709717     
  0.12300000000000001         -1.1304495334625244     
  0.12330000000000001         -1.2158776521682739     
  0.12360000000000000         -1.1943491697311401     
  0.12390000000000000         -1.0625119209289551     
  0.12419999999999999        -0.82371181249618530     
  0.12450000000000001        -0.48809656500816345     
  0.12480000000000001         -7.1884386241436005E-002
  0.12509999999999999         0.40313628315925598     
  0.12540000000000001         0.91101807355880737     
  0.12570000000000003          1.4230116605758667     
  0.12600000000000000          1.9090240001678467     
  0.12630000000000002          2.3397214412689209     
  0.12659999999999999          2.6878478527069092     
  0.12690000000000001          2.9298062324523926     
  0.12719999999999998          3.0470895767211914     
  0.12750000000000000          3.0267963409423828     
  0.12780000000000002          2.8627660274505615     
  0.12809999999999999          2.5555849075317383     
  0.12840000000000001          2.1127219200134277     
  0.12869999999999998          1.5485582351684570     
  0.12900000000000000         0.88368797302246094     
  0.12930000000000003         0.14464829862117767     
  0.12959999999999999        -0.63722860813140869     
  0.12990000000000002         -1.4265402555465698     
  0.13019999999999998         -2.1850197315216064     
  0.13050000000000000         -2.8732767105102539     
  0.13080000000000003         -3.4524903297424316     
  0.13109999999999999         -3.8864817619323730     
  0.13140000000000002         -4.1440153121948242     
  0.13169999999999998         -4.2011556625366211     
  0.13200000000000001         -4.0436544418334961     
  0.13229999999999997         -3.6686842441558838     
  0.13260000000000000         -3.0864121913909912     
  0.13290000000000002         -2.3205194473266602     
  0.13319999999999999         -1.4079309701919556     
  0.13350000000000001        -0.39746668934822083     
  0.13380000000000003         0.65295064449310303     
  0.13410000000000000          1.6794631481170654     
  0.13440000000000002          2.6167163848876953     
  0.13469999999999999          3.4027006626129150     
  0.13500000000000001          3.9832406044006348     
  0.13529999999999998          4.3167433738708496     
  0.13560000000000000          4.3776426315307617     
  0.13590000000000002          4.1588559150695801     
  0.13619999999999999          3.6731493473052979     
  0.13650000000000001          2.9521927833557129     
  0.13680000000000003          2.0448503494262695     
  0.13710000000000000          1.0136710405349731     
  0.13740000000000002         -6.9946363568305969E-002
  0.13769999999999999         -1.1307586431503296     
  0.13800000000000001         -2.0956399440765381     
  0.13829999999999998         -2.8988904953002930     
  0.13860000000000000         -3.4870696067810059     
  0.13890000000000002         -3.8228845596313477     
  0.13919999999999999         -3.8875701427459717     
  0.13950000000000001         -3.6822879314422607     
  0.13979999999999998         -3.2274262905120850     
  0.14010000000000000         -2.5608580112457275     
  0.14040000000000002         -1.7351224422454834     
  0.14069999999999999        -0.81309878826141357     
  0.14100000000000001         0.13656450808048248     
  0.14130000000000004          1.0444302558898926     
  0.14160000000000000          1.8451442718505859     
  0.14189999999999997          2.4821314811706543     
  0.14219999999999999          2.9113082885742188     
  0.14250000000000002          3.1040232181549072     
  0.14279999999999998          3.0491259098052979     
  0.14310000000000000          2.7532787322998047     
  0.14339999999999997          2.2403304576873779     
  0.14369999999999999          1.5494549274444580     
  0.14400000000000002         0.73216539621353149     
  0.14429999999999998        -0.15158133208751678     
  0.14460000000000001         -1.0381413698196411     
  0.14490000000000003         -1.8645969629287720     
  0.14520000000000000         -2.5739314556121826     
  0.14550000000000002         -3.1190896034240723     
  0.14579999999999999         -3.4665236473083496     
  0.14610000000000001         -3.5988092422485352     
  0.14640000000000003         -3.5153748989105225     
  0.14670000000000000         -3.2326169013977051     
  0.14699999999999996         -2.7818956375122070     
  0.14729999999999999         -2.2064728736877441     
  0.14760000000000001         -1.5577892065048218     
  0.14789999999999998        -0.89021813869476318     
  0.14820000000000000        -0.25652471184730530     