  -1.4999999999999999E-002     0.0000000000000000     
  -1.4700000000000000E-002     0.0000000000000000     
  -1.4400000000000000E-002     0.0000000000000000     
  -1.4100000000000000E-002     0.0000000000000000     
  -1.3800000000000000E-002     0.0000000000000000     
  -1.3500000000000000E-002     0.0000000000000000     
  -1.3200000000000000E-002     0.0000000000000000     
  -1.2899999999999998E-002     0.0000000000000000     
  -1.2600000000000000E-002     0.0000000000000000     
  -1.2299999999999998E-002     0.0000000000000000     
  -1.2000000000000000E-002     0.0000000000000000     
  -1.1699999999999999E-002     0.0000000000000000     
  -1.1399999999999999E-002     0.0000000000000000     
  -1.1099999999999999E-002     0.0000000000000000     
  -1.0799999999999999E-002     2.5417123730795657E-036
  -1.0499999999999999E-002    -2.8436631796581584E-035
  -1.0199999999999999E-002    -6.9457642343810980E-035
  -9.8999999999999991E-003     4.2399162879198331E-033
  -9.5999999999999992E-003    -8.3352223791807452E-032
  -9.2999999999999992E-003     1.3107017799239245E-030
  -8.9999999999999993E-003    -1.3646179630221298E-029
  -8.6999999999999994E-003     1.0519085096265523E-028
  -8.3999999999999995E-003    -6.3982763129946653E-028
  -8.0999999999999996E-003     3.0016138184360055E-027
  -7.7999999999999988E-003    -1.0323521451184079E-026
  -7.4999999999999997E-003     2.5652046411996688E-026
  -7.1999999999999998E-003    -5.1528677825924305E-026
  -6.8999999999999981E-003     1.0382273561918765E-025
  -6.5999999999999982E-003    -1.4210502136201210E-025
  -6.3000000000000000E-003    -1.5857393489484308E-025
  -6.0000000000000001E-003    -9.7660457446011553E-025
  -5.6999999999999985E-003     2.5530688025685584E-023
  -5.3999999999999986E-003    -1.7688491762606326E-022
  -5.1000000000000004E-003     7.7926320692953502E-022
  -4.7999999999999987E-003    -2.6642142554044056E-021
  -4.5000000000000005E-003     7.7786174567540068E-021
  -4.1999999999999989E-003    -2.0185302362806534E-020
  -3.8999999999999990E-003     4.6443787401197272E-020
  -3.5999999999999990E-003    -9.2323877064333797E-020
  -3.2999999999999991E-003     1.5227410215184419E-019
  -2.9999999999999992E-003    -1.9095244720936434E-019
  -2.6999999999999993E-003     1.1725534629592640E-019
  -2.3999999999999994E-003     2.5489741181822887E-019
  -2.0999999999999977E-003    -1.2515905446393117E-018
  -1.7999999999999995E-003     3.2665929008438662E-018
  -1.4999999999999979E-003    -6.1658179344503754E-018
  -1.1999999999999997E-003     7.5270358630446821E-018
  -8.9999999999999976E-004     2.8357974446214025E-019
  -5.9999999999999810E-004    -3.1408477992556988E-017
  -2.9999999999999992E-004     9.8571024016995846E-017
   0.0000000000000000         -1.8667040470021339E-016
   3.0000000000000165E-004     2.1156974551303140E-016
   5.9999999999999984E-004    -1.8105461596458678E-018
   9.0000000000000149E-004    -6.2940831906671958E-016
   1.2000000000000031E-003     1.7073684410661111E-015
   1.5000000000000013E-003    -3.0207907522101932E-015
   1.8000000000000030E-003     4.6599962285492642E-015
   2.1000000000000012E-003    -8.4319275398133352E-015
   2.3999999999999994E-003     1.7941992496209834E-014
   2.7000000000000010E-003    -2.8102787973235607E-014
   2.9999999999999992E-003    -1.4850320544665743E-014
   3.3000000000000008E-003     2.9170372714548698E-013
   3.6000000000000025E-003    -1.1353686003509611E-012
   3.9000000000000007E-003     2.5988187296599463E-012
   4.2000000000000023E-003    -2.6124887843315125E-012
   4.5000000000000005E-003    -7.2712300590305201E-012
   4.7999999999999987E-003     4.5235495904627498E-011
   5.1000000000000004E-003    -1.1819763223730462E-010
   5.4000000000000020E-003     1.0952015683241001E-010
   5.7000000000000037E-003     4.5114073587981807E-010
   5.9999999999999984E-003    -2.1823036711055011E-009
   6.3000000000000000E-003     3.3447347114190507E-009
   6.6000000000000017E-003     5.0982178478875539E-009
   6.9000000000000034E-003    -3.2263994143022501E-008
   7.2000000000000015E-003     4.0422406755169504E-008
   7.5000000000000032E-003     8.4048558335325652E-008
   7.8000000000000014E-003    -3.0206126666598720E-007
   8.0999999999999996E-003     8.6368601159847458E-009
   8.4000000000000012E-003     9.6461769771849504E-007
   8.7000000000000029E-003    -4.6600973746535601E-007
   9.0000000000000011E-003    -2.2878662093717139E-006
   9.2999999999999992E-003     6.1982990473552491E-007
   9.6000000000000009E-003     7.8456650953739882E-006
   9.8999999999999991E-003     2.3929589588078670E-005
   1.0200000000000001E-002     6.7883491283282638E-005
   1.0500000000000002E-002     1.5869559138081968E-004
   1.0800000000000004E-002     2.9538260423578322E-004
   1.1099999999999999E-002     4.6797445975244045E-004
   1.1400000000000000E-002     6.9606211036443710E-004
   1.1700000000000002E-002     1.0395591380074620E-003
   1.2000000000000004E-002     1.5839030966162682E-003
   1.2300000000000002E-002     2.4339952506124973E-003
   1.2600000000000000E-002     3.7066494114696980E-003
   1.2900000000000002E-002     5.5474294349551201E-003
   1.3200000000000000E-002     8.1698736175894737E-003
   1.3500000000000002E-002     1.1862876825034618E-002
   1.3800000000000003E-002     1.6989590600132942E-002
   1.4100000000000001E-002     2.3999897763133049E-002
   1.4400000000000000E-002     3.3432148396968842E-002
   1.4700000000000001E-002     4.5893408358097076E-002
   1.4999999999999999E-002     6.2031883746385574E-002
   1.5300000000000001E-002     8.2520507276058197E-002
   1.5600000000000003E-002    0.10799832642078400     
   1.5899999999999997E-002    0.13895915448665619     
   1.6199999999999999E-002    0.17564894258975983     
   1.6500000000000001E-002    0.21793800592422485     
   1.6800000000000002E-002    0.26512503623962402     
   1.7100000000000004E-002    0.31573471426963806     
   1.7400000000000006E-002    0.36733350157737732     
   1.7700000000000000E-002    0.41639637947082520     
   1.8000000000000002E-002    0.45821130275726318     
   1.8300000000000004E-002    0.48683550953865051     
   1.8600000000000005E-002    0.49519750475883484     
   1.8900000000000000E-002    0.47532346844673157     
   1.9200000000000002E-002    0.41883468627929688     
   1.9500000000000003E-002    0.31750148534774780     
   1.9799999999999998E-002    0.16405653953552246     
   2.0100000000000000E-002    -4.6817719936370850E-002
   2.0400000000000001E-002   -0.31750366091728210     
   2.0700000000000003E-002   -0.64641356468200684     
   2.0999999999999998E-002    -1.0271199941635132     
   2.1299999999999999E-002    -1.4477946758270264     
   2.1600000000000001E-002    -1.8908487558364868     
   2.1900000000000003E-002    -2.3331725597381592     
   2.2200000000000004E-002    -2.7470054626464844     
   2.2500000000000006E-002    -3.1013596057891846     
   2.2800000000000001E-002    -3.3639428615570068     
   2.3100000000000002E-002    -3.5034351348876953     
   2.3400000000000004E-002    -3.4921901226043701     
   2.3699999999999999E-002    -3.3089358806610107     
   2.4000000000000000E-002    -2.9413516521453857     
   2.4300000000000002E-002    -2.3879470825195312     
   2.4599999999999997E-002    -1.6594374179840088     
   2.4900000000000005E-002   -0.77892935276031494     
   2.5200000000000000E-002    0.21880581974983215     
   2.5499999999999995E-002     1.2892209291458130     
   2.5800000000000003E-002     2.3806307315826416     
   2.6099999999999998E-002     3.4374477863311768     
   2.6400000000000007E-002     4.4043717384338379     
   2.6700000000000002E-002     5.2303996086120605     
   2.6999999999999996E-002     5.8721246719360352     
   2.7300000000000005E-002     6.2975244522094727     
   2.7600000000000000E-002     6.4873700141906738     
   2.7900000000000008E-002     6.4368176460266113     
   2.8200000000000003E-002     6.1552286148071289     
   2.8499999999999998E-002     5.6645193099975586     
   2.8800000000000006E-002     4.9974870681762695     
   2.9100000000000001E-002     4.1942234039306641     
   2.9400000000000003E-002     3.2989342212677002     
   2.9700000000000004E-002     2.3562664985656738     
   3.0000000000000006E-002     1.4078589677810669     
   3.0300000000000001E-002    0.48940011858940125     
   3.0600000000000002E-002   -0.37143397331237793     
   3.0900000000000004E-002    -1.1561675071716309     
   3.1199999999999999E-002    -1.8559023141860962     
   3.1500000000000007E-002    -2.4702296257019043     
   3.1800000000000002E-002    -3.0056331157684326     
   3.2099999999999997E-002    -3.4733498096466064     
   3.2400000000000005E-002    -3.8858060836791992     
   3.2700000000000000E-002    -4.2548837661743164     
   3.3000000000000002E-002    -4.5879187583923340     
   3.3300000000000003E-002    -4.8863348960876465     
   3.3599999999999998E-002    -5.1443858146667480     
   3.3900000000000000E-002    -5.3474130630493164     
   3.4200000000000001E-002    -5.4744324684143066     
   3.4500000000000003E-002    -5.4982361793518066     
   3.4799999999999998E-002    -5.3889417648315430     
   3.5099999999999999E-002    -5.1181869506835938     
   3.5400000000000001E-002    -4.6613516807556152     
   3.5699999999999996E-002    -4.0035004615783691     
   3.6000000000000004E-002    -3.1413884162902832     
   3.6299999999999999E-002    -2.0862841606140137     
   3.6600000000000008E-002   -0.86668771505355835     
   3.6900000000000002E-002    0.47403264045715332     
   3.7199999999999997E-002     1.8769421577453613     
   3.7500000000000006E-002     3.2721943855285645     
   3.7800000000000000E-002     4.5838217735290527     
   3.8100000000000009E-002     5.7334713935852051     
   3.8400000000000004E-002     6.6487741470336914     
   3.8699999999999998E-002     7.2671327590942383     
   3.9000000000000007E-002     7.5420522689819336     
   3.9300000000000002E-002     7.4477944374084473     
   3.9600000000000003E-002     6.9805188179016113     
   3.9900000000000005E-002     6.1612744331359863     
   4.0200000000000000E-002     5.0333051681518555     
   4.0500000000000001E-002     3.6603519916534424     
   4.0800000000000003E-002     2.1223897933959961     
   4.1100000000000005E-002    0.50897836685180664     
   4.1399999999999999E-002    -1.0854333639144897     
   4.1700000000000008E-002    -2.5696067810058594     
   4.2000000000000003E-002    -3.8613862991333008     
   4.2299999999999997E-002    -4.8930754661560059     
   4.2600000000000006E-002    -5.6171045303344727     
   4.2900000000000001E-002    -6.0076189041137695     
   4.3200000000000002E-002    -6.0631198883056641     
   4.3500000000000004E-002    -5.8054614067077637     
   4.3799999999999999E-002    -5.2774281501770020     
   4.4100000000000000E-002    -4.5395722389221191     
   4.4400000000000002E-002    -3.6642382144927979     
   4.4700000000000004E-002    -2.7303664684295654     
   4.4999999999999998E-002    -1.8165544271469116     
   4.5300000000000000E-002   -0.99481678009033203     
   4.5600000000000002E-002   -0.32535314559936523     
   4.5899999999999996E-002    0.14868175983428955     
   4.6200000000000005E-002    0.40369680523872375     
   4.6500000000000000E-002    0.43778383731842041     
   4.6799999999999994E-002    0.26957172155380249     
   4.7100000000000003E-002    -6.3760556280612946E-002
   4.7399999999999998E-002   -0.51009285449981689     
   4.7700000000000006E-002    -1.0084718465805054     
   4.8000000000000001E-002    -1.4934253692626953     
   4.8300000000000010E-002    -1.9027901887893677     
   4.8600000000000004E-002    -2.1823761463165283     
   4.8899999999999999E-002    -2.2905066013336182     
   4.9200000000000008E-002    -2.2027013301849365     
   4.9500000000000002E-002    -1.9110970497131348     
   4.9800000000000011E-002    -1.4263639450073242     
   5.0100000000000006E-002   -0.77436864376068115     
   5.0400000000000000E-002     8.0650374293327332E-003
   5.0700000000000009E-002    0.87544012069702148     
   5.1000000000000004E-002     1.7821189165115356     
   5.1299999999999998E-002     2.6846718788146973     
   5.1600000000000007E-002     3.5466096401214600     
   5.1900000000000002E-002     4.3433713912963867     
   5.2200000000000010E-002     5.0597434043884277     
   5.2500000000000005E-002     5.6932291984558105     
   5.2800000000000000E-002     6.2494554519653320     
   5.3099999999999994E-002     6.7386660575866699     
   5.3400000000000003E-002     7.1742610931396484     
   5.3699999999999998E-002     7.5639820098876953     
   5.4000000000000006E-002     7.9101810455322266     
   5.4300000000000001E-002     8.2053461074829102     
   5.4599999999999996E-002     8.4294652938842773     
   5.4900000000000004E-002     8.5541286468505859     
   5.5199999999999999E-002     8.5404777526855469     
   5.5499999999999994E-002     8.3460807800292969     
   5.5800000000000002E-002     7.9289226531982422     
   5.6099999999999997E-002     7.2500243186950684     
   5.6400000000000006E-002     6.2827334403991699     
   5.6700000000000000E-002     5.0131502151489258     
   5.6999999999999995E-002     3.4444673061370850     
   5.7300000000000004E-002     1.5995461940765381     
   5.7599999999999998E-002   -0.48176974058151245     
   5.7900000000000007E-002    -2.7409238815307617     
   5.8200000000000002E-002    -5.1062936782836914     
   5.8499999999999996E-002    -7.4959797859191895     
   5.8800000000000005E-002    -9.8207740783691406     
   5.9100000000000000E-002    -11.991229057312012     
   5.9400000000000008E-002    -13.920017242431641     
   5.9700000000000003E-002    -15.526054382324219     
   6.0000000000000012E-002    -16.739059448242188     
   6.0300000000000006E-002    -17.500694274902344     
   6.0600000000000001E-002    -17.767774581909180     
   6.0900000000000010E-002    -17.514261245727539     
   6.1200000000000004E-002    -16.731273651123047     
   6.1500000000000013E-002    -15.429427146911621     
   6.1800000000000008E-002    -13.638402938842773     
   6.2100000000000002E-002    -11.406762123107910     
   6.2399999999999997E-002    -8.8026657104492188     
   6.2700000000000006E-002    -5.9107198715209961     
   6.3000000000000000E-002    -2.8310492038726807     
   6.3300000000000009E-002    0.32400262355804443     
   6.3600000000000004E-002     3.4347834587097168     
   6.3899999999999998E-002     6.3785400390625000     
   6.4199999999999993E-002     9.0352258682250977     
   6.4500000000000002E-002     11.295100212097168     
   6.4800000000000010E-002     13.063588142395020     
   6.5100000000000005E-002     14.268212318420410     
   6.5400000000000000E-002     14.863714218139648     
   6.5700000000000008E-002     14.835025787353516     
   6.5999999999999989E-002     14.200258255004883     
   6.6299999999999998E-002     13.010549545288086     
   6.6600000000000006E-002     11.347254753112793     
   6.6900000000000001E-002     9.3184480667114258     
   6.7199999999999996E-002     7.0521206855773926     
   6.7500000000000004E-002     4.6885404586791992     
   6.7800000000000013E-002     2.3714613914489746     
   6.8099999999999994E-002    0.23860087990760803     
   6.8400000000000002E-002    -1.5868365764617920     
   6.8700000000000011E-002    -3.0049390792846680     
   6.8999999999999992E-002    -3.9459815025329590     
   6.9300000000000000E-002    -4.3746595382690430     
   6.9600000000000009E-002    -4.2928133010864258     
   6.9900000000000004E-002    -3.7391264438629150     
   7.0199999999999999E-002    -2.7856957912445068     
   7.0500000000000007E-002    -1.5329188108444214     
   7.0800000000000016E-002   -0.10161493718624115     
   7.1099999999999997E-002     1.3767728805541992     
   7.1400000000000005E-002     2.7695655822753906     
   7.1700000000000000E-002     3.9545745849609375     
   7.1999999999999995E-002     4.8293795585632324     
   7.2300000000000003E-002     5.3190727233886719     
   7.2600000000000012E-002     5.3830637931823730     
   7.2900000000000006E-002     5.0169425010681152     
   7.3200000000000001E-002     4.2532372474670410     
   7.3499999999999996E-002     3.1574096679687500     
   7.3800000000000004E-002     1.8208588361740112     
   7.4099999999999999E-002    0.35351794958114624     
   7.4400000000000008E-002    -1.1283470392227173     
   7.4700000000000003E-002    -2.5121822357177734     
   7.5000000000000011E-002    -3.6990587711334229     
   7.5299999999999992E-002    -4.6139082908630371     
   7.5600000000000001E-002    -5.2097644805908203     
   7.5900000000000009E-002    -5.4725451469421387     
   7.6200000000000004E-002    -5.4200081825256348     
   7.6499999999999999E-002    -5.0974574089050293     
   7.6800000000000007E-002    -4.5737934112548828     
   7.7099999999999988E-002    -3.9300048351287842     
   7.7399999999999997E-002    -3.2516157627105713     
   7.7700000000000005E-002    -2.6195108890533447     
   7.8000000000000014E-002    -2.0999066829681396     
   7.8299999999999995E-002    -1.7410336732864380     
   7.8600000000000003E-002    -1.5668770074844360     
   7.8900000000000012E-002    -1.5772975683212280     
   7.9199999999999993E-002    -1.7513626813888550     
   7.9500000000000001E-002    -2.0488631725311279     
   7.9800000000000010E-002    -2.4197978973388672     
   8.0100000000000018E-002    -2.8088302612304688     
   8.0399999999999999E-002    -3.1619400978088379     
   8.0700000000000008E-002    -3.4353065490722656     
   8.1000000000000003E-002    -3.5952496528625488     
   8.1299999999999997E-002    -3.6244678497314453     
   8.1600000000000006E-002    -3.5211360454559326     
   8.1900000000000014E-002    -3.2956941127777100     
   8.2199999999999995E-002    -2.9715342521667480     
   8.2500000000000004E-002    -2.5766463279724121     
   8.2799999999999999E-002    -2.1419003009796143     
   8.3100000000000007E-002    -1.6967626810073853     
   8.3400000000000002E-002    -1.2624379396438599     
   8.3700000000000011E-002   -0.85529839992523193     
   8.4000000000000005E-002   -0.48066461086273193     
   8.4300000000000000E-002   -0.13612699508666992     
   8.4599999999999995E-002    0.18534627556800842     
   8.4900000000000003E-002    0.49722135066986084     
   8.5199999999999998E-002    0.81104952096939087     
   8.5500000000000007E-002     1.1375801563262939     
   8.5800000000000001E-002     1.4844274520874023     
   8.6100000000000010E-002     1.8519623279571533     
   8.6399999999999991E-002     2.2393355369567871     
   8.6699999999999999E-002     2.6402084827423096     
   8.7000000000000008E-002     3.0480937957763672     
   8.7300000000000003E-002     3.4598681926727295     
   8.7599999999999997E-002     3.8733866214752197     
   8.7900000000000006E-002     4.2936439514160156     
   8.8200000000000014E-002     4.7293353080749512     
   8.8499999999999995E-002     5.1909780502319336     
   8.8800000000000004E-002     5.6908321380615234     
   8.9100000000000013E-002     6.2348570823669434     
   8.9399999999999993E-002     6.8216886520385742     
   8.9700000000000002E-002     7.4387884140014648     
   9.0000000000000011E-002     8.0593242645263672     
   9.0299999999999991E-002     8.6462640762329102     
   9.0600000000000000E-002     9.1519336700439453     
   9.0900000000000009E-002     9.5252552032470703     
   9.1200000000000017E-002     9.7201051712036133     
   9.1499999999999998E-002     9.6993246078491211     
   9.1800000000000007E-002     9.4443769454956055     
   9.2100000000000001E-002     8.9585304260253906     
   9.2399999999999996E-002     8.2656202316284180     
   9.2700000000000005E-002     7.4094924926757812     
   9.3000000000000013E-002     6.4442381858825684     
   9.3300000000000008E-002     5.4242525100708008     
   9.3600000000000003E-002     4.3930411338806152     
   9.3899999999999997E-002     3.3674750328063965     
   9.4200000000000006E-002     2.3322947025299072     
   9.4500000000000001E-002     1.2324084043502808     
   9.4800000000000009E-002    -2.6452660560607910E-002
   9.5100000000000004E-002    -1.5662236213684082     
   9.5399999999999999E-002    -3.5261471271514893     
   9.5699999999999993E-002    -6.0368332862854004     
   9.6000000000000002E-002    -9.1981391906738281     
   9.6300000000000011E-002    -13.054743766784668     
   9.6600000000000005E-002    -17.570341110229492     
   9.6900000000000000E-002    -22.615411758422852     
   9.7200000000000009E-002    -27.958160400390625     
   9.7499999999999989E-002    -33.268707275390625     
   9.7799999999999998E-002    -38.139240264892578     
   9.8100000000000007E-002    -42.107933044433594     
   9.8400000000000015E-002    -44.701339721679688     
   9.8699999999999996E-002    -45.478370666503906     
   9.9000000000000005E-002    -44.073875427246094     
   9.9300000000000013E-002    -40.248626708984375     
   9.9599999999999994E-002    -33.920135498046875     
   9.9900000000000003E-002    -25.187232971191406     
  0.10020000000000001         -14.343629837036133     
  0.10049999999999999         -1.8608355522155762     
  0.10080000000000000          11.630884170532227     
  0.10110000000000001          25.386323928833008     
  0.10140000000000000          38.602657318115234     
  0.10170000000000000          50.473079681396484     
  0.10200000000000001          60.254951477050781     
  0.10230000000000002          67.327339172363281     
  0.10260000000000000          71.235015869140625     
  0.10290000000000001          71.729896545410156     
  0.10320000000000000          68.784103393554688     
  0.10350000000000001          62.588256835937500     
  0.10380000000000000          53.539482116699219     
  0.10410000000000001          42.199928283691406     
  0.10440000000000001          29.256313323974609     
  0.10470000000000000          15.467220306396484     
  0.10500000000000000          1.6025991439819336     
  0.10530000000000000         -11.601127624511719     
  0.10560000000000000         -23.494894027709961     
  0.10590000000000001         -33.548843383789062     
  0.10620000000000000         -41.377532958984375     
  0.10650000000000001         -46.754444122314453     
  0.10679999999999999         -49.610061645507812     
  0.10710000000000000         -50.021522521972656     
  0.10740000000000001         -48.194648742675781     
  0.10770000000000000         -44.435623168945312     
  0.10800000000000000         -39.125484466552734     
  0.10830000000000001         -32.687393188476562     
  0.10859999999999999         -25.558467864990234     
  0.10890000000000000         -18.163553237915039     
  0.10920000000000001         -10.892767906188965     
  0.10950000000000001         -4.0825576782226562     
  0.10979999999999999          1.9955949783325195     
  0.11009999999999999          7.1424074172973633     
  0.11040000000000001          11.235397338867188     
  0.11070000000000001          14.222972869873047     
  0.11100000000000000          16.122816085815430     
  0.11130000000000000          17.009101867675781     
  0.11160000000000002          16.999774932861328     
  0.11190000000000001          16.248416900634766     
  0.11220000000000001          14.923022270202637     
  0.11250000000000000          13.197854995727539     
  0.11280000000000000          11.240470886230469     
  0.11309999999999999          9.1984539031982422     
  0.11340000000000001          7.1992139816284180     
  0.11369999999999998          5.3382282257080078     
  0.11400000000000000          3.6833038330078125     
  0.11430000000000000          2.2757587432861328     
  0.11460000000000002          1.1286560297012329     
  0.11489999999999999         0.24007430672645569     
  0.11520000000000001        -0.40970334410667419     
  0.11550000000000001        -0.84907031059265137     
  0.11580000000000000         -1.1088229417800903     
  0.11609999999999999         -1.2256505489349365     
  0.11640000000000002         -1.2305693626403809     
  0.11670000000000001         -1.1551190614700317     
  0.11700000000000001         -1.0273751020431519     
  0.11730000000000000        -0.86993122100830078     
  0.11760000000000000        -0.70583558082580566     
  0.11789999999999999        -0.55105888843536377     
  0.11820000000000001        -0.42003858089447021     
  0.11850000000000001        -0.32380020618438721     
  0.11880000000000000        -0.26696667075157166     
  0.11910000000000000        -0.25296285748481750     
  0.11940000000000002        -0.27830928564071655     
  0.11970000000000001        -0.33655309677124023     
  0.12000000000000001        -0.41924336552619934     
  0.12030000000000000        -0.51404339075088501     
  0.12060000000000000        -0.61064726114273071     
  0.12089999999999999        -0.69801872968673706     
  0.12119999999999999        -0.76830238103866577     
  0.12150000000000001        -0.81695932149887085     
  0.12180000000000001        -0.84179353713989258     
  0.12210000000000000        -0.84500968456268311     
  0.12239999999999999        -0.83038687705993652     
  0.12270000000000002        -0.80384969711303711     
  0.12300000000000001        -0.77083271741867065     
  0.12330000000000001        -0.73607009649276733     
  0.12360000000000000        -0.70247107744216919     
  0.12390000000000000        -0.67030566930770874     
  0.12419999999999999        -0.63869684934616089     
  0.12450000000000001        -0.60381454229354858     
  0.12480000000000001        -0.56188178062438965     
  0.12509999999999999        -0.50941854715347290     
  0.12540000000000001        -0.44254630804061890     
  0.12570000000000003        -0.36230111122131348     
  0.12600000000000000        -0.26855245232582092     
  0.12630000000000002        -0.16536086797714233     
  0.12659999999999999         -5.9897202998399734E-002
  0.12690000000000001          4.3252203613519669E-002
  0.12719999999999998         0.13462604582309723     
  0.12750000000000000         0.20947358012199402     
  0.12780000000000002         0.26352372765541077     
  0.12809999999999999         0.29306551814079285     
  0.12840000000000001         0.30213904380798340     
  0.12869999999999998         0.29098877310752869     
  0.12900000000000000         0.26657402515411377     
  0.12930000000000003         0.23695269227027893     
  0.12959999999999999         0.20593866705894470     
  0.12990000000000002         0.18307422101497650     
  0.13019999999999998         0.16984553635120392     
  0.13050000000000000         0.16801737248897552     
  0.13080000000000003         0.17820580303668976     
  0.13109999999999999         0.19328732788562775     
  0.13140000000000002         0.21122899651527405     
  0.13169999999999998         0.22373504936695099     
  0.13200000000000001         0.22454527020454407     
  0.13229999999999997         0.21261745691299438     
  0.13260000000000000         0.18325480818748474     
  0.13290000000000002         0.14089182019233704     
  0.13319999999999999          8.9853242039680481E-002
  0.13350000000000001          3.5854279994964600E-002
  0.13380000000000003         -1.0167117230594158E-002
  0.13410000000000000         -4.2770933359861374E-002
  0.13440000000000002         -5.4876614362001419E-002
  0.13469999999999999         -4.3092191219329834E-002
  0.13500000000000001         -1.0890347883105278E-002
  0.13529999999999998          3.8366831839084625E-002
  0.13560000000000000          9.4202548265457153E-002
  0.13590000000000002         0.14471185207366943     
  0.13619999999999999         0.17986805737018585     
  0.13650000000000001         0.18688356876373291     
  0.13680000000000003         0.16027815639972687     
  0.13710000000000000          9.8469249904155731E-002
  0.13740000000000002          4.0113870054483414E-003
  0.13769999999999999        -0.11116307228803635     
  0.13800000000000001        -0.23397217690944672     
  0.13829999999999998        -0.34689447283744812     
  0.13860000000000000        -0.43083056807518005     
  0.13890000000000002        -0.47306236624717712     
  0.13919999999999999        -0.46143138408660889     
  0.13950000000000001        -0.39313742518424988     
  0.13979999999999998        -0.27430057525634766     
  0.14010000000000000        -0.11469894647598267     
  0.14040000000000002          6.3601173460483551E-002
  0.14069999999999999         0.23879000544548035     
  0.14100000000000001         0.38749387860298157     
  0.14130000000000004         0.48525246977806091     
  0.14160000000000000         0.52027320861816406     
  0.14189999999999997         0.48291987180709839     
  0.14219999999999999         0.37705522775650024     
  0.14250000000000002         0.21882294118404388     
  0.14279999999999998          2.7051080018281937E-002
  0.14310000000000000        -0.16540056467056274     
  0.14339999999999997        -0.32903888821601868     
  0.14369999999999999        -0.43627953529357910     
  0.14400000000000002        -0.46154394745826721     
  0.14429999999999998        -0.39796313643455505     
  0.14460000000000001        -0.24474750459194183     
  0.14490000000000003         -1.7612121999263763E-002
  0.14520000000000000         0.25158643722534180     
  0.14550000000000002         0.52984732389450073     
  0.14579999999999999         0.77002233266830444     
  0.14610000000000001         0.93186342716217041     
  0.14640000000000003         0.98212343454360962     
  0.14670000000000000         0.89353299140930176     
  0.14699999999999996         0.66458719968795776     
  0.14729999999999999         0.30336534976959229     
  0.14760000000000001        -0.16043972969055176     
  0.14789999999999998        -0.67893415689468384     
  0.14820000000000000         -1.2013748884201050     