  -1.4999999999999999E-002     0.0000000000000000     
  -1.4700000000000000E-002     0.0000000000000000     
  -1.4400000000000000E-002     0.0000000000000000     
  -1.4100000000000000E-002     0.0000000000000000     
  -1.3800000000000000E-002     0.0000000000000000     
  -1.3500000000000000E-002     0.0000000000000000     
  -1.3200000000000000E-002     0.0000000000000000     
  -1.2899999999999998E-002     0.0000000000000000     
  -1.2600000000000000E-002     0.0000000000000000     
  -1.2299999999999998E-002     0.0000000000000000     
  -1.2000000000000000E-002     0.0000000000000000     
  -1.1699999999999999E-002     0.0000000000000000     
  -1.1399999999999999E-002     3.2115619618271319E-037
  -1.1099999999999999E-002    -1.6176229373264821E-035
  -1.0799999999999999E-002     4.1608076934319141E-034
  -1.0499999999999999E-002    -1.2981196419026509E-032
  -1.0199999999999999E-002     2.2559204414568993E-031
  -9.8999999999999991E-003    -2.6439992049249561E-030
  -9.5999999999999992E-003     2.3725122895426927E-029
  -9.2999999999999992E-003    -1.7088500043174443E-028
  -8.9999999999999993E-003     1.0119100192740435E-027
  -8.6999999999999994E-003    -5.0250968645090357E-027
  -8.3999999999999995E-003     2.1263977183754179E-026
  -8.0999999999999996E-003    -7.6927479474022025E-026
  -7.7999999999999988E-003     2.3538752555084084E-025
  -7.4999999999999997E-003    -6.0041364889138709E-025
  -7.1999999999999998E-003     1.2560180600097116E-024
  -6.8999999999999981E-003    -1.9414393659769423E-024
  -6.5999999999999982E-003     2.9149450573240547E-025
  -6.3000000000000000E-003     1.3800659109394844E-023
  -6.0000000000000001E-003    -5.7510236798818928E-023
  -5.6999999999999985E-003     6.4699882758590286E-023
  -5.3999999999999986E-003     5.5637222608158400E-022
  -5.1000000000000004E-003    -4.1560542686917868E-021
  -4.7999999999999987E-003     1.7076355948872462E-020
  -4.5000000000000005E-003    -5.1809829010458164E-020
  -4.1999999999999989E-003     1.2482000832871386E-019
  -3.8999999999999990E-003    -2.4005551524015958E-019
  -3.5999999999999990E-003     3.4254852630404738E-019
  -3.2999999999999991E-003    -2.3047118183302023E-019
  -2.9999999999999992E-003    -5.5968085167502632E-019
  -2.6999999999999993E-003     2.8314727335934185E-018
  -2.3999999999999994E-003    -7.6659324236773397E-018
  -2.0999999999999977E-003     1.6096215742327575E-017
  -1.7999999999999995E-003    -2.8227707801977025E-017
  -1.4999999999999979E-003     4.0903771643119213E-017
  -1.1999999999999997E-003    -4.2862840772939672E-017
  -8.9999999999999976E-004     1.0177272574829568E-017
  -5.9999999999999810E-004     8.4420429583496254E-017
  -2.9999999999999992E-004    -2.2578383485895876E-016
   0.0000000000000000          2.7484141427871143E-016
   3.0000000000000165E-004     6.3241885150888062E-017
   5.9999999999999984E-004    -1.0384997341378262E-015
   9.0000000000000149E-004     2.3216564904015931E-015
   1.2000000000000031E-003    -2.5073322384465823E-015
   1.5000000000000013E-003    -2.0407360680105417E-016
   1.8000000000000030E-003     4.6249734540390965E-015
   2.1000000000000012E-003    -4.0434678400292650E-016
   2.3999999999999994E-003    -3.4905297771901690E-014
   2.7000000000000010E-003     1.1213626533031260E-013
   2.9999999999999992E-003    -1.1847894733430821E-013
   3.3000000000000008E-003    -4.9263599242133197E-013
   3.6000000000000025E-003     3.2289433192149198E-012
   3.9000000000000007E-003    -1.0426220476495736E-011
   4.2000000000000023E-003     2.0086898643814818E-011
   4.5000000000000005E-003    -4.6906346761084843E-012
   4.7999999999999987E-003    -1.2766816465739609E-010
   5.1000000000000004E-003     4.8538149609852643E-010
   5.4000000000000020E-003    -6.9273500466809854E-010
   5.7000000000000037E-003    -1.1671793256939097E-009
   5.9999999999999984E-003     7.3030261865640997E-009
   6.3000000000000000E-003    -9.4668058773313244E-009
   6.6000000000000017E-003    -2.2678347347972280E-008
   6.9000000000000034E-003     8.9530244560168478E-008
   7.2000000000000015E-003    -2.2523131440764018E-008
   7.5000000000000032E-003    -3.7561796991272344E-007
   7.8000000000000014E-003     3.9458649690334596E-007
   8.0999999999999996E-003     1.0593344537806540E-006
   8.4000000000000012E-003    -1.4428010116838727E-006
   8.7000000000000029E-003    -2.9420165044843297E-006
   9.0000000000000011E-003     3.2332087812696176E-006
   9.2999999999999992E-003     1.7521348051060951E-005
   9.6000000000000009E-003     4.5444935583149751E-005
   9.8999999999999991E-003     1.0551084362262798E-004
   1.0200000000000001E-002     2.1444427738283745E-004
   1.0500000000000002E-002     3.7276756389058828E-004
   1.0800000000000004E-002     5.8073281270226360E-004
   1.1099999999999999E-002     8.7069955217341372E-004
   1.1400000000000000E-002     1.3123667488022378E-003
   1.1700000000000002E-002     2.0017348837532908E-003
   1.2000000000000004E-002     3.0568353808658327E-003
   1.2300000000000002E-002     4.6152940285961452E-003
   1.2600000000000000E-002     6.8580523573779917E-003
   1.2900000000000002E-002     1.0040199897854318E-002
   1.3200000000000000E-002     1.4491120615717890E-002
   1.3500000000000002E-002     2.0623286207717029E-002
   1.3800000000000003E-002     2.8949367967393669E-002
   1.4100000000000001E-002     4.0068790847006097E-002
   1.4400000000000000E-002     5.4638439517635584E-002
   1.4700000000000001E-002     7.3349722167968867E-002
   1.4999999999999999E-002     9.6897761503498270E-002
   1.5300000000000001E-002    0.12590699052857968     
   1.5600000000000003E-002    0.16081276810449552     
   1.5899999999999997E-002    0.20173671295633522     
   1.6199999999999999E-002    0.24832019968550423     
   1.6500000000000001E-002    0.29952392037706410     
   1.6800000000000002E-002    0.35343555053643350     
   1.7100000000000004E-002    0.40706859652670602     
   1.7400000000000006E-002    0.45624530993055146     
   1.7700000000000000E-002    0.49553058949132911     
   1.8000000000000002E-002    0.51819928712406238     
   1.8300000000000004E-002    0.51641307593085806     
   1.8600000000000005E-002    0.48155332533254303     
   1.8900000000000000E-002    0.40479469998249940     
   1.9200000000000002E-002    0.27776775895904615     
   1.9500000000000003E-002     9.3477974417603527E-002
   1.9799999999999998E-002   -0.15263304247865195     
   2.0100000000000000E-002   -0.46163648506904131     
   2.0400000000000001E-002   -0.83005948469226354     
   2.0700000000000003E-002    -1.2490754800129551     
   2.0999999999999998E-002    -1.7039689009236838     
   2.1299999999999999E-002    -2.1739749753680542     
   2.1600000000000001E-002    -2.6328158336593219     
   2.1900000000000003E-002    -3.0497578657179787     
   2.2200000000000004E-002    -3.3912986051442857     
   2.2500000000000006E-002    -3.6233406685565654     
   2.2800000000000001E-002    -3.7137311755842148     
   2.3100000000000002E-002    -3.6353288571302329     
   2.3400000000000004E-002    -3.3686968194261340     
   2.3699999999999999E-002    -2.9046361267425311     
   2.4000000000000000E-002    -2.2461061111698157     
   2.4300000000000002E-002    -1.4089943875803908     
   2.4599999999999997E-002   -0.42233207169185860     
   2.4900000000000005E-002    0.67318809439828087     
   2.5200000000000000E-002     1.8271818629046592     
   2.5499999999999995E-002     2.9825782194571531     
   2.5800000000000003E-002     4.0801787840305792     
   2.6099999999999998E-002     5.0618397821493488     
   2.6400000000000007E-002     5.8757074152202620     
   2.6700000000000002E-002     6.4792703421701674     
   2.6999999999999996E-002     6.8423664767345826     
   2.7300000000000005E-002     6.9497761888386549     
   2.7600000000000000E-002     6.8008453541121128     
   2.7900000000000008E-002     6.4099660316850020     
   2.8200000000000003E-002     5.8043421417780223     
   2.8499999999999998E-002     5.0210888467287305     
   2.8800000000000006E-002     4.1046313248085511     
   2.9100000000000001E-002     3.1019684779039807     
   2.9400000000000003E-002     2.0596177912540199     
   2.9700000000000004E-002     1.0199931751323934     
   3.0000000000000006E-002     1.8434117435989883E-002
   3.0300000000000001E-002   -0.91794071066602356     
   3.0600000000000002E-002    -1.7716594925388875     
   3.0900000000000004E-002    -2.5343987500079521     
   3.1199999999999999E-002    -3.2052142258723677     
   3.1500000000000007E-002    -3.7890398309791919     
   3.1800000000000002E-002    -4.2938134877015557     
   3.2099999999999997E-002    -4.7273007290772000     
   3.2400000000000005E-002    -5.0953633293311782     
   3.2700000000000000E-002    -5.3984888972384795     
   3.3000000000000002E-002    -5.6311765768714110     
   3.3300000000000003E-002    -5.7811986950349308     
   3.3599999999999998E-002    -5.8298728519625627     
   3.3900000000000000E-002    -5.7547239986546685     
   3.4200000000000001E-002    -5.5313850738764359     
   3.4500000000000003E-002    -5.1373795810938105     
   3.4799999999999998E-002    -4.5560992166185628     
   3.5099999999999999E-002    -3.7797126169551944     
   3.5400000000000001E-002    -2.8131192935214777     
   3.5699999999999996E-002    -1.6759755548715525     
   3.6000000000000004E-002   -0.40281107104130243     
   3.6299999999999999E-002    0.95635162634692961     
   3.6600000000000008E-002     2.3392820723051955     
   3.6900000000000002E-002     3.6750165975854543     
   3.7199999999999997E-002     4.8882043382239431     
   3.7500000000000006E-002     5.9057691956979568     
   3.7800000000000000E-002     6.6619644038414947     
   3.8100000000000009E-002     7.1041230517546694     
   3.8400000000000004E-002     7.1980418680971354     
   3.8699999999999998E-002     6.9304316632078837     
   3.9000000000000007E-002     6.3117514371949142     
   3.9300000000000002E-002     5.3755152594736870     
   3.9600000000000003E-002     4.1757595098434237     
   3.9900000000000005E-002     2.7847980288760610     
   4.0200000000000000E-002     1.2864339275768657     
   4.0500000000000001E-002   -0.22950028211340268     
   4.0800000000000003E-002    -1.6733091032934126     
   4.1100000000000005E-002    -2.9633384007719172     
   4.1399999999999999E-002    -4.0302820161744819     
   4.1700000000000008E-002    -4.8238374479013544     
   4.2000000000000003E-002    -5.3148222573850887     
   4.2299999999999997E-002    -5.4964505524239939     
   4.2600000000000006E-002    -5.3860401409519625     
   4.2900000000000001E-002    -5.0203104114820292     
   4.3200000000000002E-002    -4.4536739138477515     
   4.3500000000000004E-002    -3.7524810009599463     
   4.3799999999999999E-002    -2.9885579048889568     
   4.4100000000000000E-002    -2.2345122870447582     
   4.4400000000000002E-002    -1.5555041641060185     
   4.4700000000000004E-002    -1.0058435194079038     
   4.4999999999999998E-002   -0.62353395382369925     
   4.5300000000000000E-002   -0.42728387624344499     
   4.5600000000000002E-002   -0.41692119007655037     
   4.5899999999999996E-002   -0.57195190305318278     
   4.6200000000000005E-002   -0.85616116998471981     
   4.6500000000000000E-002    -1.2204005399653468     
   4.6799999999999994E-002    -1.6078330887421188     
   4.7100000000000003E-002    -1.9600448529810350     
   4.7399999999999998E-002    -2.2218699066692125     
   4.7700000000000006E-002    -2.3473190156780603     
   4.8000000000000001E-002    -2.3028027110814904     
   4.8300000000000010E-002    -2.0703673481250373     
   4.8600000000000004E-002    -1.6481604216414567     
   4.8899999999999999E-002    -1.0494209699933563     
   4.9200000000000008E-002   -0.30052661242940104     
   4.9500000000000002E-002    0.56346822244937833     
   4.9800000000000011E-002     1.5021573829724773     
   5.0100000000000006E-002     2.4755024253021105     
   5.0400000000000000E-002     3.4471378003511717     
   5.0700000000000009E-002     4.3871631365435206     
   5.1000000000000004E-002     5.2744306155166782     
   5.1299999999999998E-002     6.0958656582765229     
   5.1600000000000007E-002     6.8457056341954114     
   5.1900000000000002E-002     7.5224953417675238     
   5.2200000000000010E-002     8.1255572832548921     
   5.2500000000000005E-002     8.6516783081825110     
   5.2800000000000000E-002     9.0916563641314383     
   5.3099999999999994E-002     9.4285341978997508     
   5.3400000000000003E-002     9.6369496442059130     
   5.3699999999999998E-002     9.6834643429345419     
   5.4000000000000006E-002     9.5297330391275636     
   5.4300000000000001E-002     9.1357238718566407     
   5.4599999999999996E-002     8.4645850017713258     
   5.4900000000000004E-002     7.4881867112710054     
   5.5199999999999999E-002     6.1903086461192132     
   5.5499999999999994E-002     4.5718519458703781     
   5.5800000000000002E-002     2.6525880369209176     
   5.6099999999999997E-002    0.47162257825071663     
   5.6400000000000006E-002    -1.9127126860504191     
   5.6700000000000000E-002    -4.4255296859767697     
   5.6999999999999995E-002    -6.9798816171921203     
   5.7300000000000004E-002    -9.4798687838664364     
   5.7599999999999998E-002    -11.826482344498970     
   5.7900000000000007E-002    -13.922886686280947     
   5.8200000000000002E-002    -15.677974783274919     
   5.8499999999999996E-002    -17.012581864332674     
   5.8800000000000005E-002    -17.861162596485428     
   5.9100000000000000E-002    -18.176202608590302     
   5.9400000000000008E-002    -17.930176587126994     
   5.9700000000000003E-002    -17.115804209347516     
   6.0000000000000012E-002    -15.748842141243045     
   6.0300000000000006E-002    -13.867266751812124     
   6.0600000000000001E-002    -11.530214906392043     
   6.0900000000000010E-002    -8.8183284645400306     
   6.1200000000000004E-002    -5.8300737909627571     
   6.1500000000000013E-002    -2.6789309334771190     
   6.1800000000000008E-002    0.50993797230911042     
   6.2100000000000002E-002     3.6073951906133459     
   6.2399999999999997E-002     6.4832981623315789     
   6.2700000000000006E-002     9.0152214014094341     
   6.3000000000000000E-002     11.095705530125031     
   6.3300000000000009E-002     12.636568123707320     
   6.3600000000000004E-002     13.578737726121119     
   6.3899999999999998E-002     13.892628360003812     
   6.4199999999999993E-002     13.583423957375857     
   6.4500000000000002E-002     12.692453051890340     
   6.4800000000000010E-002     11.291878556497046     
   6.5100000000000005E-002     9.4854448059622367     
   6.5400000000000000E-002     7.3991758508849585     
   6.5700000000000008E-002     5.1737374590544505     
   6.5999999999999989E-002     2.9572559861627212     
   6.6299999999999998E-002    0.89184584786097787     
   6.6600000000000006E-002   -0.89250948716071843     
   6.6900000000000001E-002    -2.2889679222832058     
   6.7199999999999996E-002    -3.2224022692454959     
   6.7500000000000004E-002    -3.6505565685754178     
   6.7800000000000013E-002    -3.5721238451244659     
   6.8099999999999994E-002    -3.0232387199585133     
   6.8400000000000002E-002    -2.0739904292400269     
   6.8700000000000011E-002   -0.82638835837473579     
   6.8999999999999992E-002    0.59909400083878239     
   6.9300000000000000E-002     2.0689228049493096     
   6.9600000000000009E-002     3.4495236329467076     
   6.9900000000000004E-002     4.6190711398735829     
   7.0199999999999999E-002     5.4743730013979075     
   7.0500000000000007E-002     5.9435364040707128     
   7.0800000000000016E-002     5.9880444673111413     
   7.1099999999999997E-002     5.6063391546655588     
   7.1400000000000005E-002     4.8350073489100289     
   7.1700000000000000E-002     3.7406015149101748     
   7.1999999999999995E-002     2.4161347764582786     
   7.2300000000000003E-002    0.97074060020207753     
   7.2600000000000012E-002   -0.48274388631350718     
   7.2900000000000006E-002    -1.8359772859764689     
   7.3200000000000001E-002    -2.9974257841466567     
   7.3499999999999996E-002    -3.8993675562022503     
   7.3800000000000004E-002    -4.5023214580675841     
   7.4099999999999999E-002    -4.7997021197408429     
   7.4400000000000008E-002    -4.8132982381466718     
   7.4700000000000003E-002    -4.5907644983155080     
   7.5000000000000011E-002    -4.1997221322417460     
   7.5299999999999992E-002    -3.7150520067228570     
   7.5600000000000001E-002    -3.2148382489126419     
   7.5900000000000009E-002    -2.7687521543140861     
   7.6200000000000004E-002    -2.4303152634230543     
   7.6499999999999999E-002    -2.2360118862132907     
   7.6800000000000007E-002    -2.1979721732815278     
   7.7099999999999988E-002    -2.3083683307049654     
   7.7399999999999997E-002    -2.5421188174088769     
   7.7700000000000005E-002    -2.8590966638772386     
   7.8000000000000014E-002    -3.2148372414248314     
   7.8299999999999995E-002    -3.5623995692309478     
   7.8600000000000003E-002    -3.8602026383081949     
   7.8900000000000012E-002    -4.0775000263804912     
   7.9199999999999993E-002    -4.1925837429793660     
   7.9500000000000001E-002    -4.1987351227484027     
   7.9800000000000010E-002    -4.0997567745516079     
   8.0100000000000018E-002    -3.9071517653209895     
   8.0399999999999999E-002    -3.6399699168444641     
   8.0700000000000008E-002    -3.3172416981491040     
   8.1000000000000003E-002    -2.9578103918434238     
   8.1299999999999997E-002    -2.5783119420064011     
   8.1600000000000006E-002    -2.1892862518583200     
   8.1900000000000014E-002    -1.7988762121070927     
   8.2199999999999995E-002    -1.4106654904406533     
   8.2500000000000004E-002    -1.0247801297244914     
   8.2799999999999999E-002   -0.64234172377176080     
   8.3100000000000007E-002   -0.26087358336179101     
   8.3400000000000002E-002    0.12101430134253255     
   8.3700000000000011E-002    0.50591417429972019     
   8.4000000000000005E-002    0.90085440899894209     
   8.4300000000000000E-002     1.3129004992777951     
   8.4599999999999995E-002     1.7551419752568620     
   8.4900000000000003E-002     2.2430284786796619     
   8.5199999999999998E-002     2.7922277414993317     
   8.5500000000000007E-002     3.4204060371912561     
   8.5800000000000001E-002     4.1379044359619286     
   8.6100000000000010E-002     4.9479685193132923     
   8.6399999999999991E-002     5.8425906178100888     
   8.6699999999999999E-002     6.7980579376252877     
   8.7000000000000008E-002     7.7802839646081736     
   8.7300000000000003E-002     8.7416730713189565     
   8.7599999999999997E-002     9.6293526069847530     
   8.7900000000000006E-002     10.392929123715589     
   8.8200000000000014E-002     10.987386847397374     
   8.8499999999999995E-002     11.385804755175116     
   8.8800000000000004E-002     11.581133792677349     
   8.9100000000000013E-002     11.588718897923854     
   8.9399999999999993E-002     11.446781694821425     
   8.9700000000000002E-002     11.205385639136807     
   9.0000000000000011E-002     10.920713999727923     
   9.0299999999999991E-002     10.640091914730988     
   9.0600000000000000E-002     10.385645676358934     
   9.0900000000000009E-002     10.147453242661271     
   9.1200000000000017E-002     9.8690792572908279     
   9.1499999999999998E-002     9.4475202144218713     
   9.1800000000000007E-002     8.7380058249235617     
   9.2100000000000001E-002     7.5624400981367046     
   9.2399999999999996E-002     5.7339734439452457     
   9.2700000000000005E-002     3.0772895353368028     
   9.3000000000000013E-002   -0.54168997448039846     
   9.3300000000000008E-002    -5.1867300224123696     
   9.3600000000000003E-002    -10.830775238132702     
   9.3899999999999997E-002    -17.334817114833356     
   9.4200000000000006E-002    -24.443486303034433     
   9.4500000000000001E-002    -31.791974822585985     
   9.4800000000000009E-002    -38.917902668000693     
   9.5100000000000004E-002    -45.298252553875272     
   9.5399999999999999E-002    -50.385151886311178     
   9.5699999999999993E-002    -53.652028231108488     
   9.6000000000000002E-002    -54.646185967508472     
   9.6300000000000011E-002    -53.030338484269578     
   9.6600000000000005E-002    -48.626302343091083     
   9.6900000000000000E-002    -41.441426034152073     
   9.7200000000000009E-002    -31.680016398794351     
   9.7499999999999989E-002    -19.743298480275598     
   9.7799999999999998E-002    -6.2057118173132721     
   9.8100000000000007E-002     8.2213966383139336     
   9.8400000000000015E-002     22.737751748614528     
   9.8699999999999996E-002     36.513677942702770     
   9.9000000000000005E-002     48.750389693317857     
   9.9300000000000013E-002     58.741148875343697     
   9.9599999999999994E-002     65.920121168578362     
   9.9900000000000003E-002     69.905885324297742     
  0.10020000000000001          70.523171438882628     
  0.10049999999999999          67.810697886142137     
  0.10080000000000000          62.015174843982095     
  0.10110000000000001          53.560328847297001     
  0.10140000000000000          43.014426758910304     
  0.10170000000000000          31.041512638989616     
  0.10200000000000001          18.350310626450209     
  0.10230000000000002          5.6471439623826427     
  0.10260000000000000         -6.4138131570839221     
  0.10290000000000001         -17.266164257881542     
  0.10320000000000000         -26.459345826355047     
  0.10350000000000001         -33.678019161184238     
  0.10380000000000000         -38.745166003600048     
  0.10410000000000001         -41.620681591131302     
  0.10440000000000001         -42.388567765516427     
  0.10470000000000000         -41.235806670003285     
  0.10500000000000000         -38.432837153762563     
  0.10530000000000000         -34.306393458239441     
  0.10560000000000000         -29.213896230235065     
  0.10590000000000001         -23.521555612948333     
  0.10620000000000000         -17.580820344364781     
  0.10650000000000001         -11.712787445799137     
  0.10679999999999999         -6.1920710184687096     
  0.10710000000000000         -1.2378700990675497     
  0.10740000000000001          2.9903168405616611     
  0.10770000000000000          6.3959979932146922     
  0.10800000000000000          8.9422623379215622     
  0.10830000000000001          10.645356172521701     
  0.10859999999999999          11.566487780293869     
  0.10890000000000000          11.802921917031000     
  0.10920000000000001          11.472263448143309     
  0.10950000000000001          10.705523796739172     
  0.10979999999999999          9.6340891890055644     
  0.11009999999999999          8.3800375189397514     
  0.11040000000000001          7.0520243544644181     
  0.11070000000000001          5.7368989484638711     
  0.11100000000000000          4.5021731236211835     
  0.11130000000000000          3.3944294730454150     
  0.11160000000000002          2.4399408127425044     
  0.11190000000000001          1.6522898966791182     
  0.11220000000000001          1.0295332021019643     
  0.11250000000000000         0.56341873508512208     
  0.11280000000000000         0.24022557409381129     
  0.11309999999999999          4.0195498960835074E-002
  0.11340000000000001         -5.4993598864159665E-002
  0.11369999999999998         -6.8204525689191442E-002
  0.11400000000000000         -2.1338983247026988E-002
  0.11430000000000000          6.4530414202195185E-002
  0.11460000000000002         0.16617985668171911     
  0.11489999999999999         0.26613601585397539     
  0.11520000000000001         0.34596825178313573     
  0.11550000000000001         0.39264739781056335     
  0.11580000000000000         0.39926481784914636     
  0.11609999999999999         0.36091789084746972     
  0.11640000000000002         0.28227935008233551     
  0.11670000000000001         0.16988611525858488     
  0.11700000000000001          3.3734989437493645E-002
  0.11730000000000000        -0.11179691332738750     
  0.11760000000000000        -0.25598071146730028     
  0.11789999999999999        -0.38620545872069556     
  0.11820000000000001        -0.49524719283874141     
  0.11850000000000001        -0.58001634983171613     
  0.11880000000000000        -0.63730542195483864     
  0.11910000000000000        -0.67267802856207837     
  0.11940000000000002        -0.68953247380935068     
  0.11970000000000001        -0.69366973443480973     
  0.12000000000000001        -0.69224775023108975     
  0.12030000000000000        -0.68659369637752832     
  0.12060000000000000        -0.68196856985624166     
  0.12089999999999999        -0.67650094670081629     
  0.12119999999999999        -0.66898279752323475     
  0.12150000000000001        -0.65860434003962176     
  0.12180000000000001        -0.63978307944195656     
  0.12210000000000000        -0.61264831248276863     
  0.12239999999999999        -0.57510648276916676     
  0.12270000000000002        -0.52689230380251928     
  0.12300000000000001        -0.47188741039484494     
  0.12330000000000001        -0.41023565537756035     
  0.12360000000000000        -0.34757301556219389     
  0.12390000000000000        -0.28654734904947521     
  0.12419999999999999        -0.22906312476637325     
  0.12450000000000001        -0.17926008327117637     
  0.12480000000000001        -0.13506414552510226     
  0.12509999999999999         -9.7574581840501828E-002
  0.12540000000000001         -6.4673386934791743E-002
  0.12570000000000003         -3.3757459421530189E-002
  0.12600000000000000         -3.9913406096936388E-003
  0.12630000000000002          2.8222061681760779E-002
  0.12659999999999999          6.3018200311100170E-002
  0.12690000000000001         0.10117915613562367     
  0.12719999999999998         0.14178299309850040     
  0.12750000000000000         0.18244447215920445     
  0.12780000000000002         0.22071567940109871     
  0.12809999999999999         0.25376463920868786     
  0.12840000000000001         0.27804218556109367     
  0.12869999999999998         0.29077352005350521     
  0.12900000000000000         0.29036230745449854     
  0.12930000000000003         0.27594159310165667     
  0.12959999999999999         0.24911728798002031     
  0.12990000000000002         0.21242929377222097     
  0.13019999999999998         0.17026665518687434     
  0.13050000000000000         0.12864884165285773     
  0.13080000000000003          9.2276590300381933E-002
  0.13109999999999999          6.7217688913738360E-002
  0.13140000000000002          5.6883267017163175E-002
  0.13169999999999998          6.2654724334402390E-002
  0.13200000000000001          8.4024273992346327E-002
  0.13229999999999997         0.11592463716412671     
  0.13260000000000000         0.15247870545263498     
  0.13290000000000002         0.18488447104355776     
  0.13319999999999999         0.20373114338741871     
  0.13350000000000001         0.20180088928933504     
  0.13380000000000003         0.17224690098849837     
  0.13410000000000000         0.11394447440255284     
  0.13440000000000002          2.9665771076910374E-002
  0.13469999999999999         -7.3758994970971603E-002
  0.13500000000000001        -0.18393207447754012     
  0.13529999999999998        -0.28660182144887547     
  0.13560000000000000        -0.36644654857188463     
  0.13590000000000002        -0.40921129718376292     
  0.13619999999999999        -0.40620154985923307     
  0.13650000000000001        -0.35296834112063635     
  0.13680000000000003        -0.25311609365650423     
  0.13710000000000000        -0.11879722808542725     
  0.13740000000000002          3.3949550037373655E-002
  0.13769999999999999         0.18177265025470007     
  0.13800000000000001         0.30229359653179788     
  0.13829999999999998         0.37535165471073739     
  0.13860000000000000         0.38466989160475151     
  0.13890000000000002         0.32640534884378525     
  0.13919999999999999         0.20393886198738898     
  0.13950000000000001          3.3343755750815274E-002
  0.13979999999999998        -0.15942289818179889     
  0.14010000000000000        -0.34535421109398357     
  0.14040000000000002        -0.48938380147770921     
  0.14069999999999999        -0.56318656587888505     
  0.14100000000000001        -0.54529560102428221     
  0.14130000000000004        -0.42507313950534709     
  0.14160000000000000        -0.21010370069458872     
  0.14189999999999997          8.0855282970528464E-002
  0.14219999999999999         0.41279635862907726     
  0.14250000000000002         0.74235582644215192     
  0.14279999999999998          1.0225578410719081     
  0.14310000000000000          1.2066311450029588     
  0.14339999999999997          1.2591858028319365     
  0.14369999999999999          1.1562435973401861     
  0.14400000000000002         0.89358778045050968     
  0.14429999999999998         0.48563814593647692     
  0.14460000000000001         -3.4342265765673119E-002
  0.14490000000000003        -0.61742682187278386     
  0.14520000000000000         -1.2053074476801271     
  0.14550000000000002         -1.7341548335886099     
  0.14579999999999999         -2.1456352039921285     
  0.14610000000000001         -2.3890965014178960     
  0.14640000000000003         -2.4307419659366332     
  0.14670000000000000         -2.2551479069407918     
  0.14699999999999996         -1.8670037425276860     
  0.14729999999999999         -1.2931231291510201     
  0.14760000000000001        -0.57522619125355590     
  0.14789999999999998         0.22873577355971619     
  0.14820000000000000          1.0547011154178563     