  -1.4999999999999999E-002     0.0000000000000000     
  -1.4700000000000000E-002     0.0000000000000000     
  -1.4400000000000000E-002     0.0000000000000000     
  -1.4100000000000000E-002     0.0000000000000000     
  -1.3800000000000000E-002     0.0000000000000000     
  -1.3500000000000000E-002     0.0000000000000000     
  -1.3200000000000000E-002     0.0000000000000000     
  -1.2899999999999998E-002     0.0000000000000000     
  -1.2600000000000000E-002     0.0000000000000000     
  -1.2299999999999998E-002     0.0000000000000000     
  -1.2000000000000000E-002     0.0000000000000000     
  -1.1699999999999999E-002     0.0000000000000000     
  -1.1399999999999999E-002     0.0000000000000000     
  -1.1099999999999999E-002     0.0000000000000000     
  -1.0799999999999999E-002     0.0000000000000000     
  -1.0499999999999999E-002     0.0000000000000000     
  -1.0199999999999999E-002     0.0000000000000000     
  -9.8999999999999991E-003     0.0000000000000000     
  -9.5999999999999992E-003     0.0000000000000000     
  -9.2999999999999992E-003     0.0000000000000000     
  -8.9999999999999993E-003     0.0000000000000000     
  -8.6999999999999994E-003     0.0000000000000000     
  -8.3999999999999995E-003     0.0000000000000000     
  -8.0999999999999996E-003     0.0000000000000000     
  -7.7999999999999988E-003     0.0000000000000000     
  -7.4999999999999997E-003     0.0000000000000000     
  -7.1999999999999998E-003     0.0000000000000000     
  -6.8999999999999981E-003     0.0000000000000000     
  -6.5999999999999982E-003     0.0000000000000000     
  -6.3000000000000000E-003     0.0000000000000000     
  -6.0000000000000001E-003     0.0000000000000000     
  -5.6999999999999985E-003     0.0000000000000000     
  -5.3999999999999986E-003     0.0000000000000000     
  -5.1000000000000004E-003     0.0000000000000000     
  -4.7999999999999987E-003     0.0000000000000000     
  -4.5000000000000005E-003     0.0000000000000000     
  -4.1999999999999989E-003     0.0000000000000000     
  -3.8999999999999990E-003     0.0000000000000000     
  -3.5999999999999990E-003     0.0000000000000000     
  -3.2999999999999991E-003     0.0000000000000000     
  -2.9999999999999992E-003     0.0000000000000000     
  -2.6999999999999993E-003     0.0000000000000000     
  -2.3999999999999994E-003     0.0000000000000000     
  -2.0999999999999977E-003     0.0000000000000000     
  -1.7999999999999995E-003     0.0000000000000000     
  -1.4999999999999979E-003     0.0000000000000000     
  -1.1999999999999997E-003     0.0000000000000000     
  -8.9999999999999976E-004     0.0000000000000000     
  -5.9999999999999810E-004     0.0000000000000000     
  -2.9999999999999992E-004     0.0000000000000000     
   0.0000000000000000          0.0000000000000000     
   3.0000000000000165E-004     0.0000000000000000     
   5.9999999999999984E-004     0.0000000000000000     
   9.0000000000000149E-004     0.0000000000000000     
   1.2000000000000031E-003     0.0000000000000000     
   1.5000000000000013E-003     0.0000000000000000     
   1.8000000000000030E-003     0.0000000000000000     
   2.1000000000000012E-003     0.0000000000000000     
   2.3999999999999994E-003     0.0000000000000000     
   2.7000000000000010E-003     0.0000000000000000     
   2.9999999999999992E-003     0.0000000000000000     
   3.3000000000000008E-003     0.0000000000000000     
   3.6000000000000025E-003     0.0000000000000000     
   3.9000000000000007E-003     0.0000000000000000     
   4.2000000000000023E-003     0.0000000000000000     
   4.5000000000000005E-003     0.0000000000000000     
   4.7999999999999987E-003     0.0000000000000000     
   5.1000000000000004E-003     0.0000000000000000     
   5.4000000000000020E-003     0.0000000000000000     
   5.7000000000000037E-003     0.0000000000000000     
   5.9999999999999984E-003     0.0000000000000000     
   6.3000000000000000E-003     8.0508556284401537E-037
   6.6000000000000017E-003     2.0990494973721459E-036
   6.9000000000000034E-003     8.9045347243859868E-037
   7.2000000000000015E-003    -6.0449578881732760E-035
   7.5000000000000032E-003    -1.5871525872746228E-034
   7.8000000000000014E-003     2.7965942736348223E-034
   8.0999999999999996E-003     1.4471310751591557E-033
   8.4000000000000012E-003    -6.8453205379907374E-034
   8.7000000000000029E-003    -5.5578507993610266E-033
   9.0000000000000011E-003    -3.5307798516611026E-033
   9.2999999999999992E-003     2.2187561666262251E-032
   9.6000000000000009E-003     5.1621440625753230E-032
   9.8999999999999991E-003    -2.0716138963609154E-031
   1.0200000000000001E-002    -4.9337413959803247E-032
   1.0500000000000002E-002     5.8538068899197794E-030
   1.0800000000000004E-002    -4.0684087433823882E-029
   1.1099999999999999E-002     3.4374638620983002E-029
   1.1400000000000000E-002     1.0724774895808566E-027
   1.1700000000000002E-002    -6.3520682462109601E-027
   1.2000000000000004E-002     5.9041608820206427E-027
   1.2300000000000002E-002     1.0267223129272938E-025
   1.2600000000000000E-002    -5.7999607689029441E-025
   1.2900000000000002E-002     9.4194626641206983E-025
   1.3200000000000000E-002     4.2634744929138595E-024
   1.3500000000000002E-002    -3.0526285392073340E-023
   1.3800000000000003E-002     7.8366016615394314E-023
   1.4100000000000001E-002    -1.8407091035809836E-024
   1.4400000000000000E-002    -7.2039913824486316E-022
   1.4700000000000001E-002     2.7360961698559070E-021
   1.4999999999999999E-002    -4.4767903324293499E-021
   1.5300000000000001E-002    -3.3640411634185531E-021
   1.5600000000000003E-002     4.0194883775408102E-020
   1.5899999999999997E-002    -1.0974642041502023E-019
   1.6199999999999999E-002     1.0074842725985082E-019
   1.6500000000000001E-002     4.2494770288202005E-019
   1.6800000000000002E-002    -2.5731518837041777E-018
   1.7100000000000004E-002     8.8579198378057505E-018
   1.7400000000000006E-002    -2.6478218498306152E-017
   1.7700000000000000E-002     8.3610608988582186E-017
   1.8000000000000002E-002    -3.0122026851579818E-016
   1.8300000000000004E-002     1.1775284743722201E-015
   1.8600000000000005E-002    -4.6195609932297120E-015
   1.8900000000000000E-002     1.7294776315278718E-014
   1.9200000000000002E-002    -5.9559338526620625E-014
   1.9500000000000003E-002     1.7907645310198672E-013
   1.9799999999999998E-002    -4.1565752575967174E-013
   2.0100000000000000E-002     3.9407485521308905E-013
   2.0400000000000001E-002     2.6411078185573089E-012
   2.0700000000000003E-002    -1.9749046148431759E-011
   2.0999999999999998E-002     7.8285815330314534E-011
   2.1299999999999999E-002    -1.9776719151209932E-010
   2.1600000000000001E-002     2.1675106154361856E-010
   2.1900000000000003E-002     6.1639060522367117E-010
   2.2200000000000004E-002    -3.5115432783783262E-009
   2.2500000000000006E-002     6.6322636271820556E-009
   2.2800000000000001E-002     2.3191835119007465E-009
   2.3100000000000002E-002    -3.7461418855855300E-008
   2.3400000000000004E-002     5.4380450364988064E-008
   2.3699999999999999E-002     7.7689328747965192E-008
   2.4000000000000000E-002    -2.7790616741185659E-007
   2.4300000000000002E-002    -1.0500954772396653E-007
   2.4599999999999997E-002     8.8019709210129804E-007
   2.4900000000000005E-002     3.9563911968798493E-007
   2.5200000000000000E-002    -2.4014245809667045E-006
   2.5499999999999995E-002    -2.7556332042877330E-006
   2.5800000000000003E-002     6.2390859056904446E-006
   2.6099999999999998E-002     2.5943465516320430E-005
   2.6400000000000007E-002     5.1708673709072173E-005
   2.6700000000000002E-002     8.1835161836352199E-005
   2.6999999999999996E-002     1.2316551874391735E-004
   2.7300000000000005E-002     1.8938817083835602E-004
   2.7600000000000000E-002     2.9820040799677372E-004
   2.7900000000000008E-002     4.6900083543732762E-004
   2.8200000000000003E-002     7.2550692129880190E-004
   2.8499999999999998E-002     1.1027415748685598E-003
   2.8800000000000006E-002     1.6514116432517767E-003
   2.9100000000000001E-002     2.4414600338786840E-003
   2.9400000000000003E-002     3.5655531100928783E-003
   2.9700000000000004E-002     5.1409942097961903E-003
   3.0000000000000006E-002     7.3118559084832668E-003
   3.0300000000000001E-002     1.0251207277178764E-002
   3.0600000000000002E-002     1.4164268039166927E-002
   3.0900000000000004E-002     1.9285976886749268E-002
   3.1199999999999999E-002     2.5867868214845657E-002
   3.1500000000000007E-002     3.4161772578954697E-002
   3.1800000000000002E-002     4.4401027262210846E-002
   3.2099999999999997E-002     5.6770179420709610E-002
   3.2400000000000005E-002     7.1357905864715576E-002
   3.2700000000000000E-002     8.8107034564018250E-002
   3.3000000000000002E-002    0.10675685852766037     
   3.3300000000000003E-002    0.12678775191307068     
   3.3599999999999998E-002    0.14735701680183411     
   3.3900000000000000E-002    0.16725803911685944     
   3.4200000000000001E-002    0.18489317595958710     
   3.4500000000000003E-002    0.19827941060066223     
   3.4799999999999998E-002    0.20508480072021484     
   3.5099999999999999E-002    0.20271053910255432     
   3.5400000000000001E-002    0.18845084309577942     
   3.5699999999999996E-002    0.15969754755496979     
   3.6000000000000004E-002    0.11418078094720840     
   3.6299999999999999E-002     5.0262920558452606E-002
   3.6600000000000008E-002    -3.2783553004264832E-002
   3.6900000000000002E-002   -0.13449159264564514     
   3.7199999999999997E-002   -0.25291776657104492     
   3.7500000000000006E-002   -0.38455054163932800     
   3.7800000000000000E-002   -0.52419227361679077     
   3.8100000000000009E-002   -0.66511929035186768     
   3.8400000000000004E-002   -0.79930835962295532     
   3.8699999999999998E-002   -0.91781514883041382     
   3.9000000000000007E-002    -1.0114139318466187     
   3.9300000000000002E-002    -1.0711473226547241     
   3.9600000000000003E-002    -1.0891630649566650     
   3.9900000000000005E-002    -1.0593324899673462     
   4.0200000000000000E-002   -0.97798991203308105     
   4.0500000000000001E-002   -0.84438496828079224     
   4.0800000000000003E-002   -0.66100990772247314     
   4.1100000000000005E-002   -0.43372136354446411     
   4.1399999999999999E-002   -0.17145943641662598     
   4.1700000000000008E-002    0.11413154006004333     
   4.2000000000000003E-002    0.40937638282775879     
   4.2299999999999997E-002    0.69959914684295654     
   4.2600000000000006E-002    0.96982133388519287     
   4.2900000000000001E-002     1.2061372995376587     
   4.3200000000000002E-002     1.3963657617568970     
   4.3500000000000004E-002     1.5309925079345703     
   4.3799999999999999E-002     1.6038905382156372     
   4.4100000000000000E-002     1.6124074459075928     
   4.4400000000000002E-002     1.5578199625015259     
   4.4700000000000004E-002     1.4447494745254517     
   4.4999999999999998E-002     1.2810267210006714     
   4.5300000000000000E-002     1.0769366025924683     
   4.5600000000000002E-002    0.84432297945022583     
   4.5899999999999996E-002    0.59604877233505249     
   4.6200000000000005E-002    0.34474527835845947     
   4.6500000000000000E-002    0.10236715525388718     
   4.6799999999999994E-002   -0.12062973529100418     
   4.7100000000000003E-002   -0.31586572527885437     
   4.7399999999999998E-002   -0.47708711028099060     
   4.7700000000000006E-002   -0.60069918632507324     
   4.8000000000000001E-002   -0.68529236316680908     
   4.8300000000000010E-002   -0.73178648948669434     
   4.8600000000000004E-002   -0.74299955368041992     
   4.8899999999999999E-002   -0.72318655252456665     
   4.9200000000000008E-002   -0.67780143022537231     
   4.9500000000000002E-002   -0.61280059814453125     
   4.9800000000000011E-002   -0.53450566530227661     
   5.0100000000000006E-002   -0.44901201128959656     
   5.0400000000000000E-002   -0.36203059554100037     
   5.0700000000000009E-002   -0.27854284644126892     
   5.1000000000000004E-002   -0.20261788368225098     
   5.1299999999999998E-002   -0.13747696578502655     
   5.1600000000000007E-002    -8.5068307816982269E-002
   5.1900000000000002E-002    -4.6652041375637054E-002
   5.2200000000000010E-002    -2.2229176014661789E-002
   5.2500000000000005E-002    -1.1053906753659248E-002
   5.2800000000000000E-002    -1.1809627525508404E-002
   5.3099999999999994E-002    -2.2388322278857231E-002
   5.3400000000000003E-002    -4.0840107947587967E-002
   5.3699999999999998E-002    -6.4819119870662689E-002
   5.4000000000000006E-002    -9.2471070587635040E-002
   5.4300000000000001E-002   -0.12233695387840271     
   5.4599999999999996E-002   -0.15332713723182678     
   5.4900000000000004E-002   -0.18541210889816284     
   5.5199999999999999E-002   -0.21872538328170776     
   5.5499999999999994E-002   -0.25418063998222351     
   5.5800000000000002E-002   -0.29275608062744141     
   5.6099999999999997E-002   -0.33517292141914368     
   5.6400000000000006E-002   -0.38184729218482971     
   5.6700000000000000E-002   -0.43192613124847412     
   5.6999999999999995E-002   -0.48359382152557373     
   5.7300000000000004E-002   -0.53338712453842163     
   5.7599999999999998E-002   -0.57643955945968628     
   5.7900000000000007E-002   -0.60670495033264160     
   5.8200000000000002E-002   -0.61713403463363647     
   5.8499999999999996E-002   -0.60070395469665527     
   5.8800000000000005E-002   -0.55075865983963013     
   5.9100000000000000E-002   -0.46230387687683105     
   5.9400000000000008E-002   -0.33238825201988220     
   5.9700000000000003E-002   -0.16114416718482971     
   6.0000000000000012E-002     4.7952689230442047E-002
   6.0300000000000006E-002    0.28804695606231689     
   6.0600000000000001E-002    0.54861319065093994     
   6.0900000000000010E-002    0.81685394048690796     
   6.1200000000000004E-002     1.0776189565658569     
   6.1500000000000013E-002     1.3152916431427002     
   6.1800000000000008E-002     1.5147272348403931     
   6.2100000000000002E-002     1.6622267961502075     
   6.2399999999999997E-002     1.7474746704101562     
   6.2700000000000006E-002     1.7632929086685181     
   6.3000000000000000E-002     1.7073808908462524     
   6.3300000000000009E-002     1.5817059278488159     
   6.3600000000000004E-002     1.3924940824508667     
   6.3899999999999998E-002     1.1500920057296753     
   6.4199999999999993E-002    0.86724913120269775     
   6.4500000000000002E-002    0.55917537212371826     
   6.4800000000000010E-002    0.24129879474639893     
   6.5100000000000005E-002    -7.1073330938816071E-002
   6.5400000000000000E-002   -0.36400747299194336     
   6.5700000000000008E-002   -0.62608689069747925     
   6.5999999999999989E-002   -0.84824681282043457     
   6.6299999999999998E-002    -1.0248562097549438     
   6.6600000000000006E-002    -1.1529662609100342     
   6.6900000000000001E-002    -1.2326033115386963     
   6.7199999999999996E-002    -1.2660304307937622     
   6.7500000000000004E-002    -1.2573521137237549     
   6.7800000000000013E-002    -1.2119870185852051     
   6.8099999999999994E-002    -1.1358331441879272     
   6.8400000000000002E-002    -1.0354273319244385     
   6.8700000000000011E-002   -0.91681456565856934     
   6.8999999999999992E-002   -0.78620517253875732     
   6.9300000000000000E-002   -0.64929032325744629     
   6.9600000000000009E-002   -0.51145410537719727     
   6.9900000000000004E-002   -0.37813544273376465     
   7.0199999999999999E-002   -0.25408512353897095     
   7.0500000000000007E-002   -0.14437128603458405     
   7.0800000000000016E-002    -5.3252205252647400E-002
   7.1099999999999997E-002     1.5330605208873749E-002
   7.1400000000000005E-002     5.8200202882289886E-002
   7.1700000000000000E-002     7.3826357722282410E-002
   7.1999999999999995E-002     6.1755310744047165E-002
   7.2300000000000003E-002     2.3937297984957695E-002
   7.2600000000000012E-002    -3.6058738827705383E-002
   7.2900000000000006E-002   -0.11234872788190842     
   7.3200000000000001E-002   -0.19721697270870209     
   7.3499999999999996E-002   -0.28180095553398132     
   7.3800000000000004E-002   -0.35609576106071472     
   7.4099999999999999E-002   -0.41061335802078247     
   7.4400000000000008E-002   -0.43624937534332275     
   7.4700000000000003E-002   -0.42588368058204651     
   7.5000000000000011E-002   -0.37480717897415161     
   7.5299999999999992E-002   -0.28103342652320862     
   7.5600000000000001E-002   -0.14629808068275452     
   7.5900000000000009E-002     2.4854131042957306E-002
   7.6200000000000004E-002    0.22434039413928986     
   7.6499999999999999E-002    0.44175109267234802     
   7.6800000000000007E-002    0.66485112905502319     
   7.7099999999999988E-002    0.88011121749877930     
   7.7399999999999997E-002     1.0744658708572388     
   7.7700000000000005E-002     1.2352455854415894     
   7.8000000000000014E-002     1.3520615100860596     
   7.8299999999999995E-002     1.4168920516967773     
   7.8600000000000003E-002     1.4248268604278564     
   7.8900000000000012E-002     1.3748003244400024     
   7.9199999999999993E-002     1.2688744068145752     
   7.9500000000000001E-002     1.1130338907241821     
   7.9800000000000010E-002    0.91589766740798950     
   8.0100000000000018E-002    0.68873596191406250     
   8.0399999999999999E-002    0.44446635246276855     
   8.0700000000000008E-002    0.19662667810916901     
   8.1000000000000003E-002    -4.1097950190305710E-002
   8.1299999999999997E-002   -0.25655969977378845     
   8.1600000000000006E-002   -0.43901723623275757     
   8.1900000000000014E-002   -0.58077877759933472     
   8.2199999999999995E-002   -0.67698329687118530     
   8.2500000000000004E-002   -0.72622752189636230     
   8.2799999999999999E-002   -0.73077952861785889     
   8.3100000000000007E-002   -0.69576919078826904     
   8.3400000000000002E-002   -0.62977916002273560     
   8.3700000000000011E-002   -0.54307955503463745     
   8.4000000000000005E-002   -0.44805666804313660     
   8.4300000000000000E-002   -0.35769861936569214     
   8.4599999999999995E-002   -0.28455471992492676     
   8.4900000000000003E-002   -0.24070876836776733     
   8.5199999999999998E-002   -0.23547558486461639     
   8.5500000000000007E-002   -0.27605348825454712     
   8.5800000000000001E-002   -0.36579230427742004     
   8.6100000000000010E-002   -0.50398653745651245     
   8.6399999999999991E-002   -0.68600124120712280     
   8.6699999999999999E-002   -0.90214151144027710     
   8.7000000000000008E-002    -1.1391366720199585     
   8.7300000000000003E-002    -1.3795591592788696     
   8.7599999999999997E-002    -1.6032812595367432     
   8.7900000000000006E-002    -1.7886413335800171     
   8.8200000000000014E-002    -1.9132026433944702     
   8.8499999999999995E-002    -1.9562057256698608     
   8.8800000000000004E-002    -1.8991990089416504     
   8.9100000000000013E-002    -1.7286922931671143     
   8.9399999999999993E-002    -1.4369159936904907     
   8.9700000000000002E-002    -1.0233000516891479     
   9.0000000000000011E-002   -0.49553385376930237     
   9.0299999999999991E-002    0.13056127727031708     
   9.0600000000000000E-002    0.83074963092803955     
   9.0900000000000009E-002     1.5739263296127319     
   9.1200000000000017E-002     2.3228549957275391     
   9.1499999999999998E-002     3.0369317531585693     
   9.1800000000000007E-002     3.6743845939636230     
   9.2100000000000001E-002     4.1948447227478027     
   9.2399999999999996E-002     4.5630726814270020     
   9.2700000000000005E-002     4.7503890991210938     
   9.3000000000000013E-002     4.7388000488281250     
   9.3300000000000008E-002     4.5211243629455566     
   9.3600000000000003E-002     4.1027817726135254     
   9.3899999999999997E-002     3.5020909309387207     
   9.4200000000000006E-002     2.7479681968688965     
   9.4500000000000001E-002     1.8802032470703125     
   9.4800000000000009E-002    0.94451981782913208     
   9.5100000000000004E-002    -9.3140602111816406E-003
   9.5399999999999999E-002   -0.93147611618041992     
   9.5699999999999993E-002    -1.7766134738922119     
   9.6000000000000002E-002    -2.5054805278778076     
   9.6300000000000011E-002    -3.0898592472076416     
   9.6600000000000005E-002    -3.5121932029724121     
   9.6900000000000000E-002    -3.7678377628326416     
   9.7200000000000009E-002    -3.8639681339263916     
   9.7499999999999989E-002    -3.8174645900726318     
   9.7799999999999998E-002    -3.6541111469268799     
   9.8100000000000007E-002    -3.4033420085906982     
   9.8400000000000015E-002    -3.0966217517852783     
   9.8699999999999996E-002    -2.7632718086242676     
   9.9000000000000005E-002    -2.4273326396942139     
   9.9300000000000013E-002    -2.1066443920135498     
   9.9599999999999994E-002    -1.8098945617675781     
   9.9900000000000003E-002    -1.5384825468063354     
  0.10020000000000001         -1.2859721183776855     
  0.10049999999999999         -1.0406891107559204     
  0.10080000000000000        -0.78828740119934082     
  0.10110000000000001        -0.51355719566345215     
  0.10140000000000000        -0.20440916717052460     
  0.10170000000000000         0.14699444174766541     
  0.10200000000000001         0.54156708717346191     
  0.10230000000000002         0.97295850515365601     
  0.10260000000000000          1.4276062250137329     
  0.10290000000000001          1.8848936557769775     
  0.10320000000000000          2.3199901580810547     
  0.10350000000000001          2.7046923637390137     
  0.10380000000000000          3.0110514163970947     
  0.10410000000000001          3.2134864330291748     
  0.10440000000000001          3.2911579608917236     
  0.10470000000000000          3.2304854393005371     
  0.10500000000000000          3.0258109569549561     
  0.10530000000000000          2.6810710430145264     
  0.10560000000000000          2.2093768119812012     
  0.10590000000000001          1.6324599981307983     
  0.10620000000000000         0.97952270507812500     
  0.10650000000000001         0.28523582220077515     
  0.10679999999999999        -0.41240391135215759     
  0.10710000000000000         -1.0747100114822388     
  0.10740000000000001         -1.6647095680236816     
  0.10770000000000000         -2.1501350402832031     
  0.10800000000000000         -2.5048286914825439     
  0.10830000000000001         -2.7109556198120117     
  0.10859999999999999         -2.7603442668914795     
  0.10890000000000000         -2.6541440486907959     
  0.10920000000000001         -2.4037640094757080     
  0.10950000000000001         -2.0288517475128174     
  0.10979999999999999         -1.5563979148864746     
  0.11009999999999999         -1.0191797018051147     
  0.11040000000000001        -0.45207411050796509     
  0.11070000000000001         0.10803081095218658     
  0.11100000000000000         0.62632393836975098     
  0.11130000000000000          1.0713540315628052     
  0.11160000000000002          1.4157991409301758     
  0.11190000000000001          1.6398571729660034     
  0.11220000000000001          1.7294977903366089     
  0.11250000000000000          1.6788119077682495     
  0.11280000000000000          1.4893548488616943     
  0.11309999999999999          1.1695607900619507     
  0.11340000000000001         0.73611789941787720     
  0.11369999999999998         0.21117025613784790     
  0.11400000000000000        -0.37659776210784912     
  0.11430000000000000        -0.99349898099899292     
  0.11460000000000002         -1.6024852991104126     
  0.11489999999999999         -2.1637322902679443     
  0.11520000000000001         -2.6378691196441650     
  0.11550000000000001         -2.9872419834136963     
  0.11580000000000000         -3.1789917945861816     
  0.11609999999999999         -3.1876268386840820     
  0.11640000000000002         -2.9974899291992188     
  0.11670000000000001         -2.6047239303588867     
  0.11700000000000001         -2.0190320014953613     
  0.11730000000000000         -1.2638293504714966     
  0.11760000000000000        -0.37550315260887146     
  0.11789999999999999         0.59766370058059692     
  0.11820000000000001          1.5995793342590332     
  0.11850000000000001          2.5689597129821777     
  0.11880000000000000          3.4444177150726318     
  0.11910000000000000          4.1692447662353516     
  0.11940000000000002          4.6948847770690918     
  0.11970000000000001          4.9860568046569824     
  0.12000000000000001          5.0222859382629395     
  0.12030000000000000          4.8002753257751465     
  0.12060000000000000          4.3343400955200195     
  0.12089999999999999          3.6541459560394287     
  0.12119999999999999          2.8038208484649658     
  0.12150000000000001          1.8377317190170288     
  0.12180000000000001         0.81644451618194580     
  0.12210000000000000        -0.19652812182903290     
  0.12239999999999999         -1.1404577493667603     
  0.12270000000000002         -1.9599894285202026     
  0.12300000000000001         -2.6093692779541016     
  0.12330000000000001         -3.0548274517059326     
  0.12360000000000000         -3.2758407592773438     
  0.12390000000000000         -3.2667782306671143     
  0.12419999999999999         -3.0362479686737061     
  0.12450000000000001         -2.6066205501556396     
  0.12480000000000001         -2.0122344493865967     
  0.12509999999999999         -1.2975978851318359     
  0.12540000000000001        -0.51406383514404297     
  0.12570000000000003         0.28279459476470947     
  0.12600000000000000          1.0367996692657471     
  0.12630000000000002          1.6952649354934692     
  0.12659999999999999          2.2110931873321533     
  0.12690000000000001          2.5477578639984131     
  0.12719999999999998          2.6806740760803223     
  0.12750000000000000          2.5998182296752930     
  0.12780000000000002          2.3110260963439941     
  0.12809999999999999          1.8348414897918701     
  0.12840000000000001          1.2068787813186646     
  0.12869999999999998         0.47355306148529053     
  0.12900000000000000        -0.30997166037559509     
  0.12930000000000003         -1.0845888853073120     
  0.12959999999999999         -1.7926236391067505     
  0.12990000000000002         -2.3811886310577393     
  0.13019999999999998         -2.8084220886230469     
  0.13050000000000000         -3.0457253456115723     
  0.13080000000000003         -3.0805637836456299     
  0.13109999999999999         -2.9179530143737793     
  0.13140000000000002         -2.5786535739898682     
  0.13169999999999998         -2.0984461307525635     
  0.13200000000000001         -1.5236065387725830     
  0.13229999999999997        -0.90634018182754517     
  0.13260000000000000        -0.30053946375846863     
  0.13290000000000002         0.24401839077472687     
  0.13319999999999999         0.68624687194824219     
  0.13350000000000001         0.99684435129165649     
  0.13380000000000003          1.1612442731857300     
  0.13410000000000000          1.1804535388946533     
  0.13440000000000002          1.0693793296813965     
  0.13469999999999999         0.85594838857650757     
  0.13500000000000001         0.57627898454666138     
  0.13529999999999998         0.27081418037414551     
  0.13560000000000000         -1.9789632409811020E-002
  0.13590000000000002        -0.26090818643569946     
  0.13619999999999999        -0.42518413066864014     
  0.13650000000000001        -0.49772655963897705     
  0.13680000000000003        -0.47671788930892944     
  0.13710000000000000        -0.37220454216003418     
  0.13740000000000002        -0.20674081146717072     
  0.13769999999999999         -9.9740400910377502E-003
  0.13800000000000001         0.18304322659969330     
  0.13829999999999998         0.33737260103225708     
  0.13860000000000000         0.42257982492446899     
  0.13890000000000002         0.41532945632934570     
  0.13919999999999999         0.30428564548492432     
  0.13950000000000001          8.9575126767158508E-002
  0.13979999999999998        -0.21553970873355865     
  0.14010000000000000        -0.58612424135208130     
  0.14040000000000002        -0.98898166418075562     
  0.14069999999999999         -1.3851746320724487     
  0.14100000000000001         -1.7350677251815796     
  0.14130000000000004         -2.0019693374633789     
  0.14160000000000000         -2.1564648151397705     
  0.14189999999999997         -2.1790750026702881     
  0.14219999999999999         -2.0624694824218750     
  0.14250000000000002         -1.8119975328445435     
  0.14279999999999998         -1.4448511600494385     
  0.14310000000000000        -0.98792147636413574     
  0.14339999999999997        -0.47452598810195923     
  0.14369999999999999          5.8171186596155167E-002
  0.14400000000000002         0.57427924871444702     
  0.14429999999999998          1.0415252447128296     
  0.14460000000000001          1.4340523481369019     
  0.14490000000000003          1.7354199886322021     
  0.14520000000000000          1.9374155998229980     
  0.14550000000000002          2.0412371158599854     
  0.14579999999999999          2.0556786060333252     
  0.14610000000000001          1.9944783449172974     
  0.14640000000000003          1.8757506608963013     
  0.14670000000000000          1.7174241542816162     
  0.14699999999999996          1.5369704961776733     
  0.14729999999999999          1.3494786024093628     
  0.14760000000000001          1.1657576560974121     
  0.14789999999999998         0.99409395456314087     
  0.14820000000000000         0.83908498287200928     