  -1.4999999999999999E-002     0.0000000000000000     
  -1.4700000000000000E-002     0.0000000000000000     
  -1.4400000000000000E-002     0.0000000000000000     
  -1.4100000000000000E-002     0.0000000000000000     
  -1.3800000000000000E-002     0.0000000000000000     
  -1.3500000000000000E-002     0.0000000000000000     
  -1.3200000000000000E-002     0.0000000000000000     
  -1.2899999999999998E-002     0.0000000000000000     
  -1.2600000000000000E-002     0.0000000000000000     
  -1.2299999999999998E-002     0.0000000000000000     
  -1.2000000000000000E-002     0.0000000000000000     
  -1.1699999999999999E-002     0.0000000000000000     
  -1.1399999999999999E-002     0.0000000000000000     
  -1.1099999999999999E-002     0.0000000000000000     
  -1.0799999999999999E-002     0.0000000000000000     
  -1.0499999999999999E-002     0.0000000000000000     
  -1.0199999999999999E-002     0.0000000000000000     
  -9.8999999999999991E-003     0.0000000000000000     
  -9.5999999999999992E-003     0.0000000000000000     
  -9.2999999999999992E-003     0.0000000000000000     
  -8.9999999999999993E-003     0.0000000000000000     
  -8.6999999999999994E-003     0.0000000000000000     
  -8.3999999999999995E-003     0.0000000000000000     
  -8.0999999999999996E-003     0.0000000000000000     
  -7.7999999999999988E-003     0.0000000000000000     
  -7.4999999999999997E-003     0.0000000000000000     
  -7.1999999999999998E-003     0.0000000000000000     
  -6.8999999999999981E-003     0.0000000000000000     
  -6.5999999999999982E-003     0.0000000000000000     
  -6.3000000000000000E-003     0.0000000000000000     
  -6.0000000000000001E-003     0.0000000000000000     
  -5.6999999999999985E-003    -3.5320792780139901E-038
  -5.3999999999999986E-003    -1.0516750356590600E-036
  -5.1000000000000004E-003     1.5679914804020697E-036
  -4.7999999999999987E-003     8.2665029066055983E-036
  -4.5000000000000005E-003    -1.2983043080442525E-034
  -4.1999999999999989E-003    -8.0017160738747012E-034
  -3.8999999999999990E-003     4.9715383468607798E-033
  -3.5999999999999990E-003     8.2933272676418479E-033
  -3.2999999999999991E-003    -1.0507106266577662E-031
  -2.9999999999999992E-003    -6.8320643445793967E-032
  -2.6999999999999993E-003     1.6789144054906160E-030
  -2.3999999999999994E-003    -2.7037229448809086E-031
  -2.0999999999999977E-003    -1.8734629973392424E-029
  -1.7999999999999995E-003     1.9846653058857343E-029
  -1.4999999999999979E-003     1.3643781901845749E-028
  -1.1999999999999997E-003    -3.2381546569528766E-028
  -8.9999999999999976E-004    -4.3048416123629947E-028
  -5.9999999999999810E-004     2.7457687393980062E-027
  -2.9999999999999992E-004    -2.9057555973868490E-027
   0.0000000000000000         -9.0414932888034332E-027
   3.0000000000000165E-004     3.9113867433369762E-026
   5.9999999999999984E-004    -5.5169238517564046E-026
   9.0000000000000149E-004    -7.5655830359865418E-026
   1.2000000000000031E-003     5.9030934230252302E-025
   1.5000000000000013E-003    -1.3945901535673121E-024
   1.8000000000000030E-003     6.1120361997755440E-025
   2.1000000000000012E-003     6.9977870194130388E-024
   2.3999999999999994E-003    -2.5815195758047319E-023
   2.7000000000000010E-003     3.9424622123719256E-023
   2.9999999999999992E-003     2.0550787237952629E-023
   3.3000000000000008E-003    -2.6596463982400787E-022
   3.6000000000000025E-003     7.0913584485202181E-022
   3.9000000000000007E-003    -9.4167302115749518E-022
   4.2000000000000023E-003    -1.9060453980668942E-022
   4.5000000000000005E-003     4.4201538398358448E-021
   4.7999999999999987E-003    -1.2710135975187104E-020
   5.1000000000000004E-003     2.2365015807871510E-020
   5.4000000000000020E-003    -2.3529001994962600E-020
   5.7000000000000037E-003    -1.5246106177707677E-021
   5.9999999999999984E-003     6.9796027215389840E-020
   6.3000000000000000E-003    -1.7127533804969038E-019
   6.6000000000000017E-003     2.1968439895478078E-019
   6.9000000000000034E-003     1.5199295659253502E-020
   7.2000000000000015E-003    -1.0012085532667944E-018
   7.5000000000000032E-003     3.7890572964903840E-018
   7.8000000000000014E-003    -1.2068897957982757E-017
   8.0999999999999996E-003     4.2865049419730039E-017
   8.4000000000000012E-003    -1.7490691823505337E-016
   8.7000000000000029E-003     7.4860977073900745E-016
   9.0000000000000011E-003    -3.1347503183601395E-015
   9.2999999999999992E-003     1.2420344305861543E-014
   9.6000000000000009E-003    -4.5308848457143548E-014
   9.8999999999999991E-003     1.4532542096780020E-013
   1.0200000000000001E-002    -3.6839018843883012E-013
   1.0500000000000002E-002     4.7060455829803946E-013
   1.0800000000000004E-002     1.7896767315518854E-012
   1.1099999999999999E-002    -1.6229763406374452E-011
   1.1400000000000000E-002     6.8981551684582250E-011
   1.1700000000000002E-002    -1.8302824226658981E-010
   1.2000000000000004E-002     2.1184634957294642E-010
   1.2300000000000002E-002     5.8536575919901428E-010
   1.2600000000000000E-002    -3.4672416428133711E-009
   1.2900000000000002E-002     6.6176175204375308E-009
   1.3200000000000000E-002     2.8666526888316806E-009
   1.3500000000000002E-002    -4.0025894767956972E-008
   1.3800000000000003E-002     5.5901220723802090E-008
   1.4100000000000001E-002     9.3184720745548938E-008
   1.4400000000000000E-002    -3.0927835276288698E-007
   1.4700000000000001E-002    -1.5949147024001239E-007
   1.4999999999999999E-002     1.0267207592657476E-006
   1.5300000000000001E-002     5.9213563746806809E-007
   1.5600000000000003E-002    -2.8251555257021539E-006
   1.5899999999999997E-002    -3.6163083068784001E-006
   1.6199999999999999E-002     7.9025056209955998E-006
   1.6500000000000001E-002     3.6914086630985892E-005
   1.6800000000000002E-002     7.9995031136890615E-005
   1.7100000000000004E-002     1.3189123535590087E-004
   1.7400000000000006E-002     1.9815296022759107E-004
   1.7700000000000000E-002     3.0063324889470500E-004
   1.8000000000000002E-002     4.7028565333905731E-004
   1.8300000000000004E-002     7.3673691980436287E-004
   1.8600000000000005E-002     1.1323196775634911E-003
   1.8900000000000000E-002     1.7100697003201645E-003
   1.9200000000000002E-002     2.5523169070407747E-003
   1.9500000000000003E-002     3.7692096350787907E-003
   1.9799999999999998E-002     5.5024617696822764E-003
   2.0100000000000000E-002     7.9278393245909573E-003
   2.0400000000000001E-002     1.1257051930336159E-002
   2.0700000000000003E-002     1.5745251315039566E-002
   2.0999999999999998E-002     2.1692894007302566E-002
   2.1299999999999999E-002     2.9437447941673356E-002
   2.1600000000000001E-002     3.9332077662827425E-002
   2.1900000000000003E-002     5.1713740933323260E-002
   2.2200000000000004E-002     6.6865420445783919E-002
   2.2500000000000006E-002     8.4967715059268034E-002
   2.2800000000000001E-002    0.10603024383040571     
   2.3100000000000002E-002    0.12980402237575550     
   2.3400000000000004E-002    0.15568424057099239     
   2.3699999999999999E-002    0.18262305908166621     
   2.4000000000000000E-002    0.20905948312361211     
   2.4300000000000002E-002    0.23284999590636879     
   2.4599999999999997E-002    0.25124155692815187     
   2.4900000000000005E-002    0.26091877547154496     
   2.5200000000000000E-002    0.25810275893568591     
   2.5499999999999995E-002    0.23874723313060553     
   2.5800000000000003E-002    0.19880675662405611     
   2.6099999999999998E-002    0.13461208027931537     
   2.6400000000000007E-002     4.3326380419757671E-002
   2.6700000000000002E-002    -7.6585599834873452E-002
   2.6999999999999996E-002   -0.22488560701408211     
   2.7300000000000005E-002   -0.39911754843542724     
   2.7600000000000000E-002   -0.59428222797242114     
   2.7900000000000008E-002   -0.80269425118373050     
   2.8200000000000003E-002    -1.0140528489570606     
   2.8499999999999998E-002    -1.2158260542152419     
   2.8800000000000006E-002    -1.3938291607929187     
   2.9100000000000001E-002    -1.5331092714269872     
   2.9400000000000003E-002    -1.6190783163622626     
   2.9700000000000004E-002    -1.6387312331200903     
   3.0000000000000006E-002    -1.5819352571252452     
   3.0300000000000001E-002    -1.4425844555052123     
   3.0600000000000002E-002    -1.2194957093817109     
   3.0900000000000004E-002   -0.91709485746415709     
   3.1199999999999999E-002   -0.54550573753590381     
   3.1500000000000007E-002   -0.12020716476946713     
   3.1800000000000002E-002    0.33868950362987427     
   3.2099999999999997E-002    0.80793726482972872     
   3.2400000000000005E-002     1.2624940950747501     
   3.2700000000000000E-002     1.6775501898802148     
   3.3000000000000002E-002     2.0303923162061039     
   3.3300000000000003E-002     2.3018585807692347     
   3.3599999999999998E-002     2.4781358613094966     
   3.3900000000000000E-002     2.5513923300254362     
   3.4200000000000001E-002     2.5204504342234770     
   3.4500000000000003E-002     2.3907241221858584     
   3.4799999999999998E-002     2.1733526045175680     
   3.5099999999999999E-002     1.8845092339606921     
   3.5400000000000001E-002     1.5437235769693771     
   3.5699999999999996E-002     1.1723698821132196     
   3.6000000000000004E-002    0.79223577370462905     
   3.6299999999999999E-002    0.42365735382874892     
   3.6600000000000008E-002     8.4570551135978000E-002
   3.6900000000000002E-002   -0.21056837630898784     
   3.7199999999999997E-002   -0.45158009509136043     
   3.7500000000000006E-002   -0.63233496098465025     
   3.7800000000000000E-002   -0.75115788438339237     
   3.8100000000000009E-002   -0.81008867774095350     
   3.8400000000000004E-002   -0.81423100763588252     
   3.8699999999999998E-002   -0.77147574046999523     
   3.9000000000000007E-002   -0.69116609646658134     
   3.9300000000000002E-002   -0.58380149976022011     
   3.9600000000000003E-002   -0.46035384295802828     
   3.9900000000000005E-002   -0.33157550056522389     
   4.0200000000000000E-002   -0.20812393181218214     
   4.0500000000000001E-002    -9.9911934302415406E-002
   4.0800000000000003E-002    -1.6229514390362132E-002
   4.1100000000000005E-002     3.4367490790327970E-002
   4.1399999999999999E-002     4.4439298476090183E-002
   4.1700000000000008E-002     7.5930169230218336E-003
   4.2000000000000003E-002    -8.0910373557818271E-002
   4.2299999999999997E-002   -0.22380835685668465     
   4.2600000000000006E-002   -0.42135317743283629     
   4.2900000000000001E-002   -0.67058631581063111     
   4.3200000000000002E-002   -0.96493493028964394     
   4.3500000000000004E-002    -1.2937497946771188     
   4.3799999999999999E-002    -1.6421896823467037     
   4.4100000000000000E-002    -1.9915038163442418     
   4.4400000000000002E-002    -2.3196536243700905     
   4.4700000000000004E-002    -2.6022745056294667     
   4.4999999999999998E-002    -2.8141513368480986     
   4.5300000000000000E-002    -2.9308801589261435     
   4.5600000000000002E-002    -2.9308088135893797     
   4.5899999999999996E-002    -2.7971483604381575     
   4.6200000000000005E-002    -2.5196491515418984     
   4.6500000000000000E-002    -2.0960643361753029     
   4.6799999999999994E-002    -1.5332122421256216     
   4.7100000000000003E-002   -0.84693470219757261     
   4.7399999999999998E-002    -6.2150184350441506E-002
   4.7700000000000006E-002    0.78836103365300403     
   4.8000000000000001E-002     1.6660484760819543     
   4.8300000000000010E-002     2.5282509177448560     
   4.8600000000000004E-002     3.3316021875692030     
   4.8899999999999999E-002     4.0344279087435524     
   4.9200000000000008E-002     4.5996776404948321     
   4.9500000000000002E-002     4.9976100559873373     
   4.9800000000000011E-002     5.2073161065722502     
   5.0100000000000006E-002     5.2187861581812740     
   5.0400000000000000E-002     5.0329855177305376     
   5.0700000000000009E-002     4.6616543969672364     
   5.1000000000000004E-002     4.1266686076730110     
   5.1299999999999998E-002     3.4577081252560049     
   5.1600000000000007E-002     2.6904129612570529     
   5.1900000000000002E-002     1.8633560775206028     
   5.2200000000000010E-002     1.0150319478858252     
   5.2500000000000005E-002    0.18155066412551157     
   5.2800000000000000E-002   -0.60642622495380927     
   5.3099999999999994E-002    -1.3252356455632608     
   5.3400000000000003E-002    -1.9590286107832426     
   5.3699999999999998E-002    -2.5009068883177861     
   5.4000000000000006E-002    -2.9515665661382400     
   5.4300000000000001E-002    -3.3180992268244580     
   5.4599999999999996E-002    -3.6126668681641547     
   5.4900000000000004E-002    -3.8487308101027224     
   5.5199999999999999E-002    -4.0397541492724116     
   5.5499999999999994E-002    -4.1958257974245612     
   5.5800000000000002E-002    -4.3215759394273903     
   5.6099999999999997E-002    -4.4157837518213512     
   5.6400000000000006E-002    -4.4694835772795614     
   5.6700000000000000E-002    -4.4676347713657094     
   5.6999999999999995E-002    -4.3902925539477735     
   5.7300000000000004E-002    -4.2145079816134512     
   5.7599999999999998E-002    -3.9182931747057097     
   5.7900000000000007E-002    -3.4827928888127246     
   5.8200000000000002E-002    -2.8961745672567361     
   5.8499999999999996E-002    -2.1563673520474467     
   5.8800000000000005E-002    -1.2727280268720769     
   5.9100000000000000E-002   -0.26734525561199973     
   5.9400000000000008E-002    0.82563057073516433     
   5.9700000000000003E-002     1.9612220438262256     
   6.0000000000000012E-002     3.0861238887488867     
   6.0300000000000006E-002     4.1423324640021093     
   6.0600000000000001E-002     5.0712755453061504     
   6.0900000000000010E-002     5.8176811142778604     
   6.1200000000000004E-002     6.3343712366699378     
   6.1500000000000013E-002     6.5853687217773427     
   6.1800000000000008E-002     6.5489995501216072     
   6.2100000000000002E-002     6.2198291252043987     
   6.2399999999999997E-002     5.6090224960292403     
   6.2700000000000006E-002     4.7444686183998641     
   6.3000000000000000E-002     3.6689004912192402     
   6.3300000000000009E-002     2.4376190416958172     
   6.3600000000000004E-002     1.1156796369907056     
   6.3899999999999998E-002   -0.22634961123646624     
   6.4199999999999993E-002    -1.5161600968625493     
   6.4500000000000002E-002    -2.6837875362798087     
   6.4800000000000010E-002    -3.6661763082621377     
   6.5100000000000005E-002    -4.4101864436339042     
   6.5400000000000000E-002    -4.8762752807919014     
   6.5700000000000008E-002    -5.0409342665819281     
   6.5999999999999989E-002    -4.8979259874545704     
   6.6299999999999998E-002    -4.4594912004884719     
   6.6600000000000006E-002    -3.7555078933645234     
   6.6900000000000001E-002    -2.8318886801314491     
   6.7199999999999996E-002    -1.7486734798962047     
   6.7500000000000004E-002   -0.57556417557854900     
   6.7800000000000013E-002    0.61167592122917647     
   6.8099999999999994E-002     1.7359762581040670     
   6.8400000000000002E-002     2.7246289130105907     
   6.8700000000000011E-002     3.5128398081387786     
   6.8999999999999992E-002     4.0494293552637686     
   6.9300000000000000E-002     4.2996811270567576     
   6.9600000000000009E-002     4.2477047284351386     
   6.9900000000000004E-002     3.8989732804519264     
   7.0199999999999999E-002     3.2789440638772405     
   7.0500000000000007E-002     2.4323202830627828     
   7.0800000000000016E-002     1.4204988601456563     
   7.1099999999999997E-002    0.31667578045929901     
   7.1400000000000005E-002   -0.79809297405976842     
   7.1700000000000000E-002    -1.8412422946289837     
   7.1999999999999995E-002    -2.7349440160982681     
   7.2300000000000003E-002    -3.4109037086721941     
   7.2600000000000012E-002    -3.8169353147717970     
   7.2900000000000006E-002    -3.9204607649791967     
   7.3200000000000001E-002    -3.7115316001499536     
   7.3499999999999996E-002    -3.2048255994770614     
   7.3800000000000004E-002    -2.4376365908684745     
   7.4099999999999999E-002    -1.4686524461439703     
   7.4400000000000008E-002   -0.37310422011917055     
   7.4700000000000003E-002    0.76386407908150922     
   7.5000000000000011E-002     1.8526509761992500     
   7.5299999999999992E-002     2.8080249344546075     
   7.5600000000000001E-002     3.5554445760277957     
   7.5900000000000009E-002     4.0374966640837044     
   7.6200000000000004E-002     4.2202146954109168     
   7.6499999999999999E-002     4.0937659468150400     
   7.6800000000000007E-002     3.6751077907233025     
   7.7099999999999988E-002     3.0054336288543091     
   7.7399999999999997E-002     2.1455391308264389     
   7.7700000000000005E-002     1.1718790296451651     
   7.8000000000000014E-002    0.16686165175338097     
   7.8299999999999995E-002   -0.78713064137853195     
   7.8600000000000003E-002    -1.6159795483521364     
   7.8900000000000012E-002    -2.2613304392656914     
   7.9199999999999993E-002    -2.6836749874119192     
   7.9500000000000001E-002    -2.8674500088711312     
   7.9800000000000010E-002    -2.8199187836550124     
   8.0100000000000018E-002    -2.5696889050569780     
   8.0399999999999999E-002    -2.1636131354987320     
   8.0700000000000008E-002    -1.6595010960516081     
   8.1000000000000003E-002    -1.1210640596135408     
   8.1299999999999997E-002   -0.61041560099088521     
   8.1600000000000006E-002   -0.18203019225827965     
   8.1900000000000014E-002    0.12176816356166231     
   8.2199999999999995E-002    0.27464718091395612     
   8.2500000000000004E-002    0.26694581157474317     
   8.2799999999999999E-002    0.10553060306842443     
   8.3100000000000007E-002   -0.18890555324843783     
   8.3400000000000002E-002   -0.58538075572460713     
   8.3700000000000011E-002    -1.0469417322498806     
   8.4000000000000005E-002    -1.5352243450130345     
   8.4300000000000000E-002    -2.0143807862427963     
   8.4599999999999995E-002    -2.4548045423925799     
   8.4900000000000003E-002    -2.8343048074626864     
   8.5199999999999998E-002    -3.1393434663281425     
   8.5500000000000007E-002    -3.3646874365063866     
   8.5800000000000001E-002    -3.5111280002395233     
   8.6100000000000010E-002    -3.5843877280535423     
   8.6399999999999991E-002    -3.5914744490780066     
   8.6699999999999999E-002    -3.5391981612807371     
   8.7000000000000008E-002    -3.4327136932555504     
   8.7300000000000003E-002    -3.2729815160367792     
   8.7599999999999997E-002    -3.0583613141353396     
   8.7900000000000006E-002    -2.7838182027706679     
   8.8200000000000014E-002    -2.4426488764205772     
   8.8499999999999995E-002    -2.0289070271572740     
   8.8800000000000004E-002    -1.5368270786903206     
   8.9100000000000013E-002   -0.96533224436856813     
   8.9399999999999993E-002   -0.31719422590576229     
   8.9700000000000002E-002    0.40085621198955490     
   9.0000000000000011E-002     1.1752325478025334     
   9.0299999999999991E-002     1.9908300180634413     
   9.0600000000000000E-002     2.8287091415335510     
   9.0900000000000009E-002     3.6685127299618046     
   9.1200000000000017E-002     4.4921673560949387     
   9.1499999999999998E-002     5.2814535391054278     
   9.1800000000000007E-002     6.0233111768112906     
   9.2100000000000001E-002     6.7067250318103220     
   9.2399999999999996E-002     7.3233617303522749     
   9.2700000000000005E-002     7.8687749588190741     
   9.3000000000000013E-002     8.3366966834690857     
   9.3300000000000008E-002     8.7215839087699010     
   9.3600000000000003E-002     9.0147369454800810     
   9.3899999999999997E-002     9.2030238066190009     
   9.4200000000000006E-002     9.2707284210072203     
   9.4500000000000001E-002     9.1960398822264438     
   9.4800000000000009E-002     8.9560154782333541     
   9.5100000000000004E-002     8.5266096508773614     
   9.5399999999999999E-002     7.8848673120664898     
   9.5699999999999993E-002     7.0141781409278252     
   9.6000000000000002E-002     5.9042004998986481     
   9.6300000000000011E-002     4.5561304754209360     
   9.6600000000000005E-002     2.9833977695080165     
   9.6900000000000000E-002     1.2122173309275581     
   9.7200000000000009E-002   -0.71699228511355795     
   9.7499999999999989E-002    -2.7528033098474651     
   9.7799999999999998E-002    -4.8333541063955749     
   9.8100000000000007E-002    -6.8901176836905051     
   9.8400000000000015E-002    -8.8519312868997133     
   9.8699999999999996E-002    -10.647558431901473     
   9.9000000000000005E-002    -12.210763060409590     
   9.9300000000000013E-002    -13.482028632490312     
   9.9599999999999994E-002    -14.412467465520365     
   9.9900000000000003E-002    -14.965033985363903     
  0.10020000000000001         -15.115619443566800     
  0.10049999999999999         -14.855094443463827     
  0.10080000000000000         -14.186588575669248     
  0.10110000000000001         -13.127344501377820     
  0.10140000000000000         -11.706592186093729     
  0.10170000000000000         -9.9643883629319063     
  0.10200000000000001         -7.9522057673344264     
  0.10230000000000002         -5.7287260279820345     
  0.10260000000000000         -3.3620707100380400     
  0.10290000000000001        -0.92577818220642882     
  0.10320000000000000          1.5028142702176286     
  0.10350000000000001          3.8413828928359663     
  0.10380000000000000          6.0106131375651159     
  0.10410000000000001          7.9315222202766904     
  0.10440000000000001          9.5319158308513465     
  0.10470000000000000          10.750228645107086     
  0.10500000000000000          11.535447497462883     
  0.10530000000000000          11.855704693198163     
  0.10560000000000000          11.697060471286335     
  0.10590000000000001          11.066735584471175     
  0.10620000000000000          9.9957765465015385     
  0.10650000000000001          8.5352741259319345     
  0.10679999999999999          6.7583439780057262     
  0.10710000000000000          4.7547996538066428     
  0.10740000000000001          2.6264209939671019     
  0.10770000000000000         0.48442371238696325     
  0.10800000000000000         -1.5607813995076611     
  0.10830000000000001         -3.4028563146821682     
  0.10859999999999999         -4.9460163724021697     
  0.10890000000000000         -6.1132851532251493     
  0.10920000000000001         -6.8476458722719826     
  0.10950000000000001         -7.1184588148357193     
  0.10979999999999999         -6.9230376360373498     
  0.11009999999999999         -6.2846109793663398     
  0.11040000000000001         -5.2551488207580093     
  0.11070000000000001         -3.9081483208502448     
  0.11100000000000000         -2.3360873750868620     
  0.11130000000000000        -0.64631330777519480     
  0.11160000000000002          1.0502295690780592     
  0.11190000000000001          2.6406839709419785     
  0.11220000000000001          4.0216502971184553     
  0.11250000000000000          5.1050707169493705     
  0.11280000000000000          5.8214262964881698     
  0.11309999999999999          6.1297933941914096     
  0.11340000000000001          6.0151714052450629     
  0.11369999999999998          5.4927338873909530     
  0.11400000000000000          4.6070870081057009     
  0.11430000000000000          3.4259442351070390     
  0.11460000000000002          2.0395942778500853     
  0.11489999999999999         0.55119106007510510     
  0.11520000000000001        -0.92976878864097801     
  0.11550000000000001         -2.2940497060117337     
  0.11580000000000000         -3.4436021204902545     
  0.11609999999999999         -4.2960734383972010     
  0.11640000000000002         -4.7919615223539580     
  0.11670000000000001         -4.9001526085921085     
  0.11700000000000001         -4.6177595825362436     
  0.11730000000000000         -3.9725991736181570     
  0.11760000000000000         -3.0203239647795925     
  0.11789999999999999         -1.8380607622137717     
  0.11820000000000001        -0.52156129900760817     
  0.11850000000000001         0.82552715735598392     
  0.11880000000000000          2.0990295446212741     
  0.11910000000000000          3.2006232878520251     
  0.11940000000000002          4.0502670896719195     
  0.11970000000000001          4.5878924697340437     
  0.12000000000000001          4.7811323402269821     
  0.12030000000000000          4.6277234726924874     
  0.12060000000000000          4.1521125384647490     
  0.12089999999999999          3.4080878656622104     
  0.12119999999999999          2.4682245998628431     
  0.12150000000000001          1.4202074598092622     
  0.12180000000000001         0.35941423691524221     
  0.12210000000000000        -0.62403239153299106     
  0.12239999999999999         -1.4487376774597784     
  0.12270000000000002         -2.0529715391795804     
  0.12300000000000001         -2.3986210221387161     
  0.12330000000000001         -2.4734606155502368     
  0.12360000000000000         -2.2944005840228598     
  0.12390000000000000         -1.9017797927229232     
  0.12419999999999999         -1.3570006979750886     
  0.12450000000000001        -0.73530090656105784     
  0.12480000000000001        -0.11644795518807882     
  0.12509999999999999         0.42204633114927770     
  0.12540000000000001         0.81452931780539739     
  0.12570000000000003          1.0135833515571235     
  0.12600000000000000         0.99366717234336477     
  0.12630000000000002         0.75433406894804378     
  0.12659999999999999         0.31972607184443547     
  0.12690000000000001        -0.26648629838762172     
  0.12719999999999998        -0.94430952483337904     
  0.12750000000000000         -1.6466082700788292     
  0.12780000000000002         -2.3059988020496363     
  0.12809999999999999         -2.8614765578844015     
  0.12840000000000001         -3.2680789219188284     
  0.12869999999999998         -3.4967799233692034     
  0.12900000000000000         -3.5402228875187660     
  0.12930000000000003         -3.4113057877756034     
  0.12959999999999999         -3.1383527911743059     
  0.12990000000000002         -2.7640429568599671     
  0.13019999999999998         -2.3355246222829962     
  0.13050000000000000         -1.9010329164657449     
  0.13080000000000003         -1.5028430034355367     
  0.13109999999999999         -1.1714751019631251     
  0.13140000000000002        -0.92515254083529186     
  0.13169999999999998        -0.76656932598026728     
  0.13200000000000001        -0.68550770235523473     
  0.13229999999999997        -0.66110543539548772     
  0.13260000000000000        -0.66547882476989884     
  0.13290000000000002        -0.66880633872646289     
  0.13319999999999999        -0.64351015838229575     
  0.13350000000000001        -0.56772456483339617     
  0.13380000000000003        -0.42764811104136236     
  0.13410000000000000        -0.21940190365877577     
  0.13440000000000002          5.2369147594291565E-002
  0.13469999999999999         0.37455264409900213     
  0.13500000000000001         0.72921284359242833     
  0.13529999999999998          1.0959308104058678     
  0.13560000000000000          1.4535739830129444     
  0.13590000000000002          1.7849641652381081     
  0.13619999999999999          2.0760488774314467     
  0.13650000000000001          2.3187377874993729     
  0.13680000000000003          2.5106811443252752     
  0.13710000000000000          2.6533771812310079     
  0.13740000000000002          2.7540182717317663     
  0.13769999999999999          2.8203699347404125     
  0.13800000000000001          2.8624271296341988     
  0.13829999999999998          2.8895832850685537     
  0.13860000000000000          2.9081911454531024     
  0.13890000000000002          2.9239993489479019     
  0.13919999999999999          2.9380511442099220     
  0.13950000000000001          2.9492886237378286     
  0.13979999999999998          2.9539895563801366     
  0.14010000000000000          2.9455778741348695     
  0.14040000000000002          2.9177250111155217     
  0.14069999999999999          2.8628574374244238     
  0.14100000000000001          2.7749415720914072     
  0.14130000000000004          2.6500450590076809     
  0.14160000000000000          2.4858927763650343     
  0.14189999999999997          2.2834797214150058     
  0.14219999999999999          2.0458748301971141     
  0.14250000000000002          1.7781272811051068     
  0.14279999999999998          1.4861579346859823     
  0.14310000000000000          1.1759743827052169     
  0.14339999999999997         0.85233484097795653     
  0.14369999999999999         0.51862322317132481     
  0.14400000000000002         0.17582686840853690     
  0.14429999999999998        -0.17666284098529528     
  0.14460000000000001        -0.54050397724954458     
  0.14490000000000003        -0.91774298429259815     
  0.14520000000000000         -1.3079247780329339     
  0.14550000000000002         -1.7096783691930639     
  0.14579999999999999         -2.1174854007468085     
  0.14610000000000001         -2.5231864952186243     
  0.14640000000000003         -2.9166048160042237     
  0.14670000000000000         -3.2850193995376742     
  0.14699999999999996         -3.6181837953281786     
  0.14729999999999999         -3.9064217937117434     
  0.14760000000000001         -4.1458305442745456     
  0.14789999999999998         -4.3372702257725280     
  0.14820000000000000         -4.4849052674331062     