  -1.4999999999999999E-002     0.0000000000000000     
  -1.4700000000000000E-002     6.8937581747786784E-030
  -1.4400000000000000E-002    -5.7934510959436054E-025
  -1.4100000000000000E-002    -1.7482121410070705E-021
  -1.3800000000000000E-002    -1.0940018904123013E-019
  -1.3500000000000000E-002    -1.5024006131442947E-019
  -1.3200000000000000E-002     1.1889361109107413E-017
  -1.2899999999999998E-002     2.7710080388074301E-017
  -1.2600000000000000E-002    -3.2944387641036002E-016
  -1.2299999999999998E-002    -7.6084407522026575E-016
  -1.2000000000000000E-002     3.5398559345714575E-015
  -1.1699999999999999E-002     4.3366508783018355E-015
  -1.1399999999999999E-002     5.1553618728210714E-015
  -1.1099999999999999E-002     2.7360192656099035E-014
  -1.0799999999999999E-002    -4.7383494990989047E-013
  -1.0499999999999999E-002    -2.6450769935805164E-013
  -1.0199999999999999E-002     4.8731079623858382E-012
  -9.8999999999999991E-003    -1.8311086095014443E-012
  -9.5999999999999992E-003    -2.0799733297895452E-011
  -9.2999999999999992E-003     2.1167851426569930E-011
  -8.9999999999999993E-003     2.9063824771179385E-011
  -8.6999999999999994E-003    -5.7386850520033432E-011
  -8.3999999999999995E-003     4.9373527979561324E-011
  -8.0999999999999996E-003     1.1725445109286064E-011
  -7.7999999999999988E-003    -1.9202307469481799E-010
  -7.4999999999999997E-003     1.1111496128737036E-010
  -7.1999999999999998E-003     2.1769003211878408E-010
  -6.8999999999999981E-003     3.7162006301292459E-011
  -6.5999999999999982E-003    -2.6527873338818852E-010
  -6.3000000000000000E-003    -8.0794060072734383E-011
  -6.0000000000000001E-003     3.6729712710762816E-010
  -5.6999999999999985E-003    -1.0150813208856096E-009
  -5.3999999999999986E-003    -1.0774511481295703E-009
  -5.1000000000000004E-003     2.7988778981174262E-009
  -4.7999999999999987E-003     6.1900439675507289E-009
  -4.5000000000000005E-003    -5.6512830862940984E-009
  -4.1999999999999989E-003    -1.5413364004861947E-008
  -3.8999999999999990E-003     9.6682204539558813E-009
  -3.5999999999999990E-003     2.2929677844066744E-008
  -3.2999999999999991E-003    -1.5882131837316005E-008
  -2.9999999999999992E-003    -4.8230240952977101E-008
  -2.6999999999999993E-003     5.6234340329923821E-008
  -2.3999999999999994E-003     1.5221720621449876E-007
  -2.0999999999999977E-003    -2.1962451562578929E-007
  -1.7999999999999995E-003    -4.2002163221980327E-007
  -1.4999999999999979E-003     7.0143404351573602E-007
  -1.1999999999999997E-003     9.6199010661306017E-007
  -8.9999999999999976E-004    -1.9333945276456569E-006
  -5.9999999999999810E-004    -2.2536932264067731E-006
  -2.9999999999999992E-004     4.3785546376488827E-006
   0.0000000000000000          6.8338548215866781E-006
   3.0000000000000165E-004    -7.5713524071057477E-006
   5.9999999999999984E-004    -2.4008234284110725E-005
   9.0000000000000149E-004     9.0202459776143537E-006
   1.2000000000000031E-003     1.4031623690502742E-004
   1.5000000000000013E-003     3.6865200752054378E-004
   1.8000000000000030E-003     6.6136498769608920E-004
   2.1000000000000012E-003     1.0001484699184993E-003
   2.3999999999999994E-003     1.4188606092962325E-003
   2.7000000000000010E-003     2.0528261539797255E-003
   2.9999999999999992E-003     3.1222017216311626E-003
   3.3000000000000008E-003     4.8423085838228686E-003
   3.6000000000000025E-003     7.4137919412282094E-003
   3.9000000000000007E-003     1.1106697585028080E-002
   4.2000000000000023E-003     1.6336645011496120E-002
   4.5000000000000005E-003     2.3684648916826201E-002
   4.7999999999999987E-003     3.3874281786372640E-002
   5.1000000000000004E-003     4.7775565997086433E-002
   5.4000000000000020E-003     6.6385515352883839E-002
   5.7000000000000037E-003     9.0774608316539052E-002
   5.9999999999999984E-003    0.12206049372178018     
   6.3000000000000000E-003    0.16131897410982621     
   6.6000000000000017E-003    0.20944359712893679     
   6.9000000000000034E-003    0.26691096576861995     
   7.2000000000000015E-003    0.33346057384251893     
   7.5000000000000032E-003    0.40784542280905889     
   7.8000000000000014E-003    0.48749827755431241     
   8.0999999999999996E-003    0.56810771816500960     
   8.4000000000000012E-003    0.64325263265534360     
   8.7000000000000029E-003    0.70416120531328019     
   9.0000000000000011E-003    0.73968280724236735     
   9.2999999999999992E-003    0.73652240329312768     
   9.6000000000000009E-003    0.67965781013315585     
   9.8999999999999991E-003    0.55314162396127831     
   1.0200000000000001E-002    0.34129120251362011     
   1.0500000000000002E-002     3.0413447338172084E-002
   1.0800000000000004E-002   -0.38910041584583954     
   1.1099999999999999E-002   -0.92071620252442443     
   1.1400000000000000E-002    -1.5596058338375940     
   1.1700000000000002E-002    -2.2907849717823581     
   1.2000000000000004E-002    -3.0876599417607764     
   1.2300000000000002E-002    -3.9114598040266060     
   1.2600000000000000E-002    -4.7119231944788282     
   1.2900000000000002E-002    -5.4291621405906767     
   1.3200000000000000E-002    -5.9969173799412374     
   1.3500000000000002E-002    -6.3470397342705382     
   1.3800000000000003E-002    -6.4149521094898034     
   1.4100000000000001E-002    -6.1459231957600196     
   1.4400000000000000E-002    -5.5013312875409213     
   1.4700000000000001E-002    -4.4642605809625060     
   1.4999999999999999E-002    -3.0436054554307006     
   1.5300000000000001E-002    -1.2765163524746796     
   1.5600000000000003E-002    0.77153249625971299     
   1.5899999999999997E-002     3.0096615138904781     
   1.6199999999999999E-002     5.3264465792960607     
   1.6500000000000001E-002     7.5976082961447844     
   1.6800000000000002E-002     9.6949897108156051     
   1.7100000000000004E-002     11.495864899612855     
   1.7400000000000006E-002     12.892955969631259     
   1.7700000000000000E-002     13.801995198813302     
   1.8000000000000002E-002     14.168825172588640     
   1.8300000000000004E-002     13.972260969587239     
   1.8600000000000005E-002     13.224454409500595     
   1.8900000000000000E-002     11.969140112016248     
   1.9200000000000002E-002     10.275494931999901     
   1.9500000000000003E-002     8.2320097138971846     
   1.9799999999999998E-002     5.9379512844200804     
   2.0100000000000000E-002     3.4945597715389454     
   2.0400000000000001E-002    0.99851749713527482     
   2.0700000000000003E-002    -1.4649283521643603     
   2.0999999999999998E-002    -3.8249447377205001     
   2.1299999999999999E-002    -6.0267869685836502     
   2.1600000000000001E-002    -8.0312194971272390     
   2.1900000000000003E-002    -9.8115403996743566     
   2.2200000000000004E-002    -11.349402135693197     
   2.2500000000000006E-002    -12.630595265741078     
   2.2800000000000001E-002    -13.640608603232920     
   2.3100000000000002E-002    -14.360776075528975     
   2.3400000000000004E-002    -14.767596372015532     
   2.3699999999999999E-002    -14.831342626557898     
   2.4000000000000000E-002    -14.519616108433581     
   2.4300000000000002E-002    -13.800692819489683     
   2.4599999999999997E-002    -12.649103782723159     
   2.4900000000000005E-002    -11.052040724741659     
   2.5200000000000000E-002    -9.0143922232534806     
   2.5499999999999995E-002    -6.5661363568030424     
   2.5800000000000003E-002    -3.7631884105062170     
   2.6099999999999998E-002   -0.69071561078202137     
   2.6400000000000007E-002     2.5392579832084223     
   2.6700000000000002E-002     5.7935391944426726     
   2.6999999999999996E-002     8.9226963629604938     
   2.7300000000000005E-002     11.774285551712012     
   2.7600000000000000E-002     14.199340300577546     
   2.7900000000000008E-002     16.067795994504138     
   2.8200000000000003E-002     17.277343457250993     
   2.8499999999999998E-002     17.761585117655102     
   2.8800000000000006E-002     17.498388754583345     
   2.9100000000000001E-002     16.508969810787477     
   2.9400000000000003E-002     14.860648100809769     
   2.9700000000000004E-002     12.658377844289614     
   3.0000000000000006E-002     10.037763953853997     
   3.0300000000000001E-002     7.1547684947850314     
   3.0600000000000002E-002     4.1699470745874692     
   3.0900000000000004E-002     1.2391255697222192     
   3.1199999999999999E-002    -1.5031430256795364     
   3.1500000000000007E-002    -3.9515492154581437     
   3.1800000000000002E-002    -6.0388721638409208     
   3.2099999999999997E-002    -7.7421601403994202     
   3.2400000000000005E-002    -9.0803840148620907     
   3.2700000000000000E-002    -10.113982234288528     
   3.3000000000000002E-002    -10.934687334632883     
   3.3300000000000003E-002    -11.654787310064876     
   3.3599999999999998E-002    -12.394363956669395     
   3.3900000000000000E-002    -13.263530410898625     
   3.4200000000000001E-002    -14.346274107761872     
   3.4500000000000003E-002    -15.684434511464758     
   3.4799999999999998E-002    -17.264526577796119     
   3.5099999999999999E-002    -19.008296099680706     
   3.5400000000000001E-002    -20.770865448706559     
   3.5699999999999996E-002    -22.342590585641858     
   3.6000000000000004E-002    -23.463276060966805     
   3.6299999999999999E-002    -23.840524392423106     
   3.6600000000000008E-002    -23.175712725038920     
   3.6900000000000002E-002    -21.198666507029316     
   3.7199999999999997E-002    -17.696393772113879     
   3.7500000000000006E-002    -12.551127582254139     
   3.7800000000000000E-002    -5.7649226115134411     
   3.8100000000000009E-002     2.5196073418888147     
   3.8400000000000004E-002     12.011374207488288     
   3.8699999999999998E-002     22.279030653848338     
   3.9000000000000007E-002     32.767987314057450     
   3.9300000000000002E-002     42.837679673982166     
   3.9600000000000003E-002     51.807361463365169     
   3.9900000000000005E-002     59.007377440431355     
   4.0200000000000000E-002     63.838016478665622     
   4.0500000000000001E-002     65.821721499755711     
   4.0800000000000003E-002     64.649125764296400     
   4.1100000000000005E-002     60.212044926854333     
   4.1399999999999999E-002     52.620938610192752     
   4.1700000000000008E-002     42.201830733053612     
   4.2000000000000003E-002     29.479288650845547     
   4.2299999999999997E-002     15.140347584766005     
   4.2600000000000006E-002    -1.9201622955506537E-002
   4.2900000000000001E-002    -15.145633468065455     
   4.3200000000000002E-002    -29.397155505104024     
   4.3500000000000004E-002    -41.999143287516290     
   4.3799999999999999E-002    -52.296482226331364     
   4.4100000000000000E-002    -59.804828163571983     
   4.4400000000000002E-002    -64.224852009146957     
   4.4700000000000004E-002    -65.466677385015203     
   4.4999999999999998E-002    -63.640480454507866     
   4.5300000000000000E-002    -59.033098678595053     
   4.5600000000000002E-002    -52.087779964842241     
   4.5899999999999996E-002    -43.350314193242070     
   4.6200000000000005E-002    -33.431798218569952     
   4.6500000000000000E-002    -22.959878002475875     
   4.6799999999999994E-002    -12.529946638819183     
   4.7100000000000003E-002    -2.6765809608845075     
   4.7399999999999998E-002     6.1639209995592026     
   4.7700000000000006E-002     13.666892117043318     
   4.8000000000000001E-002     19.627138132288337     
   4.8300000000000010E-002     23.959807577722472     
   4.8600000000000004E-002     26.683426439867674     
   4.8899999999999999E-002     27.906286263780714     
   4.9200000000000008E-002     27.806405336414457     
   4.9500000000000002E-002     26.602735664642069     
   4.9800000000000011E-002     24.539052137531939     
   5.0100000000000006E-002     21.860708225241453     
   5.0400000000000000E-002     18.799503524975627     
   5.0700000000000009E-002     15.564707089786133     
   5.1000000000000004E-002     12.331920400922202     
   5.1299999999999998E-002     9.2438544051915983     
   5.1600000000000007E-002     6.4073245000321180     
   5.1900000000000002E-002     3.8950245230341594     
   5.2200000000000010E-002     1.7529624713984262     
   5.2500000000000005E-002    -2.1592536705341558E-003
   5.2800000000000000E-002    -1.3731349699264239     
   5.3099999999999994E-002    -2.3814153926641097     
   5.3400000000000003E-002    -3.0637468236505114     
   5.3699999999999998E-002    -3.4636498373704612     
   5.4000000000000006E-002    -3.6343232698250389     
   5.4300000000000001E-002    -3.6289036608452108     
   5.4599999999999996E-002    -3.4996383400277935     
   5.4900000000000004E-002    -3.2951057696068418     
   5.5199999999999999E-002    -3.0534342297791497     
   5.5499999999999994E-002    -2.8061597676013506     
   5.5800000000000002E-002    -2.5723834616482222     
   5.6099999999999997E-002    -2.3622923916681202     
   5.6400000000000006E-002    -2.1784328868941571     
   5.6700000000000000E-002    -2.0159103223494057     
   5.6999999999999995E-002    -1.8689663231943925     
   5.7300000000000004E-002    -1.7297275732480131     
   5.7599999999999998E-002    -1.5938818767256606     
   5.7900000000000007E-002    -1.4591548896985280     
   5.8200000000000002E-002    -1.3271871162531568     
   5.8499999999999996E-002    -1.2032196642981390     
   5.8800000000000005E-002    -1.0916462722316496     
   5.9100000000000000E-002   -0.99917281243489242     
   5.9400000000000008E-002   -0.92782082668881216     
   5.9700000000000003E-002   -0.87777322438582672     
   6.0000000000000012E-002   -0.84548623046075377     
   6.0300000000000006E-002   -0.82199709362537376     
   6.0600000000000001E-002   -0.79990572840081953     
   6.0900000000000010E-002   -0.76784354288196610     
   6.1200000000000004E-002   -0.71803206429351008     
   6.1500000000000013E-002   -0.64627740943800660     
   6.1800000000000008E-002   -0.54993775534350231     
   6.2100000000000002E-002   -0.43442610193956499     
   6.2399999999999997E-002   -0.30499242871700388     
   6.2700000000000006E-002   -0.17122394055957324     
   6.3000000000000000E-002    -4.3469537833969341E-002
   6.3300000000000009E-002     7.1921602195451184E-002
   6.3600000000000004E-002    0.16775804124161331     
   6.3899999999999998E-002    0.24319484072310349     
   6.4199999999999993E-002    0.30021924064715932     
   6.4500000000000002E-002    0.34218343188032030     
   6.4800000000000010E-002    0.37680709823411362     
   6.5100000000000005E-002    0.40948044646779636     
   6.5400000000000000E-002    0.44451548949298036     
   6.5700000000000008E-002    0.48544107383735380     
   6.5999999999999989E-002    0.52941755821712455     
   6.6299999999999998E-002    0.57403118200194925     
   6.6600000000000006E-002    0.61351805255157643     
   6.6900000000000001E-002    0.63986462692930779     
   6.7199999999999996E-002    0.65038755554533623     
   6.7500000000000004E-002    0.63873694300778538     
   6.7800000000000013E-002    0.60578243194290327     
   6.8099999999999994E-002    0.55462524190964491     
   6.8400000000000002E-002    0.48836786860896453     
   6.8700000000000011E-002    0.41737645444919202     
   6.8999999999999992E-002    0.34627433992582457     
   6.9300000000000000E-002    0.28352419226442205     
   6.9600000000000009E-002    0.23432864406944764     
   6.9900000000000004E-002    0.19833534158395860     
   7.0199999999999999E-002    0.17833845422319516     
   7.0500000000000007E-002    0.16780985688665373     
   7.0800000000000016E-002    0.16365399572033423     
   7.1099999999999997E-002    0.16116315203567932     
   7.1400000000000005E-002    0.15347625974989354     
   7.1700000000000000E-002    0.14113689524460771     
   7.1999999999999995E-002    0.12025779353581134     
   7.2300000000000003E-002     9.3983955890502902E-002
   7.2600000000000012E-002     6.5121783256401056E-002
   7.2900000000000006E-002     3.6222810678498307E-002
   7.3200000000000001E-002     1.3536732780521643E-002
   7.3499999999999996E-002    -3.2041761748000108E-003
   7.3800000000000004E-002    -1.1368791556307212E-002
   7.4099999999999999E-002    -1.3339321254881242E-002
   7.4400000000000008E-002    -1.3098980868642141E-002
   7.4700000000000003E-002    -1.3977521543236893E-002
   7.5000000000000011E-002    -2.2433681045302023E-002
   7.5299999999999992E-002    -4.1149345200509280E-002
   7.5600000000000001E-002    -7.3361029037031678E-002
   7.5900000000000009E-002   -0.11868716384855693     
   7.6200000000000004E-002   -0.17289608940880052     
   7.6499999999999999E-002   -0.23124771548010159     
   7.6800000000000007E-002   -0.28466244382126860     
   7.7099999999999988E-002   -0.32519629083465096     
   7.7399999999999997E-002   -0.34538347737120123     
   7.7700000000000005E-002   -0.33857671819889923     
   7.8000000000000014E-002   -0.30391452857686740     
   7.8299999999999995E-002   -0.24222786363047000     
   7.8600000000000003E-002   -0.15957280864595802     
   7.8900000000000012E-002    -6.6228787555298929E-002
   7.9199999999999993E-002     2.7234634363224819E-002
   7.9500000000000001E-002    0.10699533455286295     
   7.9800000000000010E-002    0.16219587712457262     
   8.0100000000000018E-002    0.18497304918930801     
   8.0399999999999999E-002    0.16923392873349918     
   8.0700000000000008E-002    0.11870327647766565     
   8.1000000000000003E-002     3.8544484096132869E-002
   8.1299999999999997E-002    -6.0163897822587575E-002
   8.1600000000000006E-002   -0.16026673308188788     
   8.1900000000000014E-002   -0.24905075134360466     
   8.2199999999999995E-002   -0.30780959854440937     
   8.2500000000000004E-002   -0.32677222073216505     
   8.2799999999999999E-002   -0.29983334423130081     
   8.3100000000000007E-002   -0.22460190010313497     
   8.3400000000000002E-002   -0.11380829487363209     
   8.3700000000000011E-002     2.2042358419652075E-002
   8.4000000000000005E-002    0.15933802703244609     
   8.4300000000000000E-002    0.27425990580732451     
   8.4599999999999995E-002    0.34630013734282539     
   8.4900000000000003E-002    0.34994832633102924     
   8.5199999999999998E-002    0.27622915415386018     
   8.5500000000000007E-002    0.11851498173848540     
   8.5800000000000001E-002   -0.11561122344046915     
   8.6100000000000010E-002   -0.40428089526942568     
   8.6399999999999991E-002   -0.72200690473165352     
   8.6699999999999999E-002    -1.0259116123444283     
   8.7000000000000008E-002    -1.2761961615580972     
   8.7300000000000003E-002    -1.4309044629903411     
   8.7599999999999997E-002    -1.4518632475791904     
   8.7900000000000006E-002    -1.3183389404251429     
   8.8200000000000014E-002    -1.0177037748059519     
   8.8499999999999995E-002   -0.56115902524628325     
   8.8800000000000004E-002     2.3382276289886761E-002
   8.9100000000000013E-002    0.69219880076701479     
   8.9399999999999993E-002     1.3835060638251697     
   8.9700000000000002E-002     2.0331285648718733     
   9.0000000000000011E-002     2.5721941432999138     
   9.0299999999999991E-002     2.9396226256120990     
   9.0600000000000000E-002     3.0897719695824506     
   9.0900000000000009E-002     2.9930555187302446     
   9.1200000000000017E-002     2.6468388666301905     
   9.1499999999999998E-002     2.0708033867574045     
   9.1800000000000007E-002     1.3066472481219478     
   9.2100000000000001E-002    0.41761700844388372     
   9.2399999999999996E-002   -0.52489764904087188     
   9.2700000000000005E-002    -1.4421043188879210     
   9.3000000000000013E-002    -2.2586699272114714     
   9.3300000000000008E-002    -2.9120666467322209     
   9.3600000000000003E-002    -3.3515391139606088     
   9.3899999999999997E-002    -3.5512785855534688     
   9.4200000000000006E-002    -3.5039547272129425     
   9.4500000000000001E-002    -3.2227900633268192     
   9.4800000000000009E-002    -2.7422022376523358     
   9.5100000000000004E-002    -2.1040578505277523     
   9.5399999999999999E-002    -1.3651671931126970     
   9.5699999999999993E-002   -0.58066490027838569     
   9.6000000000000002E-002    0.19530394685148167     
   9.6300000000000011E-002    0.91066407732057364     
   9.6600000000000005E-002     1.5298097168075770     
   9.6900000000000000E-002     2.0192031266570183     
   9.7200000000000009E-002     2.3627362597749837     
   9.7499999999999989E-002     2.5536198170092099     
   9.7799999999999998E-002     2.5909703669742878     
   9.8100000000000007E-002     2.4909265475599724     
   9.8400000000000015E-002     2.2667314450029643     
   9.8699999999999996E-002     1.9446206264823900     
   9.9000000000000005E-002     1.5514157299920512     
   9.9300000000000013E-002     1.1120058659936163     
   9.9599999999999994E-002    0.66085787498693094     
   9.9900000000000003E-002    0.21946194094881477     
  0.10020000000000001        -0.18483986472886382     
  0.10049999999999999        -0.53248378517149764     
  0.10080000000000000        -0.81229807303118662     
  0.10110000000000001         -1.0107076373020281     
  0.10140000000000000         -1.1310457862028791     
  0.10170000000000000         -1.1738464571570484     
  0.10200000000000001         -1.1481063684427548     
  0.10230000000000002         -1.0691775179749015     
  0.10260000000000000        -0.94727602626990315     
  0.10290000000000001        -0.80153136511819412     
  0.10320000000000000        -0.64401534264936267     
  0.10350000000000001        -0.48591595769445117     
  0.10380000000000000        -0.33885388982394815     
  0.10410000000000001        -0.20555515211217124     
  0.10440000000000001         -9.1062287551910259E-002
  0.10470000000000000          4.7518661918259930E-003
  0.10500000000000000          8.4147194220776544E-002
  0.10530000000000000         0.14630336268836919     
  0.10560000000000000         0.19526064562375911     
  0.10590000000000001         0.23127102195798366     
  0.10620000000000000         0.25446387231740097     
  0.10650000000000001         0.26713251766699281     
  0.10679999999999999         0.26708768904425073     
  0.10710000000000000         0.25621146717278309     
  0.10740000000000001         0.23589959821823114     
  0.10770000000000000         0.20645044716427835     
  0.10800000000000000         0.17255151965693072     
  0.10830000000000001         0.13528164744562021     
  0.10859999999999999          9.9142919542881902E-002
  0.10890000000000000          6.7471066338324004E-002
  0.10920000000000001          4.0496813937672682E-002
  0.10950000000000001          2.1620693241029665E-002
  0.10979999999999999          8.6958815330314132E-003
  0.11009999999999999          1.5059864158741276E-003
  0.11040000000000001         -1.4895879444202786E-003
  0.11070000000000001         -3.4280524004158819E-003
  0.11100000000000000         -4.2890049037577205E-003
  0.11130000000000000         -7.0378354443353386E-003
  0.11160000000000002         -1.0545209490891105E-002
  0.11190000000000001         -1.5163604599792713E-002
  0.11220000000000001         -1.9661590719073530E-002
  0.11250000000000000         -2.1980297167813606E-002
  0.11280000000000000         -2.2590198822272804E-002
  0.11309999999999999         -1.9284193506348413E-002
  0.11340000000000001         -1.4207029837602247E-002
  0.11369999999999998         -7.0528780233352073E-003
  0.11400000000000000          2.3172087936762509E-004
  0.11430000000000000          4.5087552424200039E-003
  0.11460000000000002          6.3552520247625033E-003
  0.11489999999999999          1.4083669884561167E-003
  0.11520000000000001         -7.9707589455618733E-003
  0.11550000000000001         -2.2057000944732064E-002
  0.11580000000000000         -4.0234264086566496E-002
  0.11609999999999999         -5.7371275843701386E-002
  0.11640000000000002         -7.4864663330734882E-002
  0.11670000000000001         -8.7485938793004703E-002
  0.11700000000000001         -9.5048198409786289E-002
  0.11730000000000000         -9.7992930464112948E-002
  0.11760000000000000         -9.3774339694980391E-002
  0.11789999999999999         -8.7125242943854486E-002
  0.11820000000000001         -7.7254787418459869E-002
  0.11850000000000001         -6.6735552327793268E-002
  0.11880000000000000         -5.7571040824413555E-002
  0.11910000000000000         -4.8184522431912846E-002
  0.11940000000000002         -4.1016080931885024E-002
  0.11970000000000001         -3.3953481368796279E-002
  0.12000000000000001         -2.5457649791467585E-002
  0.12030000000000000         -1.5890350965847011E-002
  0.12060000000000000         -2.8340987416396249E-003
  0.12089999999999999          1.2661080327958485E-002
  0.12119999999999999          2.9522001073035931E-002
  0.12150000000000001          4.7577842724904063E-002
  0.12180000000000001          6.3072875745536938E-002
  0.12210000000000000          7.4619310586087922E-002
  0.12239999999999999          8.0820645385456719E-002
  0.12270000000000002          7.9022575139791801E-002
  0.12300000000000001          7.1370670947606407E-002
  0.12330000000000001          5.7196498603422907E-002
  0.12360000000000000          3.8837706586480114E-002
  0.12390000000000000          2.0494160628683915E-002
  0.12419999999999999          1.8664795148289892E-003
  0.12450000000000001         -1.2025726463975372E-002
  0.12480000000000001         -2.1469084385056014E-002
  0.12509999999999999         -2.6388211622421665E-002
  0.12540000000000001         -2.5096032159360071E-002
  0.12570000000000003         -2.2400982279256187E-002
  0.12600000000000000         -1.7261350089259400E-002
  0.12630000000000002         -1.2796796905620911E-002
  0.12659999999999999         -1.0741287225839641E-002
  0.12690000000000001         -9.6025022634405044E-003
  0.12719999999999998         -1.1912251606067382E-002
  0.12750000000000000         -1.3955374777668200E-002
  0.12780000000000002         -1.4988332888240641E-002
  0.12809999999999999         -1.4426124560398601E-002
  0.12840000000000001         -9.2626922995458494E-003
  0.12869999999999998         -1.2314859134363032E-003
  0.12900000000000000          1.0588387158147083E-002
  0.12930000000000003          2.4564160417289926E-002
  0.12959999999999999          3.7614954316362970E-002
  0.12990000000000002          4.8743321790860494E-002
  0.13019999999999998          5.4781751491269903E-002
  0.13050000000000000          5.4635724161472388E-002
  0.13080000000000003          4.8466043110812929E-002
  0.13109999999999999          3.6361397369548243E-002
  0.13140000000000002          2.0875135917137078E-002
  0.13169999999999998          4.6143875060639106E-003
  0.13200000000000001         -1.0433888532282554E-002
  0.13229999999999997         -2.0488701339403725E-002
  0.13260000000000000         -2.4921761003818599E-002
  0.13290000000000002         -2.2928793773046685E-002
  0.13319999999999999         -1.4262231058880803E-002
  0.13350000000000001         -2.0020990956945706E-003
  0.13380000000000003          1.3206432987658556E-002
  0.13410000000000000          2.7667587431718488E-002
  0.13440000000000002          3.9787202985933190E-002
  0.13469999999999999          4.8344380830805223E-002
  0.13500000000000001          5.1883861870043069E-002
  0.13529999999999998          5.2712023837769212E-002
  0.13560000000000000          5.0340113949923063E-002
  0.13590000000000002          4.7605562373685281E-002
  0.13619999999999999          4.5648807260259133E-002
  0.13650000000000001          4.5061569244557662E-002
  0.13680000000000003          4.7252093689967495E-002
  0.13710000000000000          4.9802589979289158E-002
  0.13740000000000002          5.2833415775367820E-002
  0.13769999999999999          5.3003214788680975E-002
  0.13800000000000001          4.8552208414936293E-002
  0.13829999999999998          3.8927360460784655E-002
  0.13860000000000000          2.1018316613538202E-002
  0.13890000000000002         -1.5054195585957469E-003
  0.13919999999999999         -2.9166513718174719E-002
  0.13950000000000001         -5.8550900344726028E-002
  0.13979999999999998         -8.5021485826401649E-002
  0.14010000000000000        -0.10838459383816662     
  0.14040000000000002        -0.12249637231551502     
  0.14069999999999999        -0.12868987120113906     
  0.14100000000000001        -0.12564395873969048     
  0.14130000000000004        -0.11323889339139948     
  0.14160000000000000         -9.7207802956246869E-002
  0.14189999999999997         -7.6202764114559951E-002
  0.14219999999999999         -5.6425777120985288E-002
  0.14250000000000002         -3.9661724163296219E-002
  0.14279999999999998         -2.5223562426354183E-002
  0.14310000000000000         -1.7114710883445877E-002
  0.14339999999999997         -1.1469655082618935E-002
  0.14369999999999999         -8.3329756544597011E-003
  0.14400000000000002         -6.1565268696075204E-003
  0.14429999999999998         -8.7651688461967692E-004
  0.14460000000000001          5.4689439517850436E-003
  0.14490000000000003          1.5414614860578831E-002
  0.14520000000000000          2.7543158585070671E-002
  0.14550000000000002          3.8559093946802014E-002
  0.14579999999999999          4.9452584279621181E-002
  0.14610000000000001          5.5235304607706093E-002
  0.14640000000000003          5.5298470481591755E-002
  0.14670000000000000          5.0835372086725172E-002
  0.14699999999999996          3.9396029753461681E-002
  0.14729999999999999          2.5830648484355345E-002
  0.14760000000000001          1.1333294282674711E-002
  0.14789999999999998         -1.6229675836976487E-003
  0.14820000000000000         -7.9265920724943539E-003