  -1.4999999999999999E-002     0.0000000000000000     
  -1.4700000000000000E-002     0.0000000000000000     
  -1.4400000000000000E-002     0.0000000000000000     
  -1.4100000000000000E-002     0.0000000000000000     
  -1.3800000000000000E-002     0.0000000000000000     
  -1.3500000000000000E-002     0.0000000000000000     
  -1.3200000000000000E-002     0.0000000000000000     
  -1.2899999999999998E-002     0.0000000000000000     
  -1.2600000000000000E-002     0.0000000000000000     
  -1.2299999999999998E-002     0.0000000000000000     
  -1.2000000000000000E-002     0.0000000000000000     
  -1.1699999999999999E-002     0.0000000000000000     
  -1.1399999999999999E-002     0.0000000000000000     
  -1.1099999999999999E-002     0.0000000000000000     
  -1.0799999999999999E-002     0.0000000000000000     
  -1.0499999999999999E-002     0.0000000000000000     
  -1.0199999999999999E-002     0.0000000000000000     
  -9.8999999999999991E-003     0.0000000000000000     
  -9.5999999999999992E-003     0.0000000000000000     
  -9.2999999999999992E-003     0.0000000000000000     
  -8.9999999999999993E-003     0.0000000000000000     
  -8.6999999999999994E-003     0.0000000000000000     
  -8.3999999999999995E-003     0.0000000000000000     
  -8.0999999999999996E-003     0.0000000000000000     
  -7.7999999999999988E-003     0.0000000000000000     
  -7.4999999999999997E-003     0.0000000000000000     
  -7.1999999999999998E-003     0.0000000000000000     
  -6.8999999999999981E-003     0.0000000000000000     
  -6.5999999999999982E-003     0.0000000000000000     
  -6.3000000000000000E-003     0.0000000000000000     
  -6.0000000000000001E-003     0.0000000000000000     
  -5.6999999999999985E-003     0.0000000000000000     
  -5.3999999999999986E-003     0.0000000000000000     
  -5.1000000000000004E-003     0.0000000000000000     
  -4.7999999999999987E-003     1.5900862279183583E-037
  -4.5000000000000005E-003     2.1533308924906322E-036
  -4.1999999999999989E-003    -2.5951427932155390E-035
  -3.8999999999999990E-003    -3.0338215162883185E-035
  -3.5999999999999990E-003     1.1267284669660225E-033
  -3.2999999999999991E-003     1.8367875922260371E-033
  -2.9999999999999992E-003    -2.9889177856108596E-032
  -2.6999999999999993E-003    -4.2888853132554017E-032
  -2.3999999999999994E-003     4.7482228811276474E-031
  -2.0999999999999977E-003     5.9853377777360537E-031
  -1.7999999999999995E-003    -5.4034946430757399E-030
  -1.4999999999999979E-003    -3.4050209179947610E-030
  -1.1999999999999997E-003     4.5886307347157362E-029
  -8.9999999999999976E-004    -2.0388443622389727E-029
  -5.9999999999999810E-004    -2.6018126149461805E-028
  -2.9999999999999992E-004     5.2866544751986964E-028
   0.0000000000000000          3.7841913950022479E-028
   3.0000000000000165E-004    -3.7344147841295032E-027
   5.9999999999999984E-004     7.9181285250337953E-027
   9.0000000000000149E-004    -4.9627375998684731E-028
   1.2000000000000031E-003    -5.1190883367668681E-026
   1.5000000000000013E-003     1.7307524153442443E-025
   1.8000000000000030E-003    -2.1399893866075592E-025
   2.1000000000000012E-003    -5.5470998820682420E-025
   2.3999999999999994E-003     3.3514122914078172E-024
   2.7000000000000010E-003    -6.6556951240112582E-024
   2.9999999999999992E-003    -1.2896905508773921E-024
   3.3000000000000008E-003     4.1975472619025215E-023
   3.6000000000000025E-003    -1.1084945895781841E-022
   3.9000000000000007E-003     1.0618482285934859E-022
   4.2000000000000023E-003     1.9246649612823268E-022
   4.5000000000000005E-003    -9.5786530634972394E-022
   4.7999999999999987E-003     1.8991030028513475E-021
   5.1000000000000004E-003    -1.7165530000009655E-021
   5.4000000000000020E-003    -2.0664192994862124E-021
   5.7000000000000037E-003     1.1424619551054962E-020
   5.9999999999999984E-003    -2.1899894867759472E-020
   6.3000000000000000E-003     1.2646125712583969E-020
   6.6000000000000017E-003     5.5612678185592832E-020
   6.9000000000000034E-003    -1.9962046234017490E-019
   7.2000000000000015E-003     2.6691563080537838E-019
   7.5000000000000032E-003     3.9254623527244702E-019
   7.8000000000000014E-003    -3.5082845904528428E-018
   8.0999999999999996E-003     1.2945796241992062E-017
   8.4000000000000012E-003    -3.7688268044906157E-017
   8.7000000000000029E-003     1.0423597134895913E-016
   9.0000000000000011E-003    -3.1120036064344045E-016
   9.2999999999999992E-003     1.0593647230480791E-015
   9.6000000000000009E-003    -3.9730688251213046E-015
   9.8999999999999991E-003     1.5353866951690824E-014
   1.0200000000000001E-002    -5.7710133940770407E-014
   1.0500000000000002E-002     2.0020161902013447E-013
   1.0800000000000004E-002    -5.9728192784294904E-013
   1.1099999999999999E-002     1.3106054419587499E-012
   1.1400000000000000E-002    -7.3565209229378791E-013
   1.1700000000000002E-002    -1.0865974077497982E-011
   1.2000000000000004E-002     6.5817728360436836E-011
   1.2300000000000002E-002    -2.1598125208469294E-010
   1.2600000000000000E-002     3.7842742439335185E-010
   1.2900000000000002E-002     1.8925479248209148E-010
   1.3200000000000000E-002    -3.2202740342912815E-009
   1.3500000000000002E-002     8.2086219796572890E-009
   1.3800000000000003E-002    -2.4229282936460716E-009
   1.4100000000000001E-002    -3.6312613142839707E-008
   1.4400000000000000E-002     7.1642569104580114E-008
   1.4700000000000001E-002     5.8010701677527126E-008
   1.4999999999999999E-002    -3.2840091025752790E-007
   1.5300000000000001E-002    -4.4281836236385839E-008
   1.5600000000000003E-002     1.0573535306432741E-006
   1.5899999999999997E-002     3.0353263628194672E-007
   1.6199999999999999E-002    -3.0850565495267649E-006
   1.6500000000000001E-002    -2.9101700554975810E-006
   1.6800000000000002E-002     1.0067387482337839E-005
   1.7100000000000004E-002     3.9036059164956893E-005
   1.7400000000000006E-002     8.0572032344195356E-005
   1.7700000000000000E-002     1.3270114907167107E-004
   1.8000000000000002E-002     2.0068316596406205E-004
   1.8300000000000004E-002     3.0215257282700629E-004
   1.8600000000000005E-002     4.6825722220000116E-004
   1.8900000000000000E-002     7.3402168164142176E-004
   1.9200000000000002E-002     1.1344738190025190E-003
   1.9500000000000003E-002     1.7172839836468792E-003
   1.9799999999999998E-002     2.5586806885992477E-003
   2.0100000000000000E-002     3.7683009628735747E-003
   2.0400000000000001E-002     5.4872436395123625E-003
   2.0700000000000003E-002     7.8915661694796968E-003
   2.0999999999999998E-002     1.1193166330708826E-002
   2.1299999999999999E-002     1.5639871424577068E-002
   2.1600000000000001E-002     2.1522393672681606E-002
   2.1900000000000003E-002     2.9167462183802617E-002
   2.2200000000000004E-002     3.8915844720493475E-002
   2.2500000000000006E-002     5.1093428207078739E-002
   2.2800000000000001E-002     6.5973944655880246E-002
   2.3100000000000002E-002     8.3726174358367711E-002
   2.3400000000000004E-002    0.10434394587043316     
   2.3699999999999999E-002    0.12756731720967451     
   2.4000000000000000E-002    0.15279851382154064     
   2.4300000000000002E-002    0.17900365039028188     
   2.4599999999999997E-002    0.20464441175996839     
   2.4900000000000005E-002    0.22762268878535608     
   2.5200000000000000E-002    0.24526878854443090     
   2.5499999999999995E-002    0.25436364326295369     
   2.5800000000000003E-002    0.25124861418888855     
   2.6099999999999998E-002    0.23202440349162501     
   2.6400000000000007E-002    0.19281032173302037     
   2.6700000000000002E-002    0.13011430963588122     
   2.6999999999999996E-002     4.1254809619530652E-002
   2.7300000000000005E-002    -7.5187531687992970E-002
   2.7600000000000000E-002   -0.21888085035377181     
   2.7900000000000008E-002   -0.38737744383022310     
   2.8200000000000003E-002   -0.57578110939519433     
   2.8499999999999998E-002   -0.77660774366194119     
   2.8800000000000006E-002   -0.97989853826475937     
   2.9100000000000001E-002    -1.1735436177585754     
   2.9400000000000003E-002    -1.3439113762557326     
   2.9700000000000004E-002    -1.4766663729622209     
   3.0000000000000006E-002    -1.5578555618163463     
   3.0300000000000001E-002    -1.5750799405992311     
   3.0600000000000002E-002    -1.5187278920994274     
   3.0900000000000004E-002    -1.3830914892462829     
   3.1199999999999999E-002    -1.1671809744228909     
   3.1500000000000007E-002   -0.87538831292772201     
   3.1800000000000002E-002   -0.51753146588336030     
   3.2099999999999997E-002   -0.10857644354662943     
   3.2400000000000005E-002    0.33215649154136528     
   3.2700000000000000E-002    0.78226092621305199     
   3.3000000000000002E-002     1.2178162066011886     
   3.3300000000000003E-002     1.6150072068668919     
   3.3599999999999998E-002     1.9520538912371777     
   3.3900000000000000E-002     2.2107587367752686     
   3.4200000000000001E-002     2.3778536055484807     
   3.4500000000000003E-002     2.4459381443986388     
   3.4799999999999998E-002     2.4139189424713692     
   3.5099999999999999E-002     2.2869617040474424     
   3.5400000000000001E-002     2.0758247201450359     
   3.5699999999999996E-002     1.7959361833993555     
   3.6000000000000004E-002     1.4659979954433311     
   3.6299999999999999E-002     1.1064734974417121     
   3.6600000000000008E-002    0.73812945585902057     
   3.6900000000000002E-002    0.38046070972973567     
   3.7199999999999997E-002     5.0591481325573229E-002
   3.7500000000000006E-002   -0.23767308946344945     
   3.7800000000000000E-002   -0.47443176006875198     
   3.8100000000000009E-002   -0.65386631593433719     
   3.8400000000000004E-002   -0.77411553847177572     
   3.8699999999999998E-002   -0.83695245264053852     
   3.9000000000000007E-002   -0.84700577623865669     
   3.9300000000000002E-002   -0.81128711428405254     
   3.9600000000000003E-002   -0.73836392591077171     
   3.9900000000000005E-002   -0.63759158117424519     
   4.0200000000000000E-002   -0.51878485931787566     
   4.0500000000000001E-002   -0.39152816009804603     
   4.0800000000000003E-002   -0.26503353966037935     
   4.1100000000000005E-002   -0.14802955248809724     
   4.1399999999999999E-002    -4.8514872606412407E-002
   4.1700000000000008E-002     2.5999161711195207E-002
   4.2000000000000003E-002     6.8754433489486955E-002
   4.2299999999999997E-002     7.3753466823910152E-002
   4.2600000000000006E-002     3.5908321844936864E-002
   4.2900000000000001E-002    -4.8482914040034686E-002
   4.3200000000000002E-002   -0.18145093466873186     
   4.3500000000000004E-002   -0.36283529716851248     
   4.3799999999999999E-002   -0.58965800811481373     
   4.4100000000000000E-002   -0.85576892668189330     
   4.4400000000000002E-002    -1.1514240859804623     
   4.4700000000000004E-002    -1.4632164257208728     
   4.4999999999999998E-002    -1.7744418251307863     
   4.5300000000000000E-002    -2.0654905551656242     
   4.5600000000000002E-002    -2.3149107370025206     
   4.5899999999999996E-002    -2.5006635386385909     
   4.6200000000000005E-002    -2.6014551755423696     
   4.6500000000000000E-002    -2.5986548913681702     
   4.6799999999999994E-002    -2.4778062411879205     
   4.7100000000000003E-002    -2.2301345059628090     
   4.7399999999999998E-002    -1.8541257257054085     
   4.7700000000000006E-002    -1.3557505613783007     
   4.8000000000000001E-002   -0.74918506674582730     
   4.8300000000000010E-002    -5.6184107448313370E-002
   4.8600000000000004E-002    0.69479608895195977     
   4.8899999999999999E-002     1.4699065341087234     
   4.9200000000000008E-002     2.2322852909583659     
   4.9500000000000002E-002     2.9439437430311557     
   4.9800000000000011E-002     3.5685024184483467     
   5.0100000000000006E-002     4.0735475105106076     
   5.0400000000000000E-002     4.4328627381992902     
   5.0700000000000009E-002     4.6281683897784944     
   5.1000000000000004E-002     4.6502920452088290     
   5.1299999999999998E-002     4.4999048353443527     
   5.1600000000000007E-002     4.1870999828241509     
   5.1900000000000002E-002     3.7308816231778081     
   5.2200000000000010E-002     3.1572338875250523     
   5.2500000000000005E-002     2.4974276375812252     
   5.2800000000000000E-002     1.7855898947755477     
   5.3099999999999994E-002     1.0556360589482274     
   5.3400000000000003E-002    0.33952353724360229     
   5.3699999999999998E-002   -0.33582045045378628     
   5.4000000000000006E-002   -0.94969264266858389     
   5.4300000000000001E-002    -1.4888801539968348     
   5.4599999999999996E-002    -1.9483097468123560     
   5.4900000000000004E-002    -2.3302566718818056     
   5.5199999999999999E-002    -2.6434305588171156     
   5.5499999999999994E-002    -2.9010004634618127     
   5.5800000000000002E-002    -3.1185750437594635     
   5.6099999999999997E-002    -3.3112703661449672     
   5.6400000000000006E-002    -3.4915968469451002     
   5.6700000000000000E-002    -3.6669600113269780     
   5.6999999999999995E-002    -3.8379379566513308     
   5.7300000000000004E-002    -3.9977703034433887     
   5.7599999999999998E-002    -4.1317084340375203     
   5.7900000000000007E-002    -4.2187801320372671     
   5.8200000000000002E-002    -4.2331793887898641     
   5.8499999999999996E-002    -4.1469335887126419     
   5.8800000000000005E-002    -3.9334493059086668     
   5.9100000000000000E-002    -3.5701400435359005     
   5.9400000000000008E-002    -3.0425242761073150     
   5.9700000000000003E-002    -2.3461602358443230     
   6.0000000000000012E-002    -1.4890186416487978     
   6.0300000000000006E-002   -0.49236103967292877     
   6.0600000000000001E-002    0.61015645441401745     
   6.0900000000000010E-002     1.7729529768189016     
   6.1200000000000004E-002     2.9423119875911041     
   6.1500000000000013E-002     4.0588368488125752     
   6.1800000000000008E-002     5.0618370620907882     
   6.2100000000000002E-002     5.8938929448899842     
   6.2399999999999997E-002     6.5037293755945313     
   6.2700000000000006E-002     6.8516820698322647     
   6.3000000000000000E-002     6.9109479116143575     
   6.3300000000000009E-002     6.6705643009750304     
   6.3600000000000004E-002     6.1363016319993164     
   6.3899999999999998E-002     5.3296989451544619     
   6.4199999999999993E-002     4.2883331361594799     
   6.4500000000000002E-002     3.0624936048154865     
   6.4800000000000010E-002     1.7129709490620328     
   6.5100000000000005E-002    0.30795588230751125     
   6.5400000000000000E-002    -1.0816188955420003     
   6.5700000000000008E-002    -2.3846174981578514     
   6.5999999999999989E-002    -3.5347566716175152     
   6.6299999999999998E-002    -4.4736500538924986     
   6.6600000000000006E-002    -5.1539230387583643     
   6.6900000000000001E-002    -5.5427735317680060     
   6.7199999999999996E-002    -5.6224845551539033     
   6.7500000000000004E-002    -5.3927108299771191     
   6.7800000000000013E-002    -4.8705092005067741     
   6.8099999999999994E-002    -4.0885517871618475     
   6.8400000000000002E-002    -3.0951929482012304     
   6.8700000000000011E-002    -1.9502840757760751     
   6.8999999999999992E-002   -0.72238384380892029     
   6.9300000000000000E-002    0.51441804642078282     
   6.9600000000000009E-002     1.6867819915701929     
   6.9900000000000004E-002     2.7241194293201687     
   7.0199999999999999E-002     3.5645700470433752     
   7.0500000000000007E-002     4.1585835344995701     
   7.0800000000000016E-002     4.4708370855292685     
   7.1099999999999997E-002     4.4849739144679575     
   7.1400000000000005E-002     4.2022997334173624     
   7.1700000000000000E-002     3.6435026217353226     
   7.1999999999999995E-002     2.8479905536429584     
   7.2300000000000003E-002     1.8699146256338963     
   7.2600000000000012E-002    0.77742718844381997     
   7.2900000000000006E-002   -0.35349197432152479     
   7.3200000000000001E-002    -1.4429943425524812     
   7.3499999999999996E-002    -2.4122204064280250     
   7.3800000000000004E-002    -3.1905298185851620     
   7.4099999999999999E-002    -3.7185400659674173     
   7.4400000000000008E-002    -3.9543519997030359     
   7.4700000000000003E-002    -3.8769277822395196     
   7.5000000000000011E-002    -3.4872800707137657     
   7.5299999999999992E-002    -2.8109579409944274     
   7.5600000000000001E-002    -1.8951323594633536     
   7.5900000000000009E-002   -0.80635236537385246     
   7.6200000000000004E-002    0.37400300904761608     
   7.6499999999999999E-002     1.5567392882970843     
   7.6800000000000007E-002     2.6508249355057742     
   7.7099999999999988E-002     3.5714655578509564     
   7.7399999999999997E-002     4.2471923885246241     
   7.7700000000000005E-002     4.6252878764177012     
   7.8000000000000014E-002     4.6771980494172283     
   7.8299999999999995E-002     4.4007006959035948     
   7.8600000000000003E-002     3.8197576179604908     
   7.8900000000000012E-002     2.9830286930238685     
   7.9199999999999993E-002     1.9586917103174954     
   7.9500000000000001E-002    0.82869514264720934     
   7.9800000000000010E-002   -0.31822733394687575     
   8.0100000000000018E-002    -1.3954952165584338     
   8.0399999999999999E-002    -2.3254716841838032     
   8.0700000000000008E-002    -3.0461784743435985     
   8.1000000000000003E-002    -3.5168285892925155     
   8.1299999999999997E-002    -3.7195062217922299     
   8.1600000000000006E-002    -3.6614199343731855     
   8.1900000000000014E-002    -3.3715095390861336     
   8.2199999999999995E-002    -2.8968421546812664     
   8.2500000000000004E-002    -2.2984715006112708     
   8.2799999999999999E-002    -1.6428418796336146     
   8.3100000000000007E-002   -0.99685010249406858     
   8.3400000000000002E-002   -0.42076707771380306     
   8.3700000000000011E-002     3.7375931075858126E-002
   8.4000000000000005E-002    0.34388791296932197     
   8.4300000000000000E-002    0.48329040087652775     
   8.4599999999999995E-002    0.45671050660965129     
   8.4900000000000003E-002    0.28031759615912843     
   8.5199999999999998E-002    -1.7132356836534690E-002
   8.5500000000000007E-002   -0.39988135374227340     
   8.5800000000000001E-002   -0.82805784921583125     
   8.6100000000000010E-002    -1.2629722982668432     
   8.6399999999999991E-002    -1.6714099889571052     
   8.6699999999999999E-002    -2.0264699223043436     
   8.7000000000000008E-002    -2.3109534321438829     
   8.7300000000000003E-002    -2.5162343469415731     
   8.7599999999999997E-002    -2.6413591265099257     
   8.7900000000000006E-002    -2.6926283372166608     
   8.8200000000000014E-002    -2.6787329984681065     
   8.8499999999999995E-002    -2.6109985796154405     
   8.8800000000000004E-002    -2.4995878276468204     
   8.9100000000000013E-002    -2.3512493795463456     
   8.9399999999999993E-002    -2.1707683219550518     
   8.9700000000000002E-002    -1.9577928863414513     
   9.0000000000000011E-002    -1.7098118758232204     
   9.0299999999999991E-002    -1.4224510147301288     
   9.0600000000000000E-002    -1.0898131008019121     
   9.0900000000000009E-002   -0.70904512504088046     
   9.1200000000000017E-002   -0.27834159890801580     
   9.1499999999999998E-002    0.19970976292959897     
   9.1800000000000007E-002    0.71751696814435029     
   9.2100000000000001E-002     1.2653717585746120     
   9.2399999999999996E-002     1.8284165724251800     
   9.2700000000000005E-002     2.3911687102352275     
   9.3000000000000013E-002     2.9381691096300884     
   9.3300000000000008E-002     3.4547088764712583     
   9.3600000000000003E-002     3.9304635686605849     
   9.3899999999999997E-002     4.3581627075306812     
   9.4200000000000006E-002     4.7361348189688357     
   9.4500000000000001E-002     5.0672125381971114     
   9.4800000000000009E-002     5.3576809876077078     
   9.5100000000000004E-002     5.6164035891183914     
   9.5399999999999999E-002     5.8519327403848820     
   9.5699999999999993E-002     6.0707803471057673     
   9.6000000000000002E-002     6.2751291340835564     
   9.6300000000000011E-002     6.4611324739559848     
   9.6600000000000005E-002     6.6178725412729875     
   9.6900000000000000E-002     6.7279025265828523     
   9.7200000000000009E-002     6.7670233242915572     
   9.7499999999999989E-002     6.7064547553802925     
   9.7799999999999998E-002     6.5161516600597054     
   9.8100000000000007E-002     6.1657435059780141     
   9.8400000000000015E-002     5.6299717286941018     
   9.8699999999999996E-002     4.8903370799018262     
   9.9000000000000005E-002     3.9373081529514877     
   9.9300000000000013E-002     2.7740943776623794     
   9.9599999999999994E-002     1.4138543816015385     
   9.9900000000000003E-002   -0.11565468354977071     
  0.10020000000000001         -1.7773827556741537     
  0.10049999999999999         -3.5246260327699872     
  0.10080000000000000         -5.3025062195049877     
  0.10110000000000001         -7.0539797027093520     
  0.10140000000000000         -8.7185172602576984     
  0.10170000000000000         -10.238562520452859     
  0.10200000000000001         -11.559765915629328     
  0.10230000000000002         -12.633453105706991     
  0.10260000000000000         -13.419809762494197     
  0.10290000000000001         -13.886406538210622     
  0.10320000000000000         -14.011770398632052     
  0.10350000000000001         -13.783868427894276     
  0.10380000000000000         -13.200399821849658     
  0.10410000000000001         -12.269902524680333     
  0.10440000000000001         -11.009712985922420     
  0.10470000000000000         -9.4466236244566630     
  0.10500000000000000         -7.6173913348915505     
  0.10530000000000000         -5.5659158991893776     
  0.10560000000000000         -3.3452327163283826     
  0.10590000000000001         -1.0159168128848615     
  0.10620000000000000          1.3564496975293849     
  0.10650000000000001          3.6982068299684556     
  0.10679999999999999          5.9346309474159682     
  0.10710000000000000          7.9889655416415053     
  0.10740000000000001          9.7848651159985636     
  0.10770000000000000          11.253379281889806     
  0.10800000000000000          12.331734130503037     
  0.10830000000000001          12.970696797339826     
  0.10859999999999999          13.137850643553350     
  0.10890000000000000          12.817565274326796     
  0.10920000000000001          12.018578528012029     
  0.10950000000000001          10.770158821865039     
  0.10979999999999999          9.1244579581317566     
  0.11009999999999999          7.1556833838595821     
  0.11040000000000001          4.9538414191704732     
  0.11070000000000001          2.6238328278769671     
  0.11100000000000000         0.27767534460139842     
  0.11130000000000000         -1.9710494757975709     
  0.11160000000000002         -4.0124397268084238     
  0.11190000000000001         -5.7488302518102898     
  0.11220000000000001         -7.0987485378288664     
  0.11250000000000000         -8.0016930084782629     
  0.11280000000000000         -8.4228999897077017     
  0.11309999999999999         -8.3538493364208080     
  0.11340000000000001         -7.8131634079004186     
  0.11369999999999998         -6.8464730670579570     
  0.11400000000000000         -5.5215054768523828     
  0.11430000000000000         -3.9263013238331865     
  0.11460000000000002         -2.1628755329215181     
  0.11489999999999999        -0.34029069158662395     
  0.11520000000000001          1.4289659495431692     
  0.11550000000000001          3.0390444714727209     
  0.11580000000000000          4.3945763612559006     
  0.11609999999999999          5.4167518048505769     
  0.11640000000000002          6.0506452095840757     
  0.11670000000000001          6.2642305835618259     
  0.11700000000000001          6.0548523337495794     
  0.11730000000000000          5.4469760144354780     
  0.11760000000000000          4.4900029466891880     
  0.11789999999999999          3.2583512919852211     
  0.11820000000000001          1.8417749606323248     
  0.11850000000000001         0.34318213455625823     
  0.11880000000000000         -1.1292673129694606     
  0.11910000000000000         -2.4719613784246803     
  0.11940000000000002         -3.5891343457797831     
  0.11970000000000001         -4.4033820734816373     
  0.12000000000000001         -4.8593067636997098     
  0.12030000000000000         -4.9266289566826131     
  0.12060000000000000         -4.6060320191815549     
  0.12089999999999999         -3.9245918050513353     
  0.12119999999999999         -2.9367802644589176     
  0.12150000000000001         -1.7208055683288883     
  0.12180000000000001        -0.36902233269653095     
  0.12210000000000000          1.0142076296372196     
  0.12239999999999999          2.3238973621885606     
  0.12270000000000002          3.4627722468546409     
  0.12300000000000001          4.3452924688506585     
  0.12330000000000001          4.9097021137595966     
  0.12360000000000000          5.1185255849885252     
  0.12390000000000000          4.9626349102020271     
  0.12419999999999999          4.4644150546839825     
  0.12450000000000001          3.6699756597646314     
  0.12480000000000001          2.6516403256339274     
  0.12509999999999999          1.4971047774342132     
  0.12540000000000001         0.30155168271711297     
  0.12570000000000003        -0.83579142994081224     
  0.12600000000000000         -1.8278221737649574     
  0.12630000000000002         -2.6007014808461264     
  0.12659999999999999         -3.1027109709053775     
  0.12690000000000001         -3.3108690222561457     
  0.12719999999999998         -3.2267354059029145     
  0.12750000000000000         -2.8825013225783778     
  0.12780000000000002         -2.3323641455936368     
  0.12809999999999999         -1.6478595774344740     
  0.12840000000000001        -0.91396248447554029     
  0.12869999999999998        -0.21407652501648666     
  0.12900000000000000         0.37254614930854046     
  0.12930000000000003         0.78128177207459970     
  0.12959999999999999         0.96968262158056717     
  0.12990000000000002         0.91729603090072587     
  0.13019999999999998         0.63244184095646183     
  0.13050000000000000         0.14709225574289952     
  0.13080000000000003        -0.48708774080308714     
  0.13109999999999999         -1.2013871994945049     
  0.13140000000000002         -1.9224111464585185     
  0.13169999999999998         -2.5768015251722858     
  0.13200000000000001         -3.1001379269075446     
  0.13229999999999997         -3.4456725264007524     
  0.13260000000000000         -3.5845765570806520     
  0.13290000000000002         -3.5126262848275616     
  0.13319999999999999         -3.2471461529365087     
  0.13350000000000001         -2.8235434088389297     
  0.13380000000000003         -2.2929598580889632     
  0.13410000000000000         -1.7115618573880766     
  0.13440000000000002         -1.1372793346432672     
  0.13469999999999999        -0.62079658834515961     
  0.13500000000000001        -0.19941712998622085     
  0.13529999999999998         0.10351530782933871     
  0.13560000000000000         0.28393494915636630     
  0.13590000000000002         0.35318264876154615     
  0.13619999999999999         0.33637560758663554     
  0.13650000000000001         0.26855149081106866     
  0.13680000000000003         0.18681383577457611     
  0.13710000000000000         0.12841113412684191     
  0.13740000000000002         0.12292855490318022     
  0.13769999999999999         0.18999084387809617     
  0.13800000000000001         0.33831494619807501     
  0.13829999999999998         0.56333791643543840     
  0.13860000000000000         0.85115190413108621     
  0.13890000000000002          1.1795238767317855     
  0.13919999999999999          1.5217985503318303     
  0.13950000000000001          1.8516490947646975     
  0.13979999999999998          2.1454136419910945     
  0.14010000000000000          2.3858532646945640     
  0.14040000000000002          2.5625085147929383     
  0.14069999999999999          2.6726006476760844     
  0.14100000000000001          2.7212774411476914     
  0.14130000000000004          2.7184067592123711     
  0.14160000000000000          2.6774773311659885     
  0.14189999999999997          2.6131056217660671     
  0.14219999999999999          2.5383722972371459     
  0.14250000000000002          2.4634056794000401     
  0.14279999999999998          2.3944823446499726     
  0.14310000000000000          2.3337709806687030     
  0.14339999999999997          2.2795061157003289     
  0.14369999999999999          2.2268467136409669     
  0.14400000000000002          2.1692589501851103     
  0.14429999999999998          2.0996131545247465     
  0.14460000000000001          2.0110962189598069     
  0.14490000000000003          1.8987617403135317     
  0.14520000000000000          1.7594775932623605     
  0.14550000000000002          1.5914369089730585     
  0.14579999999999999          1.3951421139878235     
  0.14610000000000001          1.1721263120058865     
  0.14640000000000003         0.92442677088420311     
  0.14670000000000000         0.65501316260822051     
  0.14699999999999996         0.36663396034285345     
  0.14729999999999999          6.2229300543223953E-002
  0.14760000000000001        -0.25493502440954785     
  0.14789999999999998        -0.58141618747430357     
  0.14820000000000000        -0.91286104081685693     