  -1.4999999999999999E-002     0.0000000000000000     
  -1.4700000000000000E-002     0.0000000000000000     
  -1.4400000000000000E-002     0.0000000000000000     
  -1.4100000000000000E-002     0.0000000000000000     
  -1.3800000000000000E-002     0.0000000000000000     
  -1.3500000000000000E-002     0.0000000000000000     
  -1.3200000000000000E-002     0.0000000000000000     
  -1.2899999999999998E-002     0.0000000000000000     
  -1.2600000000000000E-002     0.0000000000000000     
  -1.2299999999999998E-002     0.0000000000000000     
  -1.2000000000000000E-002     0.0000000000000000     
  -1.1699999999999999E-002     0.0000000000000000     
  -1.1399999999999999E-002     0.0000000000000000     
  -1.1099999999999999E-002     0.0000000000000000     
  -1.0799999999999999E-002     0.0000000000000000     
  -1.0499999999999999E-002     0.0000000000000000     
  -1.0199999999999999E-002     0.0000000000000000     
  -9.8999999999999991E-003     0.0000000000000000     
  -9.5999999999999992E-003     0.0000000000000000     
  -9.2999999999999992E-003     0.0000000000000000     
  -8.9999999999999993E-003     0.0000000000000000     
  -8.6999999999999994E-003     0.0000000000000000     
  -8.3999999999999995E-003     0.0000000000000000     
  -8.0999999999999996E-003     0.0000000000000000     
  -7.7999999999999988E-003     0.0000000000000000     
  -7.4999999999999997E-003     0.0000000000000000     
  -7.1999999999999998E-003     0.0000000000000000     
  -6.8999999999999981E-003     0.0000000000000000     
  -6.5999999999999982E-003     0.0000000000000000     
  -6.3000000000000000E-003     0.0000000000000000     
  -6.0000000000000001E-003     0.0000000000000000     
  -5.6999999999999985E-003     0.0000000000000000     
  -5.3999999999999986E-003     0.0000000000000000     
  -5.1000000000000004E-003     0.0000000000000000     
  -4.7999999999999987E-003     0.0000000000000000     
  -4.5000000000000005E-003     0.0000000000000000     
  -4.1999999999999989E-003     0.0000000000000000     
  -3.8999999999999990E-003     0.0000000000000000     
  -3.5999999999999990E-003     0.0000000000000000     
  -3.2999999999999991E-003     0.0000000000000000     
  -2.9999999999999992E-003     0.0000000000000000     
  -2.6999999999999993E-003     0.0000000000000000     
  -2.3999999999999994E-003     0.0000000000000000     
  -2.0999999999999977E-003     0.0000000000000000     
  -1.7999999999999995E-003     0.0000000000000000     
  -1.4999999999999979E-003     0.0000000000000000     
  -1.1999999999999997E-003     0.0000000000000000     
  -8.9999999999999976E-004     0.0000000000000000     
  -5.9999999999999810E-004     0.0000000000000000     
  -2.9999999999999992E-004     0.0000000000000000     
   0.0000000000000000          0.0000000000000000     
   3.0000000000000165E-004     0.0000000000000000     
   5.9999999999999984E-004     0.0000000000000000     
   9.0000000000000149E-004     0.0000000000000000     
   1.2000000000000031E-003     0.0000000000000000     
   1.5000000000000013E-003     0.0000000000000000     
   1.8000000000000030E-003     0.0000000000000000     
   2.1000000000000012E-003     0.0000000000000000     
   2.3999999999999994E-003     0.0000000000000000     
   2.7000000000000010E-003     0.0000000000000000     
   2.9999999999999992E-003     0.0000000000000000     
   3.3000000000000008E-003     0.0000000000000000     
   3.6000000000000025E-003     0.0000000000000000     
   3.9000000000000007E-003     0.0000000000000000     
   4.2000000000000023E-003     0.0000000000000000     
   4.5000000000000005E-003     0.0000000000000000     
   4.7999999999999987E-003     0.0000000000000000     
   5.1000000000000004E-003     0.0000000000000000     
   5.4000000000000020E-003     0.0000000000000000     
   5.7000000000000037E-003     0.0000000000000000     
   5.9999999999999984E-003     0.0000000000000000     
   6.3000000000000000E-003     0.0000000000000000     
   6.6000000000000017E-003     0.0000000000000000     
   6.9000000000000034E-003    -3.1181043225668383E-038
   7.2000000000000015E-003     1.1708639225975480E-036
   7.5000000000000032E-003     1.3726351710442805E-035
   7.8000000000000014E-003    -6.6277534084259511E-036
   8.0999999999999996E-003    -3.5904002708068989E-035
   8.4000000000000012E-003     2.3286385247530494E-035
   8.7000000000000029E-003     2.0008380923046457E-034
   9.0000000000000011E-003    -1.2486849453728026E-035
   9.2999999999999992E-003    -1.2692846573514977E-033
   9.6000000000000009E-003    -1.0140048450708255E-033
   9.8999999999999991E-003     4.5752267861758598E-033
   1.0200000000000001E-002     1.6180764227725253E-033
   1.0500000000000002E-002     1.5576616702068230E-032
   1.0800000000000004E-002     2.7005558010988859E-031
   1.1099999999999999E-002    -3.2306632222745212E-030
   1.1400000000000000E-002     6.6751498073590972E-030
   1.1700000000000002E-002     7.5060447354694680E-029
   1.2000000000000004E-002    -5.8381764036029971E-028
   1.2300000000000002E-002     9.7754676558155701E-028
   1.2600000000000000E-002     8.4655876190414015E-027
   1.2900000000000002E-002    -5.9693930536834117E-026
   1.3200000000000000E-002     1.2900165962179013E-025
   1.3500000000000002E-002     3.4550194660985156E-025
   1.3800000000000003E-002    -3.3980936854559570E-024
   1.4100000000000001E-002     1.1048701430408633E-023
   1.4400000000000000E-002    -1.1102273763343097E-023
   1.4700000000000001E-002    -6.3783556750923888E-023
   1.4999999999999999E-002     3.8683800087477748E-022
   1.5300000000000001E-002    -1.1762758726509807E-021
   1.5600000000000003E-002     2.2570079416874685E-021
   1.5899999999999997E-002    -2.0006372856553657E-021
   1.6199999999999999E-002    -4.2511893411557992E-021
   1.6500000000000001E-002     2.6997360889379462E-020
   1.6800000000000002E-002    -9.8702131058410947E-020
   1.7100000000000004E-002     3.7434322284907519E-019
   1.7400000000000006E-002    -1.6204009114673845E-018
   1.7700000000000000E-002     7.2202114127916127E-018
   1.8000000000000002E-002    -3.0689648114081057E-017
   1.8300000000000004E-002     1.2307510484591152E-016
   1.8600000000000005E-002    -4.7434718548967675E-016
   1.8900000000000000E-002     1.7999767766509103E-015
   1.9200000000000002E-002    -6.8334560896659603E-015
   1.9500000000000003E-002     2.5919296277408105E-014
   1.9799999999999998E-002    -9.6136064332754539E-014
   2.0100000000000000E-002     3.3528456161620313E-013
   2.0400000000000001E-002    -1.0366145875712052E-012
   2.0700000000000003E-002     2.5513536595911379E-012
   2.0999999999999998E-002    -3.4433918390253115E-012
   2.1299999999999999E-002    -7.9744648384671990E-012
   2.1600000000000001E-002     7.4893050094892999E-011
   2.1900000000000003E-002    -2.8059871093333300E-010
   2.2200000000000004E-002     5.8344507003482704E-010
   2.2500000000000006E-002    -1.6209666942046397E-010
   2.2800000000000001E-002    -3.2625406820585567E-009
   2.3100000000000002E-002     1.0298624175675286E-008
   2.3400000000000004E-002    -7.8621100740861039E-009
   2.3699999999999999E-002    -3.3366408302981654E-008
   2.4000000000000000E-002     8.9321119389751402E-008
   2.4300000000000002E-002     1.7044893496631630E-008
   2.4599999999999997E-002    -3.3879331340358476E-007
   2.4900000000000005E-002     1.0980613751598867E-007
   2.5200000000000000E-002     1.0051526260212995E-006
   2.5499999999999995E-002    -1.4923092805929628E-007
   2.5800000000000003E-002    -2.9830721359758172E-006
   2.6099999999999998E-002    -1.6353903902199818E-006
   2.6400000000000007E-002     9.9534181572380476E-006
   2.6700000000000002E-002     3.1137413316173479E-005
   2.6999999999999996E-002     5.7047807786148041E-005
   2.7300000000000005E-002     8.7988162704277784E-005
   2.7600000000000000E-002     1.3266741007100791E-004
   2.7900000000000008E-002     2.0566438615787774E-004
   2.8200000000000003E-002     3.2479583751410246E-004
   2.8499999999999998E-002     5.0941883819177747E-004
   2.8800000000000006E-002     7.8466587001457810E-004
   2.9100000000000001E-002     1.1881967075169086E-003
   2.9400000000000003E-002     1.7737386515364051E-003
   2.9700000000000004E-002     2.6148364413529634E-003
   3.0000000000000006E-002     3.8077710196375847E-003
   3.0300000000000001E-002     5.4733422584831715E-003
   3.0600000000000002E-002     7.7591720037162304E-003
   3.0900000000000004E-002     1.0841952636837959E-002
   3.1199999999999999E-002     1.4930635690689087E-002
   3.1500000000000007E-002     2.0261082798242569E-002
   3.1800000000000002E-002     2.7081556618213654E-002
   3.2099999999999997E-002     3.5637736320495605E-002
   3.2400000000000005E-002     4.6152237802743912E-002
   3.2700000000000000E-002     5.8790910989046097E-002
   3.3000000000000002E-002     7.3615759611129761E-002
   3.3300000000000003E-002     9.0532280504703522E-002
   3.3599999999999998E-002    0.10923707485198975     
   3.3900000000000000E-002    0.12916107475757599     
   3.4200000000000001E-002    0.14940746128559113     
   3.4500000000000003E-002    0.16871249675750732     
   3.4799999999999998E-002    0.18543060123920441     
   3.5099999999999999E-002    0.19754594564437866     
   3.5400000000000001E-002    0.20271195471286774     
   3.5699999999999996E-002    0.19834905862808228     
   3.6000000000000004E-002    0.18180826306343079     
   3.6299999999999999E-002    0.15057915449142456     
   3.6600000000000008E-002    0.10254482924938202     
   3.6900000000000002E-002     3.6249950528144836E-002
   3.7199999999999997E-002    -4.8801645636558533E-002
   3.7500000000000006E-002   -0.15187861025333405     
   3.7800000000000000E-002   -0.27080610394477844     
   3.8100000000000009E-002   -0.40181782841682434     
   3.8400000000000004E-002   -0.53954994678497314     
   3.8699999999999998E-002   -0.67717164754867554     
   3.9000000000000007E-002   -0.80662935972213745     
   3.9300000000000002E-002   -0.91911602020263672     
   3.9600000000000003E-002    -1.0056130886077881     
   3.9900000000000005E-002    -1.0575486421585083     
   4.0200000000000000E-002    -1.0675122737884521     
   4.0500000000000001E-002    -1.0299245119094849     
   4.0800000000000003E-002   -0.94169378280639648     
   4.1100000000000005E-002   -0.80263102054595947     
   4.1399999999999999E-002   -0.61571991443634033     
   4.1700000000000008E-002   -0.38720169663429260     
   4.2000000000000003E-002   -0.12625470757484436     
   4.2299999999999997E-002    0.15542855858802795     
   4.2600000000000006E-002    0.44433459639549255     
   4.2900000000000001E-002    0.72611761093139648     
   4.3200000000000002E-002    0.98631459474563599     
   4.3500000000000004E-002     1.2116276025772095     
   4.3799999999999999E-002     1.3906106948852539     
   4.4100000000000000E-002     1.5144534111022949     
   4.4400000000000002E-002     1.5777107477188110     
   4.4700000000000004E-002     1.5783146619796753     
   4.4999999999999998E-002     1.5179038047790527     
   4.5300000000000000E-002     1.4014616012573242     
   4.5600000000000002E-002     1.2367730140686035     
   4.5899999999999996E-002     1.0340380668640137     
   4.6200000000000005E-002    0.80483603477478027     
   4.6500000000000000E-002    0.56148505210876465     
   4.6799999999999994E-002    0.31623908877372742     
   4.7100000000000003E-002     8.0375589430332184E-002
   4.7399999999999998E-002   -0.13615088164806366     
   4.7700000000000006E-002   -0.32546526193618774     
   4.8000000000000001E-002   -0.48181268572807312     
   4.8300000000000010E-002   -0.60177785158157349     
   4.8600000000000004E-002   -0.68422418832778931     
   4.8899999999999999E-002   -0.73004686832427979     
   4.9200000000000008E-002   -0.74195337295532227     
   4.9500000000000002E-002   -0.72401624917984009     
   4.9800000000000011E-002   -0.68134140968322754     
   5.0100000000000006E-002   -0.61957478523254395     
   5.0400000000000000E-002   -0.54456526041030884     
   5.0700000000000009E-002   -0.46205624938011169     
   5.1000000000000004E-002   -0.37732693552970886     
   5.1299999999999998E-002   -0.29506799578666687     
   5.1600000000000007E-002   -0.21909803152084351     
   5.1900000000000002E-002   -0.15239390730857849     
   5.2200000000000010E-002    -9.6995569765567780E-002
   5.2500000000000005E-002    -5.3980186581611633E-002
   5.2800000000000000E-002    -2.3637875914573669E-002
   5.3099999999999994E-002    -5.4093329235911369E-003
   5.3400000000000003E-002     1.8087031785398722E-003
   5.3699999999999998E-002    -4.4257508125156164E-004
   5.4000000000000006E-002    -1.0364814661443233E-002
   5.4300000000000001E-002    -2.6258440688252449E-002
   5.4599999999999996E-002    -4.6578940004110336E-002
   5.4900000000000004E-002    -7.0251658558845520E-002
   5.5199999999999999E-002    -9.6713364124298096E-002
   5.5499999999999994E-002   -0.12593364715576172     
   5.5800000000000002E-002   -0.15851411223411560     
   5.6099999999999997E-002   -0.19533897936344147     
   5.6400000000000006E-002   -0.23742063343524933     
   5.6700000000000000E-002   -0.28551980853080750     
   5.6999999999999995E-002   -0.33972293138504028     
   5.7300000000000004E-002   -0.39915555715560913     
   5.7599999999999998E-002   -0.46156403422355652     
   5.7900000000000007E-002   -0.52324229478836060     
   5.8200000000000002E-002   -0.57898223400115967     
   5.8499999999999996E-002   -0.62226152420043945     
   5.8800000000000005E-002   -0.64574247598648071     
   5.9100000000000000E-002   -0.64187216758728027     
   5.9400000000000008E-002   -0.60370796918869019     
   5.9700000000000003E-002   -0.52574282884597778     
   6.0000000000000012E-002   -0.40472745895385742     
   6.0300000000000006E-002   -0.24036847054958344     
   6.0600000000000001E-002    -3.5823516547679901E-002
   6.0900000000000010E-002    0.20220859348773956     
   6.1200000000000004E-002    0.46358326077461243     
   6.1500000000000013E-002    0.73527693748474121     
   6.1800000000000008E-002     1.0023661851882935     
   6.2100000000000002E-002     1.2489629983901978     
   6.2399999999999997E-002     1.4595764875411987     
   6.2700000000000006E-002     1.6204131841659546     
   6.3000000000000000E-002     1.7203259468078613     
   6.3300000000000009E-002     1.7520190477371216     
   6.3600000000000004E-002     1.7124291658401489     
   6.3899999999999998E-002     1.6029788255691528     
   6.4199999999999993E-002     1.4295992851257324     
   6.4500000000000002E-002     1.2018569707870483     
   6.4800000000000010E-002    0.93241775035858154     
   6.5100000000000005E-002    0.63585072755813599     
   6.5400000000000000E-002    0.32738226652145386     
   6.5700000000000008E-002     2.2081905975937843E-002
   6.5999999999999989E-002   -0.26654258370399475     
   6.6299999999999998E-002   -0.52709615230560303     
   6.6600000000000006E-002   -0.75085228681564331     
   6.6900000000000001E-002   -0.93224304914474487     
   6.7199999999999996E-002    -1.0684757232666016     
   6.7500000000000004E-002    -1.1594880819320679     
   6.7800000000000013E-002    -1.2075122594833374     
   6.8099999999999994E-002    -1.2162626981735229     
   6.8400000000000002E-002    -1.1907340288162231     
   6.8700000000000011E-002    -1.1362150907516479     
   6.8999999999999992E-002    -1.0581580400466919     
   6.9300000000000000E-002   -0.96188694238662720     
   6.9600000000000009E-002   -0.85213601589202881     
   6.9900000000000004E-002   -0.73351413011550903     
   7.0199999999999999E-002   -0.61022752523422241     
   7.0500000000000007E-002   -0.48635834455490112     
   7.0800000000000016E-002   -0.36612975597381592     
   7.1099999999999997E-002   -0.25363102555274963     
   7.1400000000000005E-002   -0.15320517122745514     
   7.1700000000000000E-002    -6.8957693874835968E-002
   7.1999999999999995E-002    -4.5596095733344555E-003
   7.2300000000000003E-002     3.6940574645996094E-002
   7.2600000000000012E-002     5.3965959697961807E-002
   7.2900000000000006E-002     4.6374287456274033E-002
   7.3200000000000001E-002     1.5934728085994720E-002
   7.3499999999999996E-002    -3.3378202468156815E-002
   7.3800000000000004E-002    -9.5840103924274445E-002
   7.4099999999999999E-002   -0.16381524503231049     
   7.4400000000000008E-002   -0.22862488031387329     
   7.4700000000000003E-002   -0.28112429380416870     
   7.5000000000000011E-002   -0.31230738759040833     
   7.5299999999999992E-002   -0.31454539299011230     
   7.5600000000000001E-002   -0.28196793794631958     
   7.5900000000000009E-002   -0.21131667494773865     
   7.6200000000000004E-002   -0.10248743742704391     
   7.6499999999999999E-002     4.1599623858928680E-002
   7.6800000000000007E-002    0.21471986174583435     
   7.7099999999999988E-002    0.40792056918144226     
   7.7399999999999997E-002    0.61013555526733398     
   7.7700000000000005E-002    0.80884772539138794     
   7.8000000000000014E-002    0.99113261699676514     
   7.8299999999999995E-002     1.1445252895355225     
   7.8600000000000003E-002     1.2580103874206543     
   7.8900000000000012E-002     1.3229091167449951     
   7.9199999999999993E-002     1.3334764242172241     
   7.9500000000000001E-002     1.2873569726943970     
   7.9800000000000010E-002     1.1859112977981567     
   8.0100000000000018E-002     1.0339947938919067     
   8.0399999999999999E-002    0.83975571393966675     
   8.0700000000000008E-002    0.61404693126678467     
   8.1000000000000003E-002    0.36957579851150513     
   8.1299999999999997E-002    0.12022101134061813     
   8.1600000000000006E-002   -0.12012039124965668     
   8.1900000000000014E-002   -0.33847394585609436     
   8.2199999999999995E-002   -0.52356213331222534     
   8.2500000000000004E-002   -0.66672909259796143     
   8.2799999999999999E-002   -0.76232469081878662     
   8.3100000000000007E-002   -0.80816549062728882     
   8.3400000000000002E-002   -0.80564540624618530     
   8.3700000000000011E-002   -0.75938284397125244     
   8.4000000000000005E-002   -0.67706072330474854     
   8.4300000000000000E-002   -0.56869024038314819     
   8.4599999999999995E-002   -0.44590970873832703     
   8.4900000000000003E-002   -0.32137843966484070     
   8.5199999999999998E-002   -0.20768044888973236     
   8.5500000000000007E-002   -0.11671875417232513     
   8.5800000000000001E-002    -5.8895476162433624E-002
   8.6100000000000010E-002    -4.2291320860385895E-002
   8.6399999999999991E-002    -7.2329327464103699E-002
   8.6699999999999999E-002   -0.15111750364303589     
   8.7000000000000008E-002   -0.27723142504692078     
   8.7300000000000003E-002   -0.44570702314376831     
   8.7599999999999997E-002   -0.64778536558151245     
   8.7900000000000006E-002   -0.87131220102310181     
   8.8200000000000014E-002    -1.1011712551116943     
   8.8499999999999995E-002    -1.3197734355926514     
   8.8800000000000004E-002    -1.5081279277801514     
   8.9100000000000013E-002    -1.6467062234878540     
   8.9399999999999993E-002    -1.7166938781738281     
   8.9700000000000002E-002    -1.7014323472976685     
   9.0000000000000011E-002    -1.5875679254531860     
   9.0299999999999991E-002    -1.3664743900299072     
   9.0600000000000000E-002    -1.0356079339981079     
   9.0900000000000009E-002   -0.59901076555252075     
   9.1200000000000017E-002    -6.8161457777023315E-002
   9.1499999999999998E-002    0.53808927536010742     
   9.1800000000000007E-002     1.1942695379257202     
   9.2100000000000001E-002     1.8687771558761597     
   9.2399999999999996E-002     2.5261659622192383     
   9.2700000000000005E-002     3.1287164688110352     
   9.3000000000000013E-002     3.6390461921691895     
   9.3300000000000008E-002     4.0231409072875977     
   9.3600000000000003E-002     4.2521672248840332     
   9.3899999999999997E-002     4.3057904243469238     
   9.4200000000000006E-002     4.1735897064208984     
   9.4500000000000001E-002     3.8561320304870605     
   9.4800000000000009E-002     3.3661592006683350     
   9.5100000000000004E-002     2.7270252704620361     
   9.5399999999999999E-002     1.9721416234970093     
   9.5699999999999993E-002     1.1423305273056030     
   9.6000000000000002E-002    0.28251057863235474     
   9.6300000000000011E-002   -0.56079959869384766     
   9.6600000000000005E-002    -1.3441541194915771     
   9.6900000000000000E-002    -2.0297143459320068     
   9.7200000000000009E-002    -2.5884847640991211     
   9.7499999999999989E-002    -3.0024733543395996     
   9.7799999999999998E-002    -3.2650566101074219     
   9.8100000000000007E-002    -3.3816347122192383     
   9.8400000000000015E-002    -3.3679111003875732     
   9.8699999999999996E-002    -3.2476801872253418     
   9.9000000000000005E-002    -3.0502319335937500     
   9.9300000000000013E-002    -2.8064289093017578     
   9.9599999999999994E-002    -2.5455822944641113     
   9.9900000000000003E-002    -2.2924244403839111     
  0.10020000000000001         -2.0641548633575439     
  0.10049999999999999         -1.8695222139358521     
  0.10080000000000000         -1.7079603672027588     
  0.10110000000000001         -1.5703904628753662     
  0.10140000000000000         -1.4410756826400757     
  0.10170000000000000         -1.2998292446136475     
  0.10200000000000001         -1.1253242492675781     
  0.10230000000000002        -0.89801359176635742     
  0.10260000000000000        -0.60298651456832886     
  0.10290000000000001        -0.23252125084400177     
  0.10320000000000000         0.21239100396633148     
  0.10350000000000001         0.72130495309829712     
  0.10380000000000000          1.2749146223068237     
  0.10410000000000001          1.8460721969604492     
  0.10440000000000001          2.4021911621093750     
  0.10470000000000000          2.9076483249664307     
  0.10500000000000000          3.3269093036651611     
  0.10530000000000000          3.6277241706848145     
  0.10560000000000000          3.7836229801177979     
  0.10590000000000001          3.7766826152801514     
  0.10620000000000000          3.5987470149993896     
  0.10650000000000001          3.2525417804718018     
  0.10679999999999999          2.7517650127410889     
  0.10710000000000000          2.1200466156005859     
  0.10740000000000001          1.3897888660430908     
  0.10770000000000000         0.59967899322509766     
  0.10800000000000000        -0.20771297812461853     
  0.10830000000000001        -0.98873144388198853     
  0.10859999999999999         -1.7018837928771973     
  0.10890000000000000         -2.3099482059478760     
  0.10920000000000001         -2.7828538417816162     
  0.10950000000000001         -3.0990848541259766     
  0.10979999999999999         -3.2469663619995117     
  0.11009999999999999         -3.2252397537231445     
  0.11040000000000001         -3.0422303676605225     
  0.11070000000000001         -2.7155680656433105     
  0.11100000000000000         -2.2703068256378174     
  0.11130000000000000         -1.7369595766067505     
  0.11160000000000002         -1.1497663259506226     
  0.11190000000000001        -0.54407346248626709     
  0.11220000000000001          4.5368418097496033E-002
  0.11250000000000000         0.58611655235290527     
  0.11280000000000000          1.0498639345169067     
  0.11309999999999999          1.4130833148956299     
  0.11340000000000001          1.6580467224121094     
  0.11369999999999998          1.7733088731765747     
  0.11400000000000000          1.7536200284957886     
  0.11430000000000000          1.6004782915115356     
  0.11460000000000002          1.3216819763183594     
  0.11489999999999999         0.93118917942047119     
  0.11520000000000001         0.44955584406852722     
  0.11550000000000001         -9.7315773367881775E-002
  0.11580000000000000        -0.67834585905075073     
  0.11609999999999999         -1.2581739425659180     
  0.11640000000000002         -1.7993326187133789     
  0.11670000000000001         -2.2631454467773438     
  0.11700000000000001         -2.6128830909729004     
  0.11730000000000000         -2.8160762786865234     
  0.11760000000000000         -2.8467183113098145     
  0.11789999999999999         -2.6888558864593506     
  0.11820000000000001         -2.3374841213226318     
  0.11850000000000001         -1.8006770610809326     
  0.11880000000000000         -1.1001961231231689     
  0.11910000000000000        -0.26977819204330444     
  0.11940000000000002         0.64521026611328125     
  0.11970000000000001          1.5917634963989258     
  0.12000000000000001          2.5125014781951904     
  0.12030000000000000          3.3491203784942627     
  0.12060000000000000          4.0480217933654785     
  0.12089999999999999          4.5628962516784668     
  0.12119999999999999          4.8589005470275879     
  0.12150000000000001          4.9155778884887695     
  0.12180000000000001          4.7269520759582520     
  0.12210000000000000          4.3033213615417480     
  0.12239999999999999          3.6692087650299072     
  0.12270000000000002          2.8615374565124512     
  0.12300000000000001          1.9279152154922485     
  0.12330000000000001         0.92179071903228760     
  0.12360000000000000         -9.9374681711196899E-002
  0.12390000000000000         -1.0783323049545288     
  0.12419999999999999         -1.9619039297103882     
  0.12450000000000001         -2.7022140026092529     
  0.12480000000000001         -3.2610900402069092     
  0.12509999999999999         -3.6105189323425293     
  0.12540000000000001         -3.7344648838043213     
  0.12570000000000003         -3.6303339004516602     
  0.12600000000000000         -3.3075764179229736     
  0.12630000000000002         -2.7890861034393311     
  0.12659999999999999         -2.1090941429138184     
  0.12690000000000001         -1.3116457462310791     
  0.12719999999999998        -0.44920879602432251     
  0.12750000000000000         0.42165395617485046     
  0.12780000000000002          1.2423285245895386     
  0.12809999999999999          1.9565827846527100     
  0.12840000000000001          2.5147233009338379     
  0.12869999999999998          2.8763451576232910     
  0.12900000000000000          3.0148029327392578     
  0.12930000000000003          2.9186997413635254     
  0.12959999999999999          2.5937438011169434     
  0.12990000000000002          2.0632398128509521     
  0.13019999999999998          1.3658304214477539     
  0.13050000000000000         0.55377918481826782     
  0.13080000000000003        -0.31150394678115845     
  0.13109999999999999         -1.1643944978713989     
  0.13140000000000002         -1.9399139881134033     
  0.13169999999999998         -2.5796961784362793     
  0.13200000000000001         -3.0366480350494385     
  0.13229999999999997         -3.2787811756134033     
  0.13260000000000000         -3.2922873497009277     
  0.13290000000000002         -3.0821495056152344     
  0.13319999999999999         -2.6716289520263672     
  0.13350000000000001         -2.1002147197723389     
  0.13380000000000003         -1.4191924333572388     
  0.13410000000000000        -0.68756484985351562     
  0.13440000000000002          3.3739846199750900E-002
  0.13469999999999999         0.68770766258239746     
  0.13500000000000001          1.2251237630844116     
  0.13529999999999998          1.6100296974182129     
  0.13560000000000000          1.8215935230255127     
  0.13590000000000002          1.8552199602127075     
  0.13619999999999999          1.7232425212860107     
  0.13650000000000001          1.4516518115997314     
  0.13680000000000003          1.0777912139892578     
  0.13710000000000000         0.64588987827301025     
  0.13740000000000002         0.20179012417793274     
  0.13769999999999999        -0.21060886979103088     
  0.13800000000000001        -0.55503278970718384     
  0.13829999999999998        -0.80541044473648071     
  0.13860000000000000        -0.94795483350753784     
  0.13890000000000002        -0.98296344280242920     
  0.13919999999999999        -0.92279875278472900     
  0.13950000000000001        -0.79098892211914062     
  0.13979999999999998        -0.61865353584289551     
  0.14010000000000000        -0.44001567363739014     
  0.14040000000000002        -0.28936767578125000     
  0.14069999999999999        -0.19578640162944794     
  0.14100000000000001        -0.18026348948478699     
  0.14130000000000004        -0.25318369269371033     
  0.14160000000000000        -0.41245001554489136     
  0.14189999999999997        -0.64462953805923462     
  0.14219999999999999        -0.92531740665435791     
  0.14250000000000002         -1.2224617004394531     
  0.14279999999999998         -1.5001536607742310     
  0.14310000000000000         -1.7218314409255981     
  0.14339999999999997         -1.8553897142410278     
  0.14369999999999999         -1.8758673667907715     
  0.14400000000000002         -1.7690039873123169     
  0.14429999999999998         -1.5326642990112305     
  0.14460000000000001         -1.1767538785934448     
  0.14490000000000003        -0.72298854589462280     
  0.14520000000000000        -0.20173126459121704     
  0.14550000000000002         0.35044822096824646     
  0.14579999999999999         0.89483106136322021     
  0.14610000000000001          1.3946679830551147     
  0.14640000000000003          1.8179701566696167     
  0.14670000000000000          2.1411290168762207     
  0.14699999999999996          2.3499913215637207     
  0.14729999999999999          2.4409315586090088     
  0.14760000000000001          2.4205155372619629     
  0.14789999999999998          2.3032054901123047     
  0.14820000000000000          2.1101329326629639     