  -1.4999999999999999E-002     0.0000000000000000     
  -1.4700000000000000E-002     0.0000000000000000     
  -1.4400000000000000E-002     5.4236551153084065E-032
  -1.4100000000000000E-002     3.0174630181720972E-028
  -1.3800000000000000E-002     1.2431736042575701E-026
  -1.3500000000000000E-002    -3.4018569464043138E-024
  -1.3200000000000000E-002    -7.2603930439057614E-023
  -1.2899999999999998E-002     4.2657942488461886E-022
  -1.2600000000000000E-002     1.0138801235676477E-020
  -1.2299999999999998E-002    -3.1547569963521429E-020
  -1.2000000000000000E-002    -3.2110587862516233E-019
  -1.1699999999999999E-002     9.4574620001454100E-019
  -1.1399999999999999E-002     4.1642182823134411E-018
  -1.1099999999999999E-002    -3.5449778063025662E-017
  -1.0799999999999999E-002     1.4686333695527890E-016
  -1.0499999999999999E-002     2.2341449542875793E-016
  -1.0199999999999999E-002    -4.6990423298353193E-015
  -9.8999999999999991E-003     1.2814963052851756E-014
  -9.5999999999999992E-003     1.4322947667309849E-014
  -9.2999999999999992E-003    -1.3377275361655533E-013
  -8.9999999999999993E-003     2.4189032938118360E-013
  -8.6999999999999994E-003    -6.4558269483299541E-014
  -8.3999999999999995E-003    -4.8983993944373694E-013
  -8.0999999999999996E-003     1.3421483976289172E-012
  -7.7999999999999988E-003    -1.9696685688713744E-012
  -7.4999999999999997E-003     1.2276408188627297E-012
  -7.1999999999999998E-003    -1.5491096903505475E-012
  -6.8999999999999981E-003     5.6550536822741471E-012
  -6.5999999999999982E-003     2.2801394019417165E-012
  -6.3000000000000000E-003    -3.4201780296783113E-011
  -6.0000000000000001E-003     3.7972257282969935E-011
  -5.6999999999999985E-003     4.8455652684742390E-011
  -5.3999999999999986E-003    -1.5227955008079164E-010
  -5.1000000000000004E-003     5.2901447111786126E-011
  -4.7999999999999987E-003     3.7033787148033070E-010
  -4.5000000000000005E-003    -6.6217192840056782E-010
  -4.1999999999999989E-003     7.6698716822143354E-012
  -3.8999999999999990E-003     1.2619770783928175E-009
  -3.5999999999999990E-003    -1.3391849851274173E-009
  -3.2999999999999991E-003    -6.3158300811494428E-010
  -2.9999999999999992E-003     2.1933952432107162E-009
  -2.6999999999999993E-003     5.7759735883067265E-010
  -2.3999999999999994E-003    -4.7297730176865116E-009
  -2.0999999999999977E-003    -3.0235219883323339E-010
  -1.7999999999999995E-003     1.1618517703482212E-008
  -1.4999999999999979E-003    -7.9529502983177736E-009
  -1.1999999999999997E-003    -1.6248005607621963E-008
  -8.9999999999999976E-004     3.8092959897539913E-008
  -5.9999999999999810E-004    -1.4441361884109938E-008
  -2.9999999999999992E-004    -1.1003762523387195E-007
   0.0000000000000000          2.3965992568264483E-007
   3.0000000000000165E-004     5.5346575322801073E-008
   5.9999999999999984E-004    -8.9403107494945289E-007
   9.0000000000000149E-004     8.1452060385345249E-007
   1.2000000000000031E-003     1.9101503312413115E-006
   1.5000000000000013E-003    -3.9707101677777246E-006
   1.8000000000000030E-003    -3.0101743959676242E-006
   2.1000000000000012E-003     1.2554321983770933E-005
   2.3999999999999994E-003     5.9382250583439600E-006
   2.7000000000000010E-003    -3.4026797948172316E-005
   2.9999999999999992E-003    -2.7928170311497524E-005
   3.3000000000000008E-003     9.7858144727069885E-005
   3.6000000000000025E-003     3.2162142451852560E-004
   3.9000000000000007E-003     5.8762391563504934E-004
   4.2000000000000023E-003     8.7965239072218537E-004
   4.5000000000000005E-003     1.2328770244494081E-003
   4.7999999999999987E-003     1.7709513194859028E-003
   5.1000000000000004E-003     2.7085046749562025E-003
   5.4000000000000020E-003     4.2489748448133469E-003
   5.7000000000000037E-003     6.5612155012786388E-003
   5.9999999999999984E-003     9.8850606009364128E-003
   6.3000000000000000E-003     1.4602529816329479E-002
   6.6000000000000017E-003     2.1264376118779182E-002
   6.9000000000000034E-003     3.0588256195187569E-002
   7.2000000000000015E-003     4.3409060686826706E-002
   7.5000000000000032E-003     6.0666497796773911E-002
   7.8000000000000014E-003     8.3445250988006592E-002
   8.0999999999999996E-003    0.11295058578252792     
   8.4000000000000012E-003    0.15036530792713165     
   8.7000000000000029E-003    0.19673261046409607     
   9.0000000000000011E-003    0.25285539031028748     
   9.2999999999999992E-003    0.31899932026863098     
   9.6000000000000009E-003    0.39453986287117004     
   9.8999999999999991E-003    0.47762361168861389     
   1.0200000000000001E-002    0.56481438875198364     
   1.0500000000000002E-002    0.65083724260330200     
   1.0800000000000004E-002    0.72833389043807983     
   1.1099999999999999E-002    0.78764098882675171     
   1.1400000000000000E-002    0.81670469045639038     
   1.1700000000000002E-002    0.80143964290618896     
   1.2000000000000004E-002    0.72654116153717041     
   1.2300000000000002E-002    0.57655060291290283     
   1.2600000000000000E-002    0.33696511387825012     
   1.2900000000000002E-002    -3.8982108235359192E-003
   1.3200000000000000E-002   -0.45287710428237915     
   1.3500000000000002E-002    -1.0098116397857666     
   1.3800000000000003E-002    -1.6656283140182495     
   1.4100000000000001E-002    -2.4011583328247070     
   1.4400000000000000E-002    -3.1860032081604004     
   1.4700000000000001E-002    -3.9786789417266846     
   1.4999999999999999E-002    -4.7277913093566895     
   1.5300000000000001E-002    -5.3742980957031250     
   1.5600000000000003E-002    -5.8556394577026367     
   1.5899999999999997E-002    -6.1101980209350586     
   1.6199999999999999E-002    -6.0826940536499023     
   1.6500000000000001E-002    -5.7299919128417969     
   1.6800000000000002E-002    -5.0264034271240234     
   1.7100000000000004E-002    -3.9683740139007568     
   1.7400000000000006E-002    -2.5773379802703857     
   1.7700000000000000E-002   -0.90055394172668457     
   1.8000000000000002E-002    0.98979204893112183     
   1.8300000000000004E-002     3.0007143020629883     
   1.8600000000000005E-002     5.0238552093505859     
   1.8900000000000000E-002     6.9435014724731445     
   1.9200000000000002E-002     8.6456975936889648     
   1.9500000000000003E-002     10.026760101318359     
   1.9799999999999998E-002     11.001977920532227     
   2.0100000000000000E-002     11.512828826904297     
   2.0400000000000001E-002     11.532323837280273     
   2.0700000000000003E-002     11.066834449768066     
   2.0999999999999998E-002     10.155678749084473     
   2.1299999999999999E-002     8.8672399520874023     
   2.1600000000000001E-002     7.2932806015014648     
   2.1900000000000003E-002     5.5411734580993652     
   2.2200000000000004E-002     3.7236766815185547     
   2.2500000000000006E-002     1.9511198997497559     
   2.2800000000000001E-002    0.32053640484809875     
   2.3100000000000002E-002    -1.0910590887069702     
   2.3400000000000004E-002    -2.2312455177307129     
   2.3699999999999999E-002    -3.0771734714508057     
   2.4000000000000000E-002    -3.6332371234893799     
   2.4300000000000002E-002    -3.9323055744171143     
   2.4599999999999997E-002    -4.0282182693481445     
   2.4900000000000005E-002    -3.9904975891113281     
   2.5200000000000000E-002    -3.8975100517272949     
   2.5499999999999995E-002    -3.8264086246490479     
   2.5800000000000003E-002    -3.8488299846649170     
   2.6099999999999998E-002    -4.0209383964538574     
   2.6400000000000007E-002    -4.3794002532958984     
   2.6700000000000002E-002    -4.9380416870117188     
   2.6999999999999996E-002    -5.6852822303771973     
   2.7300000000000005E-002    -6.5859632492065430     
   2.7600000000000000E-002    -7.5819172859191895     
   2.7900000000000008E-002    -8.5970268249511719     
   2.8200000000000003E-002    -9.5430679321289062     
   2.8499999999999998E-002    -10.324607849121094     
   2.8800000000000006E-002    -10.848479270935059     
   2.9100000000000001E-002    -11.027279853820801     
   2.9400000000000003E-002    -10.788429260253906     
   2.9700000000000004E-002    -10.079729080200195     
   3.0000000000000006E-002    -8.8737754821777344     
   3.0300000000000001E-002    -7.1720705032348633     
   3.0600000000000002E-002    -5.0065746307373047     
   3.0900000000000004E-002    -2.4395866394042969     
   3.1199999999999999E-002    0.43770760297775269     
   3.1500000000000007E-002     3.5079951286315918     
   3.1800000000000002E-002     6.6344738006591797     
   3.2099999999999997E-002     9.6666364669799805     
   3.2400000000000005E-002     12.449872016906738     
   3.2700000000000000E-002     14.834547042846680     
   3.3000000000000002E-002     16.684999465942383     
   3.3300000000000003E-002     17.889764785766602     
   3.3599999999999998E-002     18.369075775146484     
   3.3900000000000000E-002     18.081695556640625     
   3.4200000000000001E-002     17.030673980712891     
   3.4500000000000003E-002     15.262458801269531     
   3.4799999999999998E-002     12.867912292480469     
   3.5099999999999999E-002     9.9755420684814453     
   3.5400000000000001E-002     6.7437906265258789     
   3.5699999999999996E-002     3.3518767356872559     
   3.6000000000000004E-002    -1.4784947037696838E-002
   3.6299999999999999E-002    -3.1754343509674072     
   3.6600000000000008E-002    -5.9696369171142578     
   3.6900000000000002E-002    -8.2668304443359375     
   3.7199999999999997E-002    -9.9770841598510742     
   3.7500000000000006E-002    -11.057964324951172     
   3.7800000000000000E-002    -11.514621734619141     
   3.8100000000000009E-002    -11.399811744689941     
   3.8400000000000004E-002    -10.805957794189453     
   3.8699999999999998E-002    -9.8584861755371094     
   3.9000000000000007E-002    -8.6989822387695312     
   3.9300000000000002E-002    -7.4750423431396484     
   3.9600000000000003E-002    -6.3253083229064941     
   3.9900000000000005E-002    -5.3646388053894043     
   4.0200000000000000E-002    -4.6783118247985840     
   4.0500000000000001E-002    -4.3104677200317383     
   4.0800000000000003E-002    -4.2674055099487305     
   4.1100000000000005E-002    -4.5160541534423828     
   4.1399999999999999E-002    -4.9908370971679688     
   4.1700000000000008E-002    -5.6068267822265625     
   4.2000000000000003E-002    -6.2636375427246094     
   4.2299999999999997E-002    -6.8637647628784180     
   4.2600000000000006E-002    -7.3176379203796387     
   4.2900000000000001E-002    -7.5507454872131348     
   4.3200000000000002E-002    -7.5100378990173340     
   4.3500000000000004E-002    -7.1588716506958008     
   4.3799999999999999E-002    -6.4780807495117188     
   4.4100000000000000E-002    -5.4547743797302246     
   4.4400000000000002E-002    -4.0777506828308105     
   4.4700000000000004E-002    -2.3315255641937256     
   4.4999999999999998E-002   -0.19207021594047546     
   4.5300000000000000E-002     2.3706035614013672     
   4.5600000000000002E-002     5.3878445625305176     
   4.5899999999999996E-002     8.8798303604125977     
   4.6200000000000005E-002     12.842674255371094     
   4.6500000000000000E-002     17.229072570800781     
   4.6799999999999994E-002     21.935552597045898     
   4.7100000000000003E-002     26.788457870483398     
   4.7399999999999998E-002     31.539903640747070     
   4.7700000000000006E-002     35.874729156494141     
   4.8000000000000001E-002     39.420261383056641     
   4.8300000000000010E-002     41.779415130615234     
   4.8600000000000004E-002     42.558269500732422     
   4.8899999999999999E-002     41.408184051513672     
   4.9200000000000008E-002     38.071140289306641     
   4.9500000000000002E-002     32.411960601806641     
   4.9800000000000011E-002     24.458316802978516     
   5.0100000000000006E-002     14.409923553466797     
   5.0400000000000000E-002     2.6469614505767822     
   5.0700000000000009E-002    -10.283065795898438     
   5.1000000000000004E-002    -23.703094482421875     
   5.1299999999999998E-002    -36.841827392578125     
   5.1600000000000007E-002    -48.901412963867188     
   5.1900000000000002E-002    -59.109626770019531     
   5.2200000000000010E-002    -66.789268493652344     
   5.2500000000000005E-002    -71.410606384277344     
   5.2800000000000000E-002    -72.635620117187500     
   5.3099999999999994E-002    -70.351173400878906     
   5.3400000000000003E-002    -64.670173645019531     
   5.3699999999999998E-002    -55.931514739990234     
   5.4000000000000006E-002    -44.666465759277344     
   5.4300000000000001E-002    -31.558355331420898     
   5.4599999999999996E-002    -17.392042160034180     
   5.4900000000000004E-002    -2.9854423999786377     
   5.5199999999999999E-002     10.859140396118164     
   5.5499999999999994E-002     23.424150466918945     
   5.5800000000000002E-002     34.108268737792969     
   5.6099999999999997E-002     42.468605041503906     
   5.6400000000000006E-002     48.241661071777344     
   5.6700000000000000E-002     51.335750579833984     
   5.6999999999999995E-002     51.837005615234375     
   5.7300000000000004E-002     49.970100402832031     
   5.7599999999999998E-002     46.081325531005859     
   5.7900000000000007E-002     40.594814300537109     
   5.8200000000000002E-002     33.975505828857422     
   5.8499999999999996E-002     26.700057983398438     
   5.8800000000000005E-002     19.213388442993164     
   5.9100000000000000E-002     11.917127609252930     
   5.9400000000000008E-002     5.1411461830139160     
   5.9700000000000003E-002   -0.86113917827606201     
   6.0000000000000012E-002    -5.9168758392333984     
   6.0300000000000006E-002    -9.9329366683959961     
   6.0600000000000001E-002    -12.883051872253418     
   6.0900000000000010E-002    -14.806811332702637     
   6.1200000000000004E-002    -15.785449981689453     
   6.1500000000000013E-002    -15.940561294555664     
   6.1800000000000008E-002    -15.412650108337402     
   6.2100000000000002E-002    -14.354030609130859     
   6.2399999999999997E-002    -12.919800758361816     
   6.2700000000000006E-002    -11.252009391784668     
   6.3000000000000000E-002    -9.4864797592163086     
   6.3300000000000009E-002    -7.7302484512329102     
   6.3600000000000004E-002    -6.0749921798706055     
   6.3899999999999998E-002    -4.5853304862976074     
   6.4199999999999993E-002    -3.2983057498931885     
   6.4500000000000002E-002    -2.2371580600738525     
   6.4800000000000010E-002    -1.3954358100891113     
   6.5100000000000005E-002   -0.76008212566375732     
   6.5400000000000000E-002   -0.30188968777656555     
   6.5700000000000008E-002     1.3384261168539524E-002
   6.5999999999999989E-002    0.21755348145961761     
   6.6299999999999998E-002    0.34746927022933960     
   6.6600000000000006E-002    0.42518460750579834     
   6.6900000000000001E-002    0.47564008831977844     
   6.7199999999999996E-002    0.51033169031143188     
   6.7500000000000004E-002    0.53690314292907715     
   6.7800000000000013E-002    0.55959278345108032     
   6.8099999999999994E-002    0.57543814182281494     
   6.8400000000000002E-002    0.58940303325653076     
   6.8700000000000011E-002    0.59617018699645996     
   6.8999999999999992E-002    0.60130125284194946     
   6.9300000000000000E-002    0.60622829198837280     
   6.9600000000000009E-002    0.61309021711349487     
   6.9900000000000004E-002    0.63056981563568115     
   7.0199999999999999E-002    0.65539008378982544     
   7.0500000000000007E-002    0.69521570205688477     
   7.0800000000000016E-002    0.74282050132751465     
   7.1099999999999997E-002    0.79509526491165161     
   7.1400000000000005E-002    0.84858494997024536     
   7.1700000000000000E-002    0.89100134372711182     
   7.1999999999999995E-002    0.92222177982330322     
   7.2300000000000003E-002    0.93166053295135498     
   7.2600000000000012E-002    0.91872197389602661     
   7.2900000000000006E-002    0.88500440120697021     
   7.3200000000000001E-002    0.83139747381210327     
   7.3499999999999996E-002    0.76783168315887451     
   7.3800000000000004E-002    0.69614011049270630     
   7.4099999999999999E-002    0.62677055597305298     
   7.4400000000000008E-002    0.56361424922943115     
   7.4700000000000003E-002    0.51071619987487793     
   7.5000000000000011E-002    0.46907439827919006     
   7.5299999999999992E-002    0.43505850434303284     
   7.5600000000000001E-002    0.40852427482604980     
   7.5900000000000009E-002    0.38113424181938171     
   7.6200000000000004E-002    0.35312488675117493     
   7.6499999999999999E-002    0.31778830289840698     
   7.6800000000000007E-002    0.27497696876525879     
   7.7099999999999988E-002    0.22740034759044647     
   7.7399999999999997E-002    0.17253105342388153     
   7.7700000000000005E-002    0.12101896852254868     
   7.8000000000000014E-002     6.9059103727340698E-002
   7.8299999999999995E-002     2.4612054228782654E-002
   7.8600000000000003E-002    -1.1520124040544033E-002
   7.8900000000000012E-002    -4.2890451848506927E-002
   7.9199999999999993E-002    -6.4964309334754944E-002
   7.9500000000000001E-002    -8.8767804205417633E-002
   7.9800000000000010E-002   -0.11189677566289902     
   8.0100000000000018E-002   -0.14007253944873810     
   8.0399999999999999E-002   -0.17654725909233093     
   8.0700000000000008E-002   -0.21679806709289551     
   8.1000000000000003E-002   -0.26447290182113647     
   8.1299999999999997E-002   -0.31026735901832581     
   8.1600000000000006E-002   -0.35154116153717041     
   8.1900000000000014E-002   -0.38241699337959290     
   8.2199999999999995E-002   -0.39666381478309631     
   8.2500000000000004E-002   -0.39239448308944702     
   8.2799999999999999E-002   -0.36770540475845337     
   8.3100000000000007E-002   -0.32692453265190125     
   8.3400000000000002E-002   -0.27393919229507446     
   8.3700000000000011E-002   -0.21814604103565216     
   8.4000000000000005E-002   -0.16573320329189301     
   8.4300000000000000E-002   -0.12725235521793365     
   8.4599999999999995E-002   -0.10885576903820038     
   8.4900000000000003E-002   -0.11220137774944305     
   8.5199999999999998E-002   -0.14274309575557709     
   8.5500000000000007E-002   -0.18996079266071320     
   8.5800000000000001E-002   -0.25314223766326904     
   8.6100000000000010E-002   -0.31941792368888855     
   8.6399999999999991E-002   -0.37527132034301758     
   8.6699999999999999E-002   -0.41671878099441528     
   8.7000000000000008E-002   -0.42648437619209290     
   8.7300000000000003E-002   -0.40732312202453613     
   8.7599999999999997E-002   -0.35411483049392700     
   8.7900000000000006E-002   -0.26958104968070984     
   8.8200000000000014E-002   -0.16807708144187927     
   8.8499999999999995E-002    -5.3163167089223862E-002
   8.8800000000000004E-002     5.3768262267112732E-002
   8.9100000000000013E-002    0.14361177384853363     
   8.9399999999999993E-002    0.20543259382247925     
   8.9700000000000002E-002    0.22829879820346832     
   9.0000000000000011E-002    0.21590863168239594     
   9.0299999999999991E-002    0.16749708354473114     
   9.0600000000000000E-002     9.5278792083263397E-002
   9.0900000000000009E-002     1.2708770111203194E-002
   9.1200000000000017E-002    -6.6141188144683838E-002
   9.1499999999999998E-002   -0.12398041784763336     
   9.1800000000000007E-002   -0.14841356873512268     
   9.2100000000000001E-002   -0.13244538009166718     
   9.2399999999999996E-002    -7.4983246624469757E-002
   9.2700000000000005E-002     1.8562933430075645E-002
   9.3000000000000013E-002    0.13155667483806610     
   9.3300000000000008E-002    0.25017955899238586     
   9.3600000000000003E-002    0.34955659508705139     
   9.3899999999999997E-002    0.41021719574928284     
   9.4200000000000006E-002    0.41883826255798340     
   9.4500000000000001E-002    0.36030939221382141     
   9.4800000000000009E-002    0.24324616789817810     
   9.5100000000000004E-002     7.2201691567897797E-002
   9.5399999999999999E-002   -0.12846334278583527     
   9.5699999999999993E-002   -0.32704535126686096     
   9.6000000000000002E-002   -0.49722579121589661     
   9.6300000000000011E-002   -0.59558314085006714     
   9.6600000000000005E-002   -0.60135728120803833     
   9.6900000000000000E-002   -0.49185886979103088     
   9.7200000000000009E-002   -0.26017597317695618     
   9.7499999999999989E-002     7.6914303004741669E-002
   9.7799999999999998E-002    0.50067967176437378     
   9.8100000000000007E-002    0.96250945329666138     
   9.8400000000000015E-002     1.4138051271438599     
   9.8699999999999996E-002     1.7976025342941284     
   9.9000000000000005E-002     2.0551455020904541     
   9.9300000000000013E-002     2.1442596912384033     
   9.9599999999999994E-002     2.0290851593017578     
   9.9900000000000003E-002     1.7002309560775757     
  0.10020000000000001          1.1680282354354858     
  0.10049999999999999         0.46615090966224670     
  0.10080000000000000        -0.35030823945999146     
  0.10110000000000001         -1.2127519845962524     
  0.10140000000000000         -2.0426621437072754     
  0.10170000000000000         -2.7641167640686035     
  0.10200000000000001         -3.3053028583526611     
  0.10230000000000002         -3.6148188114166260     
  0.10260000000000000         -3.6578016281127930     
  0.10290000000000001         -3.4262461662292480     
  0.10320000000000000         -2.9387526512145996     
  0.10350000000000001         -2.2312486171722412     
  0.10380000000000000         -1.3656216859817505     
  0.10410000000000001        -0.40857899188995361     
  0.10440000000000001         0.56369441747665405     
  0.10470000000000000          1.4770337343215942     
  0.10500000000000000          2.2697675228118896     
  0.10530000000000000          2.8868055343627930     
  0.10560000000000000          3.2977066040039062     
  0.10590000000000001          3.4845864772796631     
  0.10620000000000000          3.4497721195220947     
  0.10650000000000001          3.2129073143005371     
  0.10679999999999999          2.8029425144195557     
  0.10710000000000000          2.2605233192443848     
  0.10740000000000001          1.6292790174484253     
  0.10770000000000000         0.95659470558166504     
  0.10800000000000000         0.28429377079010010     
  0.10830000000000001        -0.34679049253463745     
  0.10859999999999999        -0.90557277202606201     
  0.10890000000000000         -1.3672468662261963     
  0.10920000000000001         -1.7130140066146851     
  0.10950000000000001         -1.9381630420684814     
  0.10979999999999999         -2.0365388393402100     
  0.11009999999999999         -2.0190041065216064     
  0.11040000000000001         -1.8952196836471558     
  0.11070000000000001         -1.6807283163070679     
  0.11100000000000000         -1.4015600681304932     
  0.11130000000000000         -1.0738908052444458     
  0.11160000000000002        -0.72804057598114014     
  0.11190000000000001        -0.38396388292312622     
  0.11220000000000001         -6.1249539256095886E-002
  0.11250000000000000         0.21739506721496582     
  0.11280000000000000         0.44644406437873840     
  0.11309999999999999         0.61180698871612549     
  0.11340000000000001         0.71475964784622192     
  0.11369999999999998         0.75913327932357788     
  0.11400000000000000         0.74737423658370972     
  0.11430000000000000         0.69515472650527954     
  0.11460000000000002         0.60933929681777954     
  0.11489999999999999         0.50446802377700806     
  0.11520000000000001         0.39270865917205811     
  0.11550000000000001         0.27982729673385620     
  0.11580000000000000         0.17642959952354431     
  0.11609999999999999          8.4514603018760681E-002
  0.11640000000000002          6.4036631956696510E-003
  0.11670000000000001         -5.6446261703968048E-002
  0.11700000000000001        -0.10612545907497406     
  0.11730000000000000        -0.14392131567001343     
  0.11760000000000000        -0.17115673422813416     
  0.11789999999999999        -0.19023312628269196     
  0.11820000000000001        -0.19996263086795807     
  0.11850000000000001        -0.20035494863986969     
  0.11880000000000000        -0.19308686256408691     
  0.11910000000000000        -0.17562034726142883     
  0.11940000000000002        -0.15101517736911774     
  0.11970000000000001        -0.11943367868661880     
  0.12000000000000001         -8.1614166498184204E-002
  0.12030000000000000         -4.3523550033569336E-002
  0.12060000000000000         -5.1602004095911980E-003
  0.12089999999999999          2.7371993288397789E-002
  0.12119999999999999          5.2101582288742065E-002
  0.12150000000000001          6.7917294800281525E-002
  0.12180000000000001          7.0908173918724060E-002
  0.12210000000000000          6.4944475889205933E-002
  0.12239999999999999          4.9536854028701782E-002
  0.12270000000000002          2.8450675308704376E-002
  0.12300000000000001          5.8474862016737461E-003
  0.12330000000000001         -1.6650166362524033E-002
  0.12360000000000000         -3.4430842846632004E-002
  0.12390000000000000         -4.6241626143455505E-002
  0.12419999999999999         -5.0181318074464798E-002
  0.12450000000000001         -4.6853668987751007E-002
  0.12480000000000001         -3.7038844078779221E-002
  0.12509999999999999         -2.3942645639181137E-002
  0.12540000000000001         -9.2247258871793747E-003
  0.12570000000000003          5.1753357984125614E-003
  0.12600000000000000          1.6436241567134857E-002
  0.12630000000000002          2.5739505887031555E-002
  0.12659999999999999          2.9933124780654907E-002
  0.12690000000000001          3.1621787697076797E-002
  0.12719999999999998          3.1914807856082916E-002
  0.12750000000000000          3.0955327674746513E-002
  0.12780000000000002          3.2828263938426971E-002
  0.12809999999999999          3.4737408161163330E-002
  0.12840000000000001          3.9449382573366165E-002
  0.12869999999999998          4.5885547995567322E-002
  0.12900000000000000          5.0746463239192963E-002
  0.12930000000000003          5.5023662745952606E-002
  0.12959999999999999          5.4328527301549911E-002
  0.12990000000000002          4.8753242939710617E-002
  0.13019999999999998          3.7598058581352234E-002
  0.13050000000000000          1.9336663186550140E-002
  0.13080000000000003         -2.2716925013810396E-003
  0.13109999999999999         -2.6779521256685257E-002
  0.13140000000000002         -5.0517097115516663E-002
  0.13169999999999998         -7.0115976035594940E-002
  0.13200000000000001         -8.4496021270751953E-002
  0.13229999999999997         -8.9514270424842834E-002
  0.13260000000000000         -8.5274234414100647E-002
  0.13290000000000002         -7.2487056255340576E-002
  0.13319999999999999         -5.2351135760545731E-002
  0.13350000000000001         -2.8032954782247543E-002
  0.13380000000000003         -1.5025907196104527E-003
  0.13410000000000000          2.3266455158591270E-002
  0.13440000000000002          4.3690573424100876E-002
  0.13469999999999999          5.8206789195537567E-002
  0.13500000000000001          6.6288933157920837E-002
  0.13529999999999998          6.8673364818096161E-002
  0.13560000000000000          6.6561967134475708E-002
  0.13590000000000002          6.1865169554948807E-002
  0.13619999999999999          5.6318935006856918E-002
  0.13650000000000001          5.2105262875556946E-002
  0.13680000000000003          4.9409978091716766E-002
  0.13710000000000000          4.8199303448200226E-002
  0.13740000000000002          4.8530254513025284E-002
  0.13769999999999999          4.7580886632204056E-002
  0.13800000000000001          4.4413771480321884E-002
  0.13829999999999998          3.7173558026552200E-002
  0.13860000000000000          2.4883273988962173E-002
  0.13890000000000002          9.3809776008129120E-003
  0.13919999999999999         -9.7239883616566658E-003
  0.13950000000000001         -2.9553942382335663E-002
  0.13979999999999998         -4.7499697655439377E-002
  0.14010000000000000         -6.1835221946239471E-002
  0.14040000000000002         -6.7682139575481415E-002
  0.14069999999999999         -6.5941266715526581E-002
  0.14100000000000001         -5.5920686572790146E-002
  0.14130000000000004         -3.7713676691055298E-002
  0.14160000000000000         -1.5705412253737450E-002
  0.14189999999999997          8.5803493857383728E-003
  0.14219999999999999          3.0597388744354248E-002
  0.14250000000000002          4.7534085810184479E-002
  0.14279999999999998          5.8157172054052353E-002
  0.14310000000000000          5.9624537825584412E-002
  0.14339999999999997          5.3970143198966980E-002
  0.14369999999999999          4.1912157088518143E-002
  0.14400000000000002          2.4463217705488205E-002
  0.14429999999999998          6.9935466162860394E-003
  0.14460000000000001         -9.3777915462851524E-003
  0.14490000000000003         -2.2615503519773483E-002
  0.14520000000000000         -2.9702171683311462E-002
  0.14550000000000002         -3.4269157797098160E-002
  0.14579999999999999         -3.4662060439586639E-002
  0.14610000000000001         -3.3035777509212494E-002
  0.14640000000000003         -3.2081808894872665E-002
  0.14670000000000000         -3.0214382335543633E-002
  0.14699999999999996         -3.3151749521493912E-002
  0.14729999999999999         -3.7753801792860031E-002
  0.14760000000000001         -4.3396603316068649E-002
  0.14789999999999998         -5.0286967307329178E-002
  0.14820000000000000         -5.2271302789449692E-002