  -1.4999999999999999E-002     0.0000000000000000     
  -1.4700000000000000E-002     1.0574340435437513E-023
  -1.4400000000000000E-002     3.3123677317740553E-019
  -1.4100000000000000E-002     4.1974929459423667E-017
  -1.3800000000000000E-002    -1.3085062907368958E-016
  -1.3500000000000000E-002    -8.4964333339114864E-015
  -1.3200000000000000E-002    -2.4180395658451913E-015
  -1.2899999999999998E-002     1.9607915551639321E-013
  -1.2600000000000000E-002     3.9050476719447447E-013
  -1.2299999999999998E-002    -1.4685194249866584E-012
  -1.2000000000000000E-002    -4.2254784740625162E-012
  -1.1699999999999999E-002    -6.4206964398016986E-012
  -1.1399999999999999E-002     6.3195334382148971E-012
  -1.1099999999999999E-002     1.9441907805894942E-010
  -1.0799999999999999E-002     4.8816235775905881E-011
  -1.0499999999999999E-002    -1.4698190442530290E-009
  -1.0199999999999999E-002     2.5508423151521242E-010
  -9.8999999999999991E-003     5.1697872649469900E-009
  -9.5999999999999992E-003    -4.0437511117374925E-009
  -9.2999999999999992E-003    -5.9646301231452981E-009
  -8.9999999999999993E-003     1.3654268826712723E-008
  -8.6999999999999994E-003    -1.2006922567309175E-008
  -8.3999999999999995E-003    -1.6421880744132977E-008
  -8.0999999999999996E-003     3.9828545794762249E-008
  -7.7999999999999988E-003     1.0819403151174356E-009
  -7.4999999999999997E-003    -3.0061546141268991E-008
  -7.1999999999999998E-003     2.1458060217582897E-008
  -6.8999999999999981E-003     1.1510397079916856E-009
  -6.5999999999999982E-003    -1.0089575397387307E-007
  -6.3000000000000000E-003    -3.8981291083928227E-008
  -6.0000000000000001E-003     2.7705618776963092E-007
  -5.6999999999999985E-003     1.1379596998040142E-007
  -5.3999999999999986E-003    -2.8044806299476477E-007
  -5.1000000000000004E-003    -1.8506929677641892E-007
  -4.7999999999999987E-003    -1.1701459357027488E-007
  -4.5000000000000005E-003     3.6049428331352829E-007
  -4.1999999999999989E-003     6.7615707166623906E-007
  -3.8999999999999990E-003    -6.5227175127802184E-007
  -3.5999999999999990E-003    -2.0248467080818955E-006
  -3.2999999999999991E-003     4.6370726636268955E-007
  -2.9999999999999992E-003     5.9979756770189852E-006
  -2.6999999999999993E-003     2.5812285002757562E-006
  -2.3999999999999994E-003    -1.5257999621098861E-005
  -2.0999999999999977E-003    -2.1297939383657649E-005
  -1.7999999999999995E-003     4.0128150430973619E-005
  -1.4999999999999979E-003     2.1650169219356030E-004
  -1.1999999999999997E-003     4.9329665489494801E-004
  -8.9999999999999976E-004     8.0291664926335216E-004
  -5.9999999999999810E-004     1.1272708652541041E-003
  -2.9999999999999992E-004     1.5765206189826131E-003
   0.0000000000000000          2.3467147257179022E-003
   3.0000000000000165E-004     3.6414496134966612E-003
   5.9999999999999984E-004     5.6432154960930347E-003
   9.0000000000000149E-004     8.5455346852540970E-003
   1.2000000000000031E-003     1.2646851129829884E-002
   1.5000000000000013E-003     1.8424917012453079E-002
   1.8000000000000030E-003     2.6540789753198624E-002
   2.1000000000000012E-003     3.7764709442853928E-002
   2.3999999999999994E-003     5.2901867777109146E-002
   2.7000000000000010E-003     7.2844311594963074E-002
   2.9999999999999992E-003     9.8610043525695801E-002
   3.3000000000000008E-003    0.13123644888401031     
   3.6000000000000025E-003    0.17161834239959717     
   3.9000000000000007E-003    0.22031056880950928     
   4.2000000000000023E-003    0.27728503942489624     
   4.5000000000000005E-003    0.34164297580718994     
   4.7999999999999987E-003    0.41127708554267883     
   5.1000000000000004E-003    0.48253771662712097     
   5.4000000000000020E-003    0.54986476898193359     
   5.7000000000000037E-003    0.60547453165054321     
   5.9999999999999984E-003    0.63925421237945557     
   6.3000000000000000E-003    0.63881027698516846     
   6.6000000000000017E-003    0.58979839086532593     
   6.9000000000000034E-003    0.47660404443740845     
   7.2000000000000015E-003    0.28331601619720459     
   7.5000000000000032E-003    -4.7430377453565598E-003
   7.8000000000000014E-003   -0.39909067749977112     
   8.0999999999999996E-003   -0.90583717823028564     
   8.4000000000000012E-003    -1.5234441757202148     
   8.7000000000000029E-003    -2.2406497001647949     
   9.0000000000000011E-003    -3.0345673561096191     
   9.2999999999999992E-003    -3.8696606159210205     
   9.6000000000000009E-003    -4.6977915763854980     
   9.8999999999999991E-003    -5.4591960906982422     
   1.0200000000000001E-002    -6.0851669311523438     
   1.0500000000000002E-002    -6.5020861625671387     
   1.0800000000000004E-002    -6.6367025375366211     
   1.1099999999999999E-002    -6.4226541519165039     
   1.1400000000000000E-002    -5.8069810867309570     
   1.1700000000000002E-002    -4.7573151588439941     
   1.2000000000000004E-002    -3.2676284313201904     
   1.2300000000000002E-002    -1.3623983860015869     
   1.2600000000000000E-002    0.90093094110488892     
   1.2900000000000002E-002     3.4322190284729004     
   1.3200000000000000E-002     6.1118083000183105     
   1.3500000000000002E-002     8.7964839935302734     
   1.3800000000000003E-002     11.327789306640625     
   1.4100000000000001E-002     13.542789459228516     
   1.4400000000000000E-002     15.284537315368652     
   1.4700000000000001E-002     16.414571762084961     
   1.4999999999999999E-002     16.823188781738281     
   1.5300000000000001E-002     16.437816619873047     
   1.5600000000000003E-002     15.231063842773438     
   1.5899999999999997E-002     13.222633361816406     
   1.6199999999999999E-002     10.481174468994141     
   1.6500000000000001E-002     7.1214437484741211     
   1.6800000000000002E-002     3.2971658706665039     
   1.7100000000000004E-002   -0.80487364530563354     
   1.7400000000000006E-002    -4.9765696525573730     
   1.7700000000000000E-002    -9.0000619888305664     
   1.8000000000000002E-002    -12.658411026000977     
   1.8300000000000004E-002    -15.749198913574219     
   1.8600000000000005E-002    -18.095247268676758     
   1.8900000000000000E-002    -19.554843902587891     
   1.9200000000000002E-002    -20.030942916870117     
   1.9500000000000003E-002    -19.476745605468750     
   1.9799999999999998E-002    -17.899501800537109     
   2.0100000000000000E-002    -15.361114501953125     
   2.0400000000000001E-002    -11.974984169006348     
   2.0700000000000003E-002    -7.9005112648010254     
   2.0999999999999998E-002    -3.3341937065124512     
   2.1299999999999999E-002     1.5021224021911621     
   2.1600000000000001E-002     6.3730931282043457     
   2.1900000000000003E-002     11.044172286987305     
   2.2200000000000004E-002     15.293043136596680     
   2.2500000000000006E-002     18.921127319335938     
   2.2800000000000001E-002     21.761411666870117     
   2.3100000000000002E-002     23.682455062866211     
   2.3400000000000004E-002     24.590539932250977     
   2.3699999999999999E-002     24.427331924438477     
   2.4000000000000000E-002     23.166790008544922     
   2.4300000000000002E-002     20.810827255249023     
   2.4599999999999997E-002     17.385046005249023     
   2.4900000000000005E-002     12.938502311706543     
   2.5200000000000000E-002     7.5437078475952148     
   2.5499999999999995E-002     1.3036202192306519     
   2.5800000000000003E-002    -5.6420812606811523     
   2.6099999999999998E-002    -13.109960556030273     
   2.6400000000000007E-002    -20.859498977661133     
   2.6700000000000002E-002    -28.594919204711914     
   2.6999999999999996E-002    -35.962005615234375     
   2.7300000000000005E-002    -42.557735443115234     
   2.7600000000000000E-002    -47.950878143310547     
   2.7900000000000008E-002    -51.704200744628906     
   2.8200000000000003E-002    -53.413700103759766     
   2.8499999999999998E-002    -52.743572235107422     
   2.8800000000000006E-002    -49.466552734375000     
   2.9100000000000001E-002    -43.500804901123047     
   2.9400000000000003E-002    -34.931938171386719     
   2.9700000000000004E-002    -24.030374526977539     
   3.0000000000000006E-002    -11.247256278991699     
   3.0300000000000001E-002     2.8077492713928223     
   3.0600000000000002E-002     17.397340774536133     
   3.0900000000000004E-002     31.709300994873047     
   3.1199999999999999E-002     44.918045043945312     
   3.1500000000000007E-002     56.239494323730469     
   3.1800000000000002E-002     65.001098632812500     
   3.2099999999999997E-002     70.688392639160156     
   3.2400000000000005E-002     72.984291076660156     
   3.2700000000000000E-002     71.798454284667969     
   3.3000000000000002E-002     67.261344909667969     
   3.3300000000000003E-002     59.717342376708984     
   3.3599999999999998E-002     49.691062927246094     
   3.3900000000000000E-002     37.838756561279297     
   3.4200000000000001E-002     24.901632308959961     
   3.4500000000000003E-002     11.641856193542480     
   3.4799999999999998E-002    -1.2087223529815674     
   3.5099999999999999E-002    -12.998173713684082     
   3.5400000000000001E-002    -23.195524215698242     
   3.5699999999999996E-002    -31.413873672485352     
   3.6000000000000004E-002    -37.425060272216797     
   3.6299999999999999E-002    -41.158359527587891     
   3.6600000000000008E-002    -42.685874938964844     
   3.6900000000000002E-002    -42.203105926513672     
   3.7199999999999997E-002    -39.997955322265625     
   3.7500000000000006E-002    -36.418369293212891     
   3.7800000000000000E-002    -31.843095779418945     
   3.8100000000000009E-002    -26.649166107177734     
   3.8400000000000004E-002    -21.189844131469727     
   3.8699999999999998E-002    -15.773564338684082     
   3.9000000000000007E-002    -10.653221130371094     
   3.9300000000000002E-002    -6.0213580131530762     
   3.9600000000000003E-002    -2.0057396888732910     
   3.9900000000000005E-002     1.3224025964736938     
   4.0200000000000000E-002     3.9426929950714111     
   4.0500000000000001E-002     5.8778243064880371     
   4.0800000000000003E-002     7.1810569763183594     
   4.1100000000000005E-002     7.9289617538452148     
   4.1399999999999999E-002     8.2106866836547852     
   4.1700000000000008E-002     8.1208477020263672     
   4.2000000000000003E-002     7.7542514801025391     
   4.2299999999999997E-002     7.1982469558715820     
   4.2600000000000006E-002     6.5319547653198242     
   4.2900000000000001E-002     5.8216438293457031     
   4.3200000000000002E-002     5.1194462776184082     
   4.3500000000000004E-002     4.4645891189575195     
   4.3799999999999999E-002     3.8813633918762207     
   4.4100000000000000E-002     3.3817882537841797     
   4.4400000000000002E-002     2.9677500724792480     
   4.4700000000000004E-002     2.6313674449920654     
   4.4999999999999998E-002     2.3605492115020752     
   4.5300000000000000E-002     2.1392467021942139     
   4.5600000000000002E-002     1.9510862827301025     
   4.5899999999999996E-002     1.7825744152069092     
   4.6200000000000005E-002     1.6216040849685669     
   4.6500000000000000E-002     1.4618706703186035     
   4.6799999999999994E-002     1.2998468875885010     
   4.7100000000000003E-002     1.1351788043975830     
   4.7399999999999998E-002    0.97076445817947388     
   4.7700000000000006E-002    0.80893200635910034     
   4.8000000000000001E-002    0.65280544757843018     
   4.8300000000000010E-002    0.50404846668243408     
   4.8600000000000004E-002    0.36230856180191040     
   4.8899999999999999E-002    0.22680729627609253     
   4.9200000000000008E-002     9.4908833503723145E-002
   4.9500000000000002E-002    -3.5123087465763092E-002
   4.9800000000000011E-002   -0.16482584178447723     
   5.0100000000000006E-002   -0.29454165697097778     
   5.0400000000000000E-002   -0.42147812247276306     
   5.0700000000000009E-002   -0.54284560680389404     
   5.1000000000000004E-002   -0.65285402536392212     
   5.1299999999999998E-002   -0.74663507938385010     
   5.1600000000000007E-002   -0.81893122196197510     
   5.1900000000000002E-002   -0.86632955074310303     
   5.2200000000000010E-002   -0.88854151964187622     
   5.2500000000000005E-002   -0.88579636812210083     
   5.2800000000000000E-002   -0.86381489038467407     
   5.3099999999999994E-002   -0.82700842618942261     
   5.3400000000000003E-002   -0.78273874521255493     
   5.3699999999999998E-002   -0.73799437284469604     
   5.4000000000000006E-002   -0.69671481847763062     
   5.4300000000000001E-002   -0.66431975364685059     
   5.4599999999999996E-002   -0.63946586847305298     
   5.4900000000000004E-002   -0.62181389331817627     
   5.5199999999999999E-002   -0.60841572284698486     
   5.5499999999999994E-002   -0.59264981746673584     
   5.5800000000000002E-002   -0.57275962829589844     
   5.6099999999999997E-002   -0.54306095838546753     
   5.6400000000000006E-002   -0.50256586074829102     
   5.6700000000000000E-002   -0.45220011472702026     
   5.6999999999999995E-002   -0.39087778329849243     
   5.7300000000000004E-002   -0.32531785964965820     
   5.7599999999999998E-002   -0.25666815042495728     
   5.7900000000000007E-002   -0.18912158906459808     
   5.8200000000000002E-002   -0.12694841623306274     
   5.8499999999999996E-002    -6.7667439579963684E-002
   5.8800000000000005E-002    -1.4906812459230423E-002
   5.9100000000000000E-002     3.5989873111248016E-002
   5.9400000000000008E-002     8.7196551263332367E-002
   5.9700000000000003E-002    0.13897141814231873     
   6.0000000000000012E-002    0.19705010950565338     
   6.0300000000000006E-002    0.25766259431838989     
   6.0600000000000001E-002    0.32158929109573364     
   6.0900000000000010E-002    0.38586673140525818     
   6.1200000000000004E-002    0.44283866882324219     
   6.1500000000000013E-002    0.49157780408859253     
   6.1800000000000008E-002    0.52340370416641235     
   6.2100000000000002E-002    0.53618562221527100     
   6.2399999999999997E-002    0.52950280904769897     
   6.2700000000000006E-002    0.50071537494659424     
   6.3000000000000000E-002    0.45773908495903015     
   6.3300000000000009E-002    0.40272152423858643     
   6.3600000000000004E-002    0.34390938282012939     
   6.3899999999999998E-002    0.28996866941452026     
   6.4199999999999993E-002    0.24387803673744202     
   6.4500000000000002E-002    0.21428288519382477     
   6.4800000000000010E-002    0.20004616677761078     
   6.5100000000000005E-002    0.20091474056243896     
   6.5400000000000000E-002    0.21413342654705048     
   6.5700000000000008E-002    0.23006215691566467     
   6.5999999999999989E-002    0.24465212225914001     
   6.6299999999999998E-002    0.24763856828212738     
   6.6600000000000006E-002    0.23346237838268280     
   6.6900000000000001E-002    0.19995082914829254     
   6.7199999999999996E-002    0.14387600123882294     
   6.7500000000000004E-002     7.2067707777023315E-002
   6.7800000000000013E-002    -1.1274665594100952E-002
   6.8099999999999994E-002    -9.5470316708087921E-002
   6.8400000000000002E-002   -0.16913856565952301     
   6.8700000000000011E-002   -0.22489456832408905     
   6.8999999999999992E-002   -0.25129094719886780     
   6.9300000000000000E-002   -0.24763342738151550     
   6.9600000000000009E-002   -0.21237336099147797     
   6.9900000000000004E-002   -0.15128546953201294     
   7.0199999999999999E-002    -7.6382040977478027E-002
   7.0500000000000007E-002     2.9735008720308542E-003
   7.0800000000000016E-002     6.8761520087718964E-002
   7.1099999999999997E-002    0.11165045946836472     
   7.1400000000000005E-002    0.12132333219051361     
   7.1700000000000000E-002     9.2500850558280945E-002
   7.1999999999999995E-002     3.2295744866132736E-002
   7.2300000000000003E-002    -5.4014544934034348E-002
   7.2600000000000012E-002   -0.14745792746543884     
   7.2900000000000006E-002   -0.22966063022613525     
   7.3200000000000001E-002   -0.28271970152854919     
   7.3499999999999996E-002   -0.28535982966423035     
   7.3800000000000004E-002   -0.23143136501312256     
   7.4099999999999999E-002   -0.11513196676969528     
   7.4400000000000008E-002     5.4844487458467484E-002
   7.4700000000000003E-002    0.25700727105140686     
   7.5000000000000011E-002    0.46906241774559021     
   7.5299999999999992E-002    0.65184181928634644     
   7.5600000000000001E-002    0.77335512638092041     
   7.5900000000000009E-002    0.80185455083847046     
   7.6200000000000004E-002    0.70986390113830566     
   7.6499999999999999E-002    0.49121403694152832     
   7.6800000000000007E-002    0.14517398178577423     
   7.7099999999999988E-002   -0.30430614948272705     
   7.7399999999999997E-002   -0.81897956132888794     
   7.7700000000000005E-002    -1.3527315855026245     
   7.8000000000000014E-002    -1.8422056436538696     
   7.8299999999999995E-002    -2.2315487861633301     
   7.8600000000000003E-002    -2.4653093814849854     
   7.8900000000000012E-002    -2.4989759922027588     
   7.9199999999999993E-002    -2.3126049041748047     
   7.9500000000000001E-002    -1.8994761705398560     
   7.9800000000000010E-002    -1.2832211256027222     
   8.0100000000000018E-002   -0.50782704353332520     
   8.0399999999999999E-002    0.36755573749542236     
   8.0700000000000008E-002     1.2643468379974365     
   8.1000000000000003E-002     2.1064155101776123     
   8.1299999999999997E-002     2.8162305355072021     
   8.1600000000000006E-002     3.3273615837097168     
   8.1900000000000014E-002     3.5960617065429688     
   8.2199999999999995E-002     3.5947985649108887     
   8.2500000000000004E-002     3.3259556293487549     
   8.2799999999999999E-002     2.8144900798797607     
   8.3100000000000007E-002     2.1039113998413086     
   8.3400000000000002E-002     1.2581338882446289     
   8.3700000000000011E-002    0.34583869576454163     
   8.4000000000000005E-002   -0.56085145473480225     
   8.4300000000000000E-002    -1.3932118415832520     
   8.4599999999999995E-002    -2.0966794490814209     
   8.4900000000000003E-002    -2.6283743381500244     
   8.5199999999999998E-002    -2.9638137817382812     
   8.5500000000000007E-002    -3.0969512462615967     
   8.5800000000000001E-002    -3.0348272323608398     
   8.6100000000000010E-002    -2.8007321357727051     
   8.6399999999999991E-002    -2.4262225627899170     
   8.6699999999999999E-002    -1.9468837976455688     
   8.7000000000000008E-002    -1.4046633243560791     
   8.7300000000000003E-002   -0.83620548248291016     
   8.7599999999999997E-002   -0.27617940306663513     
   8.7900000000000006E-002    0.24288699030876160     
   8.8200000000000014E-002    0.70064836740493774     
   8.8499999999999995E-002     1.0767097473144531     
   8.8800000000000004E-002     1.3609464168548584     
   8.9100000000000013E-002     1.5496820211410522     
   8.9399999999999993E-002     1.6390703916549683     
   8.9700000000000002E-002     1.6394886970520020     
   9.0000000000000011E-002     1.5574027299880981     
   9.0299999999999991E-002     1.4066116809844971     
   9.0600000000000000E-002     1.2064718008041382     
   9.0900000000000009E-002    0.96949529647827148     
   9.1200000000000017E-002    0.71943712234497070     
   9.1499999999999998E-002    0.47156780958175659     
   9.1800000000000007E-002    0.24028359353542328     
   9.2100000000000001E-002     4.2289581149816513E-002
   9.2399999999999996E-002   -0.11956182122230530     
   9.2700000000000005E-002   -0.23688353598117828     
   9.3000000000000013E-002   -0.31162062287330627     
   9.3300000000000008E-002   -0.35031667351722717     
   9.3600000000000003E-002   -0.35471215844154358     
   9.3899999999999997E-002   -0.33945482969284058     
   9.4200000000000006E-002   -0.30997547507286072     
   9.4500000000000001E-002   -0.27433830499649048     
   9.4800000000000009E-002   -0.24245198071002960     
   9.5100000000000004E-002   -0.21284660696983337     
   9.5399999999999999E-002   -0.19198173284530640     
   9.5699999999999993E-002   -0.17706930637359619     
   9.6000000000000002E-002   -0.16476984322071075     
   9.6300000000000011E-002   -0.15576526522636414     
   9.6600000000000005E-002   -0.14291672408580780     
   9.6900000000000000E-002   -0.12723192572593689     
   9.7200000000000009E-002   -0.10749976336956024     
   9.7499999999999989E-002    -8.2143977284431458E-002
   9.7799999999999998E-002    -5.6281216442584991E-002
   9.8100000000000007E-002    -2.9435813426971436E-002
   9.8400000000000015E-002    -5.1601720042526722E-003
   9.8699999999999996E-002     1.3002553023397923E-002
   9.9000000000000005E-002     2.6427417993545532E-002
   9.9300000000000013E-002     3.2313637435436249E-002
   9.9599999999999994E-002     3.3046841621398926E-002
   9.9900000000000003E-002     3.0983610078692436E-002
  0.10020000000000001          2.6937479153275490E-002
  0.10049999999999999          2.5363234803080559E-002
  0.10080000000000000          2.6753066107630730E-002
  0.10110000000000001          3.1973585486412048E-002
  0.10140000000000000          4.1986584663391113E-002
  0.10170000000000000          5.3936969488859177E-002
  0.10200000000000001          6.6368982195854187E-002
  0.10230000000000002          7.7101513743400574E-002
  0.10260000000000000          8.2080937922000885E-002
  0.10290000000000001          8.1645444035530090E-002
  0.10320000000000000          7.3677435517311096E-002
  0.10350000000000001          5.8301340788602829E-002
  0.10380000000000000          3.9274271577596664E-002
  0.10410000000000001          1.6852442175149918E-002
  0.10440000000000001         -4.1001988574862480E-003
  0.10470000000000000         -2.0718676969408989E-002
  0.10500000000000000         -3.2194610685110092E-002
  0.10530000000000000         -3.4444332122802734E-002
  0.10560000000000000         -3.0187251046299934E-002
  0.10590000000000001         -1.9386567175388336E-002
  0.10620000000000000         -3.0677651520818472E-003
  0.10650000000000001          1.2269963510334492E-002
  0.10679999999999999          2.8096318244934082E-002
  0.10710000000000000          3.8663960993289948E-002
  0.10740000000000001          4.2697437107563019E-002
  0.10770000000000000          4.2276311665773392E-002
  0.10800000000000000          3.3000040799379349E-002
  0.10830000000000001          2.1388642489910126E-002
  0.10859999999999999          5.9019643813371658E-003
  0.10890000000000000         -1.1077320203185081E-002
  0.10920000000000001         -2.4215694516897202E-002
  0.10950000000000001         -3.7969160825014114E-002
  0.10979999999999999         -4.6291328966617584E-002
  0.11009999999999999         -5.2137821912765503E-002
  0.11040000000000001         -5.7508248835802078E-002
  0.11070000000000001         -5.9044130146503448E-002
  0.11100000000000000         -6.4057946205139160E-002
  0.11130000000000000         -6.8476930260658264E-002
  0.11160000000000002         -7.4522256851196289E-002
  0.11190000000000001         -8.3870686590671539E-002
  0.11220000000000001         -9.0027995407581329E-002
  0.11250000000000000         -9.7832456231117249E-002
  0.11280000000000000        -0.10094256699085236     
  0.11309999999999999         -9.8775006830692291E-002
  0.11340000000000001         -9.2921249568462372E-002
  0.11369999999999998         -7.7730536460876465E-002
  0.11400000000000000         -5.9158489108085632E-002
  0.11430000000000000         -3.5153053700923920E-002
  0.11460000000000002         -8.1546679139137268E-003
  0.11489999999999999          1.6417102888226509E-002
  0.11520000000000001          4.0341626852750778E-002
  0.11550000000000001          5.7253010571002960E-002
  0.11580000000000000          6.7736111581325531E-002
  0.11609999999999999          7.1959562599658966E-002
  0.11640000000000002          6.7345961928367615E-002
  0.11670000000000001          5.9208560734987259E-002
  0.11700000000000001          4.6608105301856995E-002
  0.11730000000000000          3.2873962074518204E-002
  0.11760000000000000          2.1378908306360245E-002
  0.11789999999999999          1.1317642405629158E-002
  0.11820000000000001          6.6520222462713718E-003
  0.11850000000000001          5.4591330699622631E-003
  0.11880000000000000          7.4176383204758167E-003
  0.11910000000000000          1.2418957427144051E-002
  0.11940000000000002          1.6796406358480453E-002
  0.11970000000000001          2.0808363333344460E-002
  0.12000000000000001          2.2561253979802132E-002
  0.12030000000000000          2.1190566942095757E-002
  0.12060000000000000          1.8065733835101128E-002
  0.12089999999999999          1.2772096320986748E-002
  0.12119999999999999          7.6869959011673927E-003
  0.12150000000000001          4.1692005470395088E-003
  0.12180000000000001          2.9100605752319098E-003
  0.12210000000000000          5.3402991034090519E-003
  0.12239999999999999          1.0840307921171188E-002
  0.12270000000000002          1.8427532166242599E-002
  0.12300000000000001          2.6788119226694107E-002
  0.12330000000000001          3.3711556345224380E-002
  0.12360000000000000          3.6746785044670105E-002
  0.12390000000000000          3.4653544425964355E-002
  0.12419999999999999          2.5740442797541618E-002
  0.12450000000000001          1.0596704669296741E-002
  0.12480000000000001         -9.3686943873763084E-003
  0.12509999999999999         -3.3456925302743912E-002
  0.12540000000000001         -5.6934457272291183E-002
  0.12570000000000003         -7.8459702432155609E-002
  0.12600000000000000         -9.5239952206611633E-002
  0.12630000000000002        -0.10382926464080811     
  0.12659999999999999        -0.10602081567049026     
  0.12690000000000001         -9.9296241998672485E-002
  0.12719999999999998         -8.6679629981517792E-002
  0.12750000000000000         -7.0369288325309753E-002
  0.12780000000000002         -5.0292052328586578E-002
  0.12809999999999999         -3.2326541841030121E-002
  0.12840000000000001         -1.4621485024690628E-002
  0.12869999999999998          2.2808706853538752E-004
  0.12900000000000000          1.1046941392123699E-002
  0.12930000000000003          2.1791480481624603E-002
  0.12959999999999999          2.9724929481744766E-002
  0.12990000000000002          3.9107453078031540E-002
  0.13019999999999998          5.0065305083990097E-002
  0.13050000000000000          6.1435457319021225E-002
  0.13080000000000003          7.6467134058475494E-002
  0.13109999999999999          9.0232208371162415E-002
  0.13140000000000002         0.10365521907806396     
  0.13169999999999998         0.11491390317678452     
  0.13200000000000001         0.11989457905292511     
  0.13229999999999997         0.12091819941997528     
  0.13260000000000000         0.11448705941438675     
  0.13290000000000002         0.10241327434778214     
  0.13319999999999999          8.6636863648891449E-002
  0.13350000000000001          6.7188873887062073E-002
  0.13380000000000003          4.9193788319826126E-002
  0.13410000000000000          3.3186305314302444E-002
  0.13440000000000002          2.1505929529666901E-002
  0.13469999999999999          1.6151882708072662E-002
  0.13500000000000001          1.5591321513056755E-002
  0.13529999999999998          2.0275333896279335E-002
  0.13560000000000000          2.8142338618636131E-002
  0.13590000000000002          3.5958308726549149E-002
  0.13619999999999999          4.2675007134675980E-002
  0.13650000000000001          4.5171473175287247E-002
  0.13680000000000003          4.2110994458198547E-002
  0.13710000000000000          3.3929053694009781E-002
  0.13740000000000002          1.9803794100880623E-002
  0.13769999999999999          1.9453896675258875E-003
  0.13800000000000001         -1.7957843840122223E-002
  0.13829999999999998         -3.9059780538082123E-002
  0.13860000000000000         -5.7989288121461868E-002
  0.13890000000000002         -7.4697911739349365E-002
  0.13919999999999999         -8.8586874306201935E-002
  0.13950000000000001         -9.8507851362228394E-002
  0.13979999999999998        -0.10767798870801926     
  0.14010000000000000        -0.11510865390300751     
  0.14040000000000002        -0.12253112345933914     
  0.14069999999999999        -0.13176676630973816     
  0.14100000000000001        -0.14034265279769897     
  0.14130000000000004        -0.15040239691734314     
  0.14160000000000000        -0.15881469845771790     
  0.14189999999999997        -0.16351626813411713     
  0.14219999999999999        -0.16487152874469757     
  0.14250000000000002        -0.15785835683345795     
  0.14279999999999998        -0.14411483705043793     
  0.14310000000000000        -0.12294758111238480     
  0.14339999999999997         -9.3286275863647461E-002
  0.14369999999999999         -6.0793422162532806E-002
  0.14400000000000002         -2.4009123444557190E-002
  0.14429999999999998          1.1799997650086880E-002
  0.14460000000000001          4.3333798646926880E-002
  0.14490000000000003          7.1721352636814117E-002
  0.14520000000000000          9.1011472046375275E-002
  0.14550000000000002         0.10480657219886780     
  0.14579999999999999         0.11239323765039444     
  0.14610000000000001         0.11364275217056274     
  0.14640000000000003         0.11433181166648865     
  0.14670000000000000         0.11219237744808197     
  0.14699999999999996         0.11150732636451721     
  0.14729999999999999         0.11293204128742218     
  0.14760000000000001         0.11402238905429840     
  0.14789999999999998         0.11816679686307907     
  0.14820000000000000         0.12062126398086548     