  -1.4999999999999999E-002     0.0000000000000000     
  -1.4700000000000000E-002     1.7663916855840304E-028
  -1.4400000000000000E-002    -1.4670474653387745E-023
  -1.4100000000000000E-002    -4.4913267392252622E-020
  -1.3800000000000000E-002    -2.8434401798910862E-018
  -1.3500000000000000E-002    -4.7866783107044948E-018
  -1.3200000000000000E-002     3.0086610286472748E-016
  -1.2899999999999998E-002     7.2374576653422003E-016
  -1.2600000000000000E-002    -8.0237745497834835E-015
  -1.2299999999999998E-002    -1.7965846638070410E-014
  -1.2000000000000000E-002     8.1100748404276668E-014
  -1.1699999999999999E-002     6.8795324797109314E-014
  -1.1399999999999999E-002     2.4204447582505673E-013
  -1.1099999999999999E-002     1.1153961868709539E-012
  -1.0799999999999999E-002    -1.3473293661303565E-011
  -1.0499999999999999E-002    -5.2416361182028304E-012
  -1.0199999999999999E-002     1.3108698848629530E-010
  -9.8999999999999991E-003    -9.7570188040130290E-011
  -9.5999999999999992E-003    -4.7327297636456933E-010
  -9.2999999999999992E-003     7.7032724643544270E-010
  -8.9999999999999993E-003     1.8612826557795614E-010
  -8.6999999999999994E-003    -1.4130734360406905E-009
  -8.3999999999999995E-003     2.1757624590890146E-009
  -8.0999999999999996E-003    -1.1960189505444419E-009
  -7.7999999999999988E-003    -3.5185419022809583E-009
  -7.4999999999999997E-003     4.3038403951811688E-009
  -7.1999999999999998E-003     3.1091373919878151E-009
  -6.8999999999999981E-003    -3.4921974201296280E-009
  -6.5999999999999982E-003    -6.6442944479661037E-009
  -6.3000000000000000E-003     1.7200392221639049E-008
  -6.0000000000000001E-003    -5.4309676755792680E-009
  -5.6999999999999985E-003    -4.8209756187134190E-008
  -5.3999999999999986E-003     3.5206547011057410E-008
  -5.1000000000000004E-003     6.8138142239604349E-008
  -4.7999999999999987E-003    -1.7322101086847397E-008
  -4.5000000000000005E-003    -8.2492149999779940E-008
  -4.1999999999999989E-003    -3.3791856424159050E-008
  -3.8999999999999990E-003     4.1526774907651998E-008
  -3.5999999999999990E-003     5.3931646704086234E-008
  -3.2999999999999991E-003     1.5821123611203802E-007
  -2.9999999999999992E-003    -2.2429470902807225E-007
  -2.6999999999999993E-003    -5.3175011771600111E-007
  -2.3999999999999994E-003     1.0333442332921550E-006
  -2.0999999999999977E-003     1.3774754279438639E-006
  -1.7999999999999995E-003    -3.2233870115305763E-006
  -1.4999999999999979E-003    -3.6099092994845705E-006
  -1.1999999999999997E-003     6.6997131398238707E-006
  -8.9999999999999976E-004     9.3879261839902028E-006
  -5.9999999999999810E-004    -9.1130004875594750E-006
  -2.9999999999999992E-004    -2.8821357773267664E-005
   0.0000000000000000          2.0622394458769122E-006
   3.0000000000000165E-004     1.3376715651247650E-004
   5.9999999999999984E-004     3.5120639950037003E-004
   9.0000000000000149E-004     6.1518343864008784E-004
   1.2000000000000031E-003     9.2941737966611981E-004
   1.5000000000000013E-003     1.3333423994481564E-003
   1.8000000000000030E-003     1.9452604465186596E-003
   2.1000000000000012E-003     2.9649932403117418E-003
   2.3999999999999994E-003     4.5997966080904007E-003
   2.7000000000000010E-003     7.0337955839931965E-003
   2.9999999999999992E-003     1.0513425804674625E-002
   3.3000000000000008E-003     1.5465692616999149E-002
   3.6000000000000025E-003     2.2468449547886848E-002
   3.9000000000000007E-003     3.2189998775720596E-002
   4.2000000000000023E-003     4.5431248843669891E-002
   4.5000000000000005E-003     6.3168078660964966E-002
   4.7999999999999987E-003     8.6480617523193359E-002
   5.1000000000000004E-003    0.11643924564123154     
   5.4000000000000020E-003    0.15404979884624481     
   5.7000000000000037E-003    0.20015746355056763     
   5.9999999999999984E-003    0.25524348020553589     
   6.3000000000000000E-003    0.31912806630134583     
   6.6000000000000017E-003    0.39064252376556396     
   6.9000000000000034E-003    0.46728935837745667     
   7.2000000000000015E-003    0.54477888345718384     
   7.5000000000000032E-003    0.61672431230545044     
   7.8000000000000014E-003    0.67455166578292847     
   8.0999999999999996E-003    0.70740866661071777     
   8.4000000000000012E-003    0.70226418972015381     
   8.7000000000000029E-003    0.64407992362976074     
   9.0000000000000011E-003    0.51665383577346802     
   9.2999999999999992E-003    0.30403783917427063     
   9.6000000000000009E-003    -7.6048895716667175E-003
   9.8999999999999991E-003   -0.42807471752166748     
   1.0200000000000001E-002   -0.96144819259643555     
   1.0500000000000002E-002    -1.6037675142288208     
   1.0800000000000004E-002    -2.3409421443939209     
   1.1099999999999999E-002    -3.1468782424926758     
   1.1400000000000000E-002    -3.9829921722412109     
   1.1700000000000002E-002    -4.7987504005432129     
   1.2000000000000004E-002    -5.5333147048950195     
   1.2300000000000002E-002    -6.1185970306396484     
   1.2600000000000000E-002    -6.4836039543151855     
   1.2900000000000002E-002    -6.5600256919860840     
   1.3200000000000000E-002    -6.2884140014648438     
   1.3500000000000002E-002    -5.6251583099365234     
   1.3800000000000003E-002    -4.5481448173522949     
   1.4100000000000001E-002    -3.0613384246826172     
   1.4400000000000000E-002    -1.1986614465713501     
   1.4700000000000001E-002    0.97630232572555542     
   1.4999999999999999E-002     3.3710739612579346     
   1.5300000000000001E-002     5.8703012466430664     
   1.5600000000000003E-002     8.3413095474243164     
   1.5899999999999997E-002     10.643501281738281     
   1.6199999999999999E-002     12.638923645019531     
   1.6500000000000001E-002     14.201430320739746     
   1.6800000000000002E-002     15.227066040039062     
   1.7100000000000004E-002     15.641243934631348     
   1.7400000000000006E-002     15.403753280639648     
   1.7700000000000000E-002     14.511400222778320     
   1.8000000000000002E-002     12.996361732482910     
   1.8300000000000004E-002     10.924807548522949     
   1.8600000000000005E-002     8.3895101547241211     
   1.8900000000000000E-002     5.5021290779113770     
   1.9200000000000002E-002     2.3867776393890381     
   1.9500000000000003E-002   -0.82919216156005859     
   1.9799999999999998E-002    -4.0220026969909668     
   2.0100000000000000E-002    -7.0747995376586914     
   2.0400000000000001E-002    -9.8851356506347656     
   2.0700000000000003E-002    -12.363348007202148     
   2.0999999999999998E-002    -14.434754371643066     
   2.1299999999999999E-002    -16.038925170898438     
   2.1600000000000001E-002    -17.126649856567383     
   2.1900000000000003E-002    -17.662471771240234     
   2.2200000000000004E-002    -17.620445251464844     
   2.2500000000000006E-002    -16.987197875976562     
   2.2800000000000001E-002    -15.764264106750488     
   2.3100000000000002E-002    -13.967293739318848     
   2.3400000000000004E-002    -11.633523941040039     
   2.3699999999999999E-002    -8.8204040527343750     
   2.4000000000000000E-002    -5.6105113029479980     
   2.4300000000000002E-002    -2.1111197471618652     
   2.4599999999999997E-002     1.5482079982757568     
   2.4900000000000005E-002     5.2176413536071777     
   2.5200000000000000E-002     8.7383079528808594     
   2.5499999999999995E-002     11.946919441223145     
   2.5800000000000003E-002     14.689239501953125     
   2.6099999999999998E-002     16.829881668090820     
   2.6400000000000007E-002     18.262533187866211     
   2.6700000000000002E-002     18.921421051025391     
   2.6999999999999996E-002     18.784662246704102     
   2.7300000000000005E-002     17.880270004272461     
   2.7600000000000000E-002     16.279525756835938     
   2.7900000000000008E-002     14.094352722167969     
   2.8200000000000003E-002     11.464906692504883     
   2.8499999999999998E-002     8.5467691421508789     
   2.8800000000000006E-002     5.4972391128540039     
   2.9100000000000001E-002     2.4554312229156494     
   2.9400000000000003E-002   -0.46582907438278198     
   2.9700000000000004E-002    -3.1978702545166016     
   3.0000000000000006E-002    -5.7159013748168945     
   3.0300000000000001E-002    -8.0406551361083984     
   3.0600000000000002E-002    -10.234643936157227     
   3.0900000000000004E-002    -12.382664680480957     
   3.1199999999999999E-002    -14.581871032714844     
   3.1500000000000007E-002    -16.912698745727539     
   3.1800000000000002E-002    -19.421644210815430     
   3.2099999999999997E-002    -22.100391387939453     
   3.2400000000000005E-002    -24.864667892456055     
   3.2700000000000000E-002    -27.557312011718750     
   3.3000000000000002E-002    -29.939357757568359     
   3.3300000000000003E-002    -31.710109710693359     
   3.3599999999999998E-002    -32.531013488769531     
   3.3900000000000000E-002    -32.054294586181641     
   3.4200000000000001E-002    -29.968130111694336     
   3.4500000000000003E-002    -26.032972335815430     
   3.4799999999999998E-002    -20.124753952026367     
   3.5099999999999999E-002    -12.266559600830078     
   3.5400000000000001E-002    -2.6466267108917236     
   3.5699999999999996E-002     8.3730306625366211     
   3.6000000000000004E-002     20.273214340209961     
   3.6299999999999999E-002     32.402404785156250     
   3.6600000000000008E-002     44.022609710693359     
   3.6900000000000002E-002     54.365936279296875     
   3.7199999999999997E-002     62.697582244873047     
   3.7500000000000006E-002     68.379341125488281     
   3.7800000000000000E-002     70.923522949218750     
   3.8100000000000009E-002     70.042861938476562     
   3.8400000000000004E-002     65.674003601074219     
   3.8699999999999998E-002     57.994663238525391     
   3.9000000000000007E-002     47.406169891357422     
   3.9300000000000002E-002     34.505596160888672     
   3.9600000000000003E-002     20.044406890869141     
   3.9900000000000005E-002     4.8588538169860840     
   4.0200000000000000E-002    -10.178656578063965     
   4.0500000000000001E-002    -24.237220764160156     
   4.0800000000000003E-002    -36.582038879394531     
   4.1100000000000005E-002    -46.615169525146484     
   4.1399999999999999E-002    -53.927555084228516     
   4.1700000000000008E-002    -58.294456481933594     
   4.2000000000000003E-002    -59.697868347167969     
   4.2299999999999997E-002    -58.300273895263672     
   4.2600000000000006E-002    -54.415737152099609     
   4.2900000000000001E-002    -48.490779876708984     
   4.3200000000000002E-002    -41.033420562744141     
   4.3500000000000004E-002    -32.600658416748047     
   4.3799999999999999E-002    -23.732778549194336     
   4.4100000000000000E-002    -14.930812835693359     
   4.4400000000000002E-002    -6.6315703392028809     
   4.4700000000000004E-002    0.82906496524810791     
   4.4999999999999998E-002     7.1975712776184082     
   4.5300000000000000E-002     12.333849906921387     
   4.5600000000000002E-002     16.179346084594727     
   4.5899999999999996E-002     18.759004592895508     
   4.6200000000000005E-002     20.166538238525391     
   4.6500000000000000E-002     20.533432006835938     
   4.6799999999999994E-002     20.034828186035156     
   4.7100000000000003E-002     18.847648620605469     
   4.7399999999999998E-002     17.160856246948242     
   4.7700000000000006E-002     15.148689270019531     
   4.8000000000000001E-002     12.967600822448730     
   4.8300000000000010E-002     10.757194519042969     
   4.8600000000000004E-002     8.6216945648193359     
   4.8899999999999999E-002     6.6501250267028809     
   4.9200000000000008E-002     4.8946433067321777     
   4.9500000000000002E-002     3.3904163837432861     
   4.9800000000000011E-002     2.1480965614318848     
   5.0100000000000006E-002     1.1571087837219238     
   5.0400000000000000E-002    0.40036228299140930     
   5.0700000000000009E-002   -0.15955194830894470     
   5.1000000000000004E-002   -0.55388820171356201     
   5.1299999999999998E-002   -0.82507020235061646     
   5.1600000000000007E-002    -1.0082974433898926     
   5.1900000000000002E-002    -1.1317651271820068     
   5.2200000000000010E-002    -1.2251422405242920     
   5.2500000000000005E-002    -1.2975807189941406     
   5.2800000000000000E-002    -1.3634659051895142     
   5.3099999999999994E-002    -1.4212681055068970     
   5.3400000000000003E-002    -1.4690861701965332     
   5.3699999999999998E-002    -1.5054285526275635     
   5.4000000000000006E-002    -1.5196322202682495     
   5.4300000000000001E-002    -1.5149511098861694     
   5.4599999999999996E-002    -1.4853483438491821     
   5.4900000000000004E-002    -1.4355086088180542     
   5.5199999999999999E-002    -1.3703380823135376     
   5.5499999999999994E-002    -1.2930694818496704     
   5.5800000000000002E-002    -1.2171016931533813     
   5.6099999999999997E-002    -1.1425274610519409     
   5.6400000000000006E-002    -1.0778828859329224     
   5.6700000000000000E-002    -1.0231938362121582     
   5.6999999999999995E-002   -0.97847390174865723     
   5.7300000000000004E-002   -0.94318938255310059     
   5.7599999999999998E-002   -0.90971869230270386     
   5.7900000000000007E-002   -0.87829738855361938     
   5.8200000000000002E-002   -0.84016096591949463     
   5.8499999999999996E-002   -0.79717773199081421     
   5.8800000000000005E-002   -0.74720704555511475     
   5.9100000000000000E-002   -0.68981242179870605     
   5.9400000000000008E-002   -0.62980175018310547     
   5.9700000000000003E-002   -0.56422352790832520     
   6.0000000000000012E-002   -0.50153970718383789     
   6.0300000000000006E-002   -0.43758916854858398     
   6.0600000000000001E-002   -0.37536960840225220     
   6.0900000000000010E-002   -0.31371098756790161     
   6.1200000000000004E-002   -0.24622689187526703     
   6.1500000000000013E-002   -0.17590558528900146     
   6.1800000000000008E-002    -9.4452828168869019E-002
   6.2100000000000002E-002    -6.7954477854073048E-003
   6.2399999999999997E-002     8.9356392621994019E-002
   6.2700000000000006E-002    0.19221371412277222     
   6.3000000000000000E-002    0.29259437322616577     
   6.3300000000000009E-002    0.39163455367088318     
   6.3600000000000004E-002    0.47662684321403503     
   6.3899999999999998E-002    0.54685825109481812     
   6.4199999999999993E-002    0.59649026393890381     
   6.4500000000000002E-002    0.62232798337936401     
   6.4800000000000010E-002    0.62878227233886719     
   6.5100000000000005E-002    0.61272454261779785     
   6.5400000000000000E-002    0.58427113294601440     
   6.5700000000000008E-002    0.54467457532882690     
   6.5999999999999989E-002    0.49941179156303406     
   6.6299999999999998E-002    0.45353335142135620     
   6.6600000000000006E-002    0.40710285305976868     
   6.6900000000000001E-002    0.36560720205307007     
   6.7199999999999996E-002    0.32460644841194153     
   6.7500000000000004E-002    0.28688114881515503     
   6.7800000000000013E-002    0.24851709604263306     
   6.8099999999999994E-002    0.20898619294166565     
   6.8400000000000002E-002    0.16994687914848328     
   6.8700000000000011E-002    0.13020899891853333     
   6.8999999999999992E-002     9.6172295510768890E-002
   6.9300000000000000E-002     6.6965878009796143E-002
   6.9600000000000009E-002     4.9463849514722824E-002
   6.9900000000000004E-002     4.4044774025678635E-002
   7.0199999999999999E-002     5.2012894302606583E-002
   7.0500000000000007E-002     7.5578607618808746E-002
   7.0800000000000016E-002    0.10625614225864410     
   7.1099999999999997E-002    0.14456605911254883     
   7.1400000000000005E-002    0.17853060364723206     
   7.1700000000000000E-002    0.20284543931484222     
   7.1999999999999995E-002    0.21111065149307251     
   7.2300000000000003E-002    0.19356137514114380     
   7.2600000000000012E-002    0.15329818427562714     
   7.2900000000000006E-002     8.4080837666988373E-002
   7.3200000000000001E-002    -4.1620889678597450E-003
   7.3499999999999996E-002   -0.10606747120618820     
   7.3800000000000004E-002   -0.21295006573200226     
   7.4099999999999999E-002   -0.30783504247665405     
   7.4400000000000008E-002   -0.38629534840583801     
   7.4700000000000003E-002   -0.43100589513778687     
   7.5000000000000011E-002   -0.44036978483200073     
   7.5299999999999992E-002   -0.41063848137855530     
   7.5600000000000001E-002   -0.34283620119094849     
   7.5900000000000009E-002   -0.25036975741386414     
   7.6200000000000004E-002   -0.13853047788143158     
   7.6499999999999999E-002    -2.8792234137654305E-002
   7.6800000000000007E-002     6.8502917885780334E-002
   7.7099999999999988E-002    0.13912005722522736     
   7.7399999999999997E-002    0.16986659169197083     
   7.7700000000000005E-002    0.16149617731571198     
   7.8000000000000014E-002    0.11118921637535095     
   7.8299999999999995E-002     3.2868865877389908E-002
   7.8600000000000003E-002    -6.1811182647943497E-002
   7.8900000000000012E-002   -0.15528097748756409     
   7.9199999999999993E-002   -0.22588884830474854     
   7.9500000000000001E-002   -0.26116019487380981     
   7.9800000000000010E-002   -0.24562834203243256     
   8.0100000000000018E-002   -0.17814090847969055     
   8.0399999999999999E-002    -6.3512302935123444E-002
   8.0700000000000008E-002     8.3677351474761963E-002
   8.1000000000000003E-002    0.23976114392280579     
   8.1299999999999997E-002    0.37765765190124512     
   8.1600000000000006E-002    0.46667376160621643     
   8.1900000000000014E-002    0.48185461759567261     
   8.2199999999999995E-002    0.40106835961341858     
   8.2500000000000004E-002    0.21790231764316559     
   8.2799999999999999E-002    -6.2938570976257324E-002
   8.3100000000000007E-002   -0.42043021321296692     
   8.3400000000000002E-002   -0.81983709335327148     
   8.3700000000000011E-002    -1.2186241149902344     
   8.4000000000000005E-002    -1.5611550807952881     
   8.4300000000000000E-002    -1.8012951612472534     
   8.4599999999999995E-002    -1.8900319337844849     
   8.4900000000000003E-002    -1.7964280843734741     
   8.5199999999999998E-002    -1.5082235336303711     
   8.5500000000000007E-002    -1.0267103910446167     
   8.5800000000000001E-002   -0.38641169667243958     
   8.6100000000000010E-002    0.37033084034919739     
   8.6399999999999991E-002     1.1746646165847778     
   8.6699999999999999E-002     1.9521101713180542     
   8.7000000000000008E-002     2.6317238807678223     
   8.7300000000000003E-002     3.1361212730407715     
   8.7599999999999997E-002     3.4178562164306641     
   8.7900000000000006E-002     3.4356722831726074     
   8.8200000000000014E-002     3.1796672344207764     
   8.8499999999999995E-002     2.6676826477050781     
   8.8800000000000004E-002     1.9328014850616455     
   8.9100000000000013E-002     1.0420536994934082     
   8.9399999999999993E-002     6.2300264835357666E-002
   8.9700000000000002E-002   -0.92276555299758911     
   9.0000000000000011E-002    -1.8343601226806641     
   9.0299999999999991E-002    -2.6074795722961426     
   9.0600000000000000E-002    -3.1807281970977783     
   9.0900000000000009E-002    -3.5245461463928223     
   9.1200000000000017E-002    -3.6200506687164307     
   9.1499999999999998E-002    -3.4755969047546387     
   9.1800000000000007E-002    -3.1168224811553955     
   9.2100000000000001E-002    -2.5804116725921631     
   9.2399999999999996E-002    -1.9190734624862671     
   9.2700000000000005E-002    -1.1828320026397705     
   9.3000000000000013E-002   -0.42781972885131836     
   9.3300000000000008E-002    0.29797050356864929     
   9.3600000000000003E-002    0.95292288064956665     
   9.3899999999999997E-002     1.5037825107574463     
   9.4200000000000006E-002     1.9298199415206909     
   9.4500000000000001E-002     2.2170391082763672     
   9.4800000000000009E-002     2.3656871318817139     
   9.5100000000000004E-002     2.3785712718963623     
   9.5399999999999999E-002     2.2704482078552246     
   9.5699999999999993E-002     2.0585274696350098     
   9.6000000000000002E-002     1.7623788118362427     
   9.6300000000000011E-002     1.4080203771591187     
   9.6600000000000005E-002     1.0174363851547241     
   9.6900000000000000E-002    0.61889654397964478     
   9.7200000000000009E-002    0.23250198364257812     
   9.7499999999999989E-002   -0.12052939832210541     
   9.7799999999999998E-002   -0.42219081521034241     
   9.8100000000000007E-002   -0.66410195827484131     
   9.8400000000000015E-002   -0.83400624990463257     
   9.8699999999999996E-002   -0.93466067314147949     
   9.9000000000000005E-002   -0.96715825796127319     
   9.9300000000000013E-002   -0.93993979692459106     
   9.9599999999999994E-002   -0.86639600992202759     
   9.9900000000000003E-002   -0.75619697570800781     
  0.10020000000000001        -0.62781602144241333     
  0.10049999999999999        -0.49000948667526245     
  0.10080000000000000        -0.35694238543510437     
  0.10110000000000001        -0.23699846863746643     
  0.10140000000000000        -0.13310818374156952     
  0.10170000000000000         -5.0737854093313217E-002
  0.10200000000000001          1.4833018183708191E-002
  0.10230000000000002          6.1566054821014404E-002
  0.10260000000000000          9.5027185976505280E-002
  0.10290000000000001         0.11782687902450562     
  0.10320000000000000         0.13192351162433624     
  0.10350000000000001         0.14183583855628967     
  0.10380000000000000         0.14416845142841339     
  0.10410000000000001         0.14278860390186310     
  0.10440000000000001         0.13432984054088593     
  0.10470000000000000         0.11982531845569611     
  0.10500000000000000          9.9904954433441162E-002
  0.10530000000000000          7.3477737605571747E-002
  0.10560000000000000          4.6375256031751633E-002
  0.10590000000000001          1.6495071351528168E-002
  0.10620000000000000         -8.4986463189125061E-003
  0.10650000000000001         -2.8071040287613869E-002
  0.10679999999999999         -3.9907708764076233E-002
  0.10710000000000000         -3.9340872317552567E-002
  0.10740000000000001         -3.1413707882165909E-002
  0.10770000000000000         -1.1587079614400864E-002
  0.10800000000000000          1.2501832097768784E-002
  0.10830000000000001          3.9930194616317749E-002
  0.10859999999999999          6.7664884030818939E-002
  0.10890000000000000          8.7786152958869934E-002
  0.10920000000000001         0.10387287288904190     
  0.10950000000000001         0.10812157392501831     
  0.10979999999999999         0.10446202009916306     
  0.11009999999999999          9.2198073863983154E-002
  0.11040000000000001          7.1380294859409332E-002
  0.11070000000000001          4.9743670970201492E-002
  0.11100000000000000          2.3913765326142311E-002
  0.11130000000000000          1.8039236310869455E-003
  0.11160000000000002         -1.7894307151436806E-002
  0.11190000000000001         -3.4633897244930267E-002
  0.11220000000000001         -4.5564368367195129E-002
  0.11250000000000000         -5.5625695735216141E-002
  0.11280000000000000         -6.1702881008386612E-002
  0.11309999999999999         -6.8352259695529938E-002
  0.11340000000000001         -7.5020879507064819E-002
  0.11369999999999998         -8.1769779324531555E-002
  0.11400000000000000         -9.0389102697372437E-002
  0.11430000000000000         -9.6824660897254944E-002
  0.11460000000000002        -0.10193131119012833     
  0.11489999999999999        -0.10254092514514923     
  0.11520000000000001         -9.8700352013111115E-002
  0.11550000000000001         -8.8629283010959625E-002
  0.11580000000000000         -7.2554498910903931E-002
  0.11609999999999999         -5.1209188997745514E-002
  0.11640000000000002         -2.6020588353276253E-002
  0.11670000000000001         -1.6935375751927495E-003
  0.11700000000000001          2.2666215896606445E-002
  0.11730000000000000          4.0538839995861053E-002
  0.11760000000000000          5.3001310676336288E-002
  0.11789999999999999          5.7728640735149384E-002
  0.11820000000000001          5.2671782672405243E-002
  0.11850000000000001          4.3935921043157578E-002
  0.11880000000000000          2.6866788044571877E-002
  0.11910000000000000          9.7069591283798218E-003
  0.11940000000000002         -7.6049659401178360E-003
  0.11970000000000001         -2.3265199735760689E-002
  0.12000000000000001         -3.1149700284004211E-002
  0.12030000000000000         -3.7059493362903595E-002
  0.12060000000000000         -3.4604676067829132E-002
  0.12089999999999999         -2.8676111251115799E-002
  0.12119999999999999         -2.0830979570746422E-002
  0.12150000000000001         -9.7657302394509315E-003
  0.12180000000000001         -2.3311201948672533E-003
  0.12210000000000000          5.7058790698647499E-003
  0.12239999999999999          9.8190288990736008E-003
  0.12270000000000002          1.1081549338996410E-002
  0.12300000000000001          1.1731293052434921E-002
  0.12330000000000001          1.0397132486104965E-002
  0.12360000000000000          1.2037031352519989E-002
  0.12390000000000000          1.5286039561033249E-002
  0.12419999999999999          2.1424848586320877E-002
  0.12450000000000001          2.9554184526205063E-002
  0.12480000000000001          3.8818307220935822E-002
  0.12509999999999999          4.7563709318637848E-002
  0.12540000000000001          5.3565528243780136E-002
  0.12570000000000003          5.5859912186861038E-002
  0.12600000000000000          5.0702378153800964E-002
  0.12630000000000002          4.0323350578546524E-002
  0.12659999999999999          2.1624684333801270E-002
  0.12690000000000001         -9.5582695212215185E-004
  0.12719999999999998         -2.5014705955982208E-002
  0.12750000000000000         -4.9991678446531296E-002
  0.12780000000000002         -6.8314269185066223E-002
  0.12809999999999999         -8.3473615348339081E-002
  0.12840000000000001         -8.8782019913196564E-002
  0.12869999999999998         -8.5697174072265625E-002
  0.12900000000000000         -7.5884647667407990E-002
  0.12930000000000003         -5.6243415921926498E-002
  0.12959999999999999         -3.6408822983503342E-002
  0.12990000000000002         -1.2317527085542679E-002
  0.13019999999999998          9.5746098086237907E-003
  0.13050000000000000          2.6969706639647484E-002
  0.13080000000000003          4.3457459658384323E-002
  0.13109999999999999          5.2666589617729187E-002
  0.13140000000000002          6.1080846935510635E-002
  0.13169999999999998          6.5937913954257965E-002
  0.13200000000000001          6.9626674056053162E-002
  0.13229999999999997          7.5542427599430084E-002
  0.13260000000000000          8.0272838473320007E-002
  0.13290000000000002          8.8313430547714233E-002
  0.13319999999999999          9.4872154295444489E-002
  0.13350000000000001          9.9946774542331696E-002
  0.13380000000000003         0.10200925916433334     
  0.13410000000000000          9.8103724420070648E-002
  0.13440000000000002          8.8997282087802887E-002
  0.13469999999999999          7.2986215353012085E-002
  0.13500000000000001          5.2547741681337357E-002
  0.13529999999999998          2.7484135702252388E-002
  0.13560000000000000          1.7417173366993666E-003
  0.13590000000000002         -2.2140609100461006E-002
  0.13619999999999999         -4.0977913886308670E-002
  0.13650000000000001         -5.2380573004484177E-002
  0.13680000000000003         -5.7473000138998032E-002
  0.13710000000000000         -5.3526565432548523E-002
  0.13740000000000002         -4.4953756034374237E-002
  0.13769999999999999         -3.1174615025520325E-002
  0.13800000000000001         -1.5977686271071434E-002
  0.13829999999999998         -3.9183744229376316E-003
  0.13860000000000000          5.9606805443763733E-003
  0.13890000000000002          7.6095648109912872E-003
  0.13919999999999999          4.5605846680700779E-003
  0.13950000000000001         -4.5273327268660069E-003
  0.13979999999999998         -1.8313108012080193E-002
  0.14010000000000000         -3.2067637890577316E-002
  0.14040000000000002         -4.8276327550411224E-002
  0.14069999999999999         -6.0475625097751617E-002
  0.14100000000000001         -7.0473641157150269E-002
  0.14130000000000004         -7.6707579195499420E-002
  0.14160000000000000         -7.8357964754104614E-002
  0.14189999999999997         -7.9389065504074097E-002
  0.14219999999999999         -7.7867791056632996E-002
  0.14250000000000002         -7.8533254563808441E-002
  0.14279999999999998         -7.9309485852718353E-002
  0.14310000000000000         -8.1763371825218201E-002
  0.14339999999999997         -8.5637465119361877E-002
  0.14369999999999999         -8.7315641343593597E-002
  0.14400000000000002         -8.7605997920036316E-002
  0.14429999999999998         -8.1684067845344543E-002
  0.14460000000000001         -7.0963375270366669E-002
  0.14490000000000003         -5.2500206977128983E-002
  0.14520000000000000         -2.7345409616827965E-002
  0.14550000000000002          2.8421012684702873E-003
  0.14579999999999999          3.7834398448467255E-002
  0.14610000000000001          7.0706896483898163E-002
  0.14640000000000003         0.10210056602954865     
  0.14670000000000000         0.12660738825798035     
  0.14699999999999996         0.14316315948963165     
  0.14729999999999999         0.15105359256267548     
  0.14760000000000001         0.14845660328865051     
  0.14789999999999998         0.14041800796985626     
  0.14820000000000000         0.12476843595504761     