  -1.4999999999999999E-002     0.0000000000000000     
  -1.4700000000000000E-002     0.0000000000000000     
  -1.4400000000000000E-002     0.0000000000000000     
  -1.4100000000000000E-002     0.0000000000000000     
  -1.3800000000000000E-002     0.0000000000000000     
  -1.3500000000000000E-002    -3.0113548418854996E-038
  -1.3200000000000000E-002     7.1317928187606978E-037
  -1.2899999999999998E-002    -7.3520243035893183E-034
  -1.2600000000000000E-002     2.3589467654131417E-033
  -1.2299999999999998E-002     2.0460952200324171E-031
  -1.2000000000000000E-002    -5.8908532406250592E-031
  -1.1699999999999999E-002     2.7544532276212828E-031
  -1.1399999999999999E-002    -2.6575252440158150E-028
  -1.1099999999999999E-002     1.3709964153508950E-027
  -1.0799999999999999E-002     3.7583019143548230E-026
  -1.0499999999999999E-002    -6.5850094054992195E-025
  -1.0199999999999999E-002     4.9357783869525047E-024
  -9.8999999999999991E-003    -1.6530845302210731E-023
  -9.5999999999999992E-003    -2.9733476642581619E-023
  -9.2999999999999992E-003     6.2869447214831567E-022
  -8.9999999999999993E-003    -3.6809038379208122E-021
  -8.6999999999999994E-003     1.4329589761952034E-020
  -8.3999999999999995E-003    -4.4204945638658118E-020
  -8.0999999999999996E-003     1.1378906486242643E-019
  -7.7999999999999988E-003    -2.3967689424317930E-019
  -7.4999999999999997E-003     4.0283491044067857E-019
  -7.1999999999999998E-003    -5.8198105406029319E-019
  -6.8999999999999981E-003     1.0981174274805011E-018
  -6.5999999999999982E-003    -3.4881421863369641E-018
  -6.3000000000000000E-003     9.2163409887620286E-018
  -6.0000000000000001E-003    -3.9371221499892166E-018
  -5.6999999999999985E-003    -8.1414426566774238E-017
  -5.3999999999999986E-003     3.7598408226957363E-016
  -5.1000000000000004E-003    -8.9526154230537105E-016
  -4.7999999999999987E-003     1.1048533924739766E-015
  -4.5000000000000005E-003     5.7764565033435891E-016
  -4.1999999999999989E-003    -6.6327436970639898E-015
  -3.8999999999999990E-003     1.8321323205601221E-014
  -3.5999999999999990E-003    -3.1077509960327957E-014
  -3.2999999999999991E-003     3.0443138739133434E-014
  -2.9999999999999992E-003     5.2265544892871984E-015
  -2.6999999999999993E-003    -8.9354993991967972E-014
  -2.3999999999999994E-003     1.9838058917780475E-013
  -2.0999999999999977E-003    -2.5020304228265533E-013
  -1.7999999999999995E-003     1.4121022984666496E-013
  -1.4999999999999979E-003     1.3050114451242985E-013
  -1.1999999999999997E-003    -3.6198803083736979E-013
  -8.9999999999999976E-004     3.0461010829819221E-013
  -5.9999999999999810E-004    -1.0937936014035272E-013
  -2.9999999999999992E-004     3.9851985372183466E-013
   0.0000000000000000         -1.2638817443369445E-012
   3.0000000000000165E-004     1.2928400978900796E-012
   5.9999999999999984E-004     7.2346660061676937E-013
   9.0000000000000149E-004    -1.8240561684881624E-012
   1.2000000000000031E-003    -3.5114024553202928E-012
   1.5000000000000013E-003     6.2785302891199622E-012
   1.8000000000000030E-003     4.4369920523106102E-011
   2.1000000000000012E-003    -2.3916390365075856E-010
   2.3999999999999994E-003     5.5501420539584330E-010
   2.7000000000000010E-003    -2.6350758664488954E-010
   2.9999999999999992E-003    -2.8936763407579354E-009
   3.3000000000000008E-003     1.0156484361197425E-008
   3.6000000000000025E-003    -8.8550988973724267E-009
   3.9000000000000007E-003    -3.4745301090012952E-008
   4.2000000000000023E-003     1.0199891833672030E-007
   4.5000000000000005E-003     1.1432517264162169E-008
   4.7999999999999987E-003    -4.2036969552268826E-007
   5.1000000000000004E-003     1.6505251735581984E-007
   5.4000000000000020E-003     1.3448250183630986E-006
   5.7000000000000037E-003    -2.5640058930030972E-007
   5.9999999999999984E-003    -4.3526192379822870E-006
   6.3000000000000000E-003    -1.4961008982783601E-006
   6.6000000000000017E-003     2.2803078958778553E-005
   6.9000000000000034E-003     7.8318755846913234E-005
   7.2000000000000015E-003     1.6891166121050681E-004
   7.5000000000000032E-003     3.0039391577654870E-004
   7.8000000000000014E-003     4.8868335984397597E-004
   8.0999999999999996E-003     7.6864833615431817E-004
   8.4000000000000012E-003     1.1949932132961291E-003
   8.7000000000000029E-003     1.8405302357242317E-003
   9.0000000000000011E-003     2.8098282513917827E-003
   9.2999999999999992E-003     4.2528420721735516E-003
   9.6000000000000009E-003     6.3734249557285128E-003
   9.8999999999999991E-003     9.4450377785233464E-003
   1.0200000000000001E-002     1.3821549773562869E-002
   1.0500000000000002E-002     1.9948192563436329E-002
   1.0800000000000004E-002     2.8383012385070794E-002
   1.1099999999999999E-002     3.9809726125738409E-002
   1.1400000000000000E-002     5.5032972040102157E-002
   1.1700000000000002E-002     7.4950806465186037E-002
   1.2000000000000004E-002    0.10051270986557270     
   1.2300000000000002E-002    0.13265574814844561     
   1.2600000000000000E-002    0.17219905593688400     
   1.2900000000000002E-002    0.21971513630910611     
   1.3200000000000000E-002    0.27535172530577867     
   1.3500000000000002E-002    0.33858721113413282     
   1.3800000000000003E-002    0.40795687688023641     
   1.4100000000000001E-002    0.48080667015705991     
   1.4400000000000000E-002    0.55305315079526984     
   1.4700000000000001E-002    0.61897751004863011     
   1.4999999999999999E-002    0.67111347934228149     
   1.5300000000000001E-002    0.70026941276849541     
   1.5600000000000003E-002    0.69574825646636640     
   1.5899999999999997E-002    0.64582701805319331     
   1.6199999999999999E-002    0.53846579374556214     
   1.6500000000000001E-002    0.36230423129409495     
   1.6800000000000002E-002    0.10787797104322649     
   1.7100000000000004E-002   -0.23099039009562983     
   1.7400000000000006E-002   -0.65569648426451721     
   1.7700000000000000E-002    -1.1614120673958510     
   1.8000000000000002E-002    -1.7358013964698600     
   1.8300000000000004E-002    -2.3584052867689422     
   1.8600000000000005E-002    -3.0005060870707041     
   1.8900000000000000E-002    -3.6257015975264864     
   1.9200000000000002E-002    -4.1912858546585312     
   1.9500000000000003E-002    -4.6505153665128205     
   1.9799999999999998E-002    -4.9557266479165207     
   2.0100000000000000E-002    -5.0619609605320761     
   2.0400000000000001E-002    -4.9308620745883047     
   2.0700000000000003E-002    -4.5349071477004372     
   2.0999999999999998E-002    -3.8606525166315606     
   2.1299999999999999E-002    -2.9117085332049584     
   2.1600000000000001E-002    -1.7099188930399265     
   2.1900000000000003E-002   -0.29605185987019800     
   2.2200000000000004E-002     1.2721310016853842     
   2.2500000000000006E-002     2.9224510969584898     
   2.2800000000000001E-002     4.5725110314647139     
   2.3100000000000002E-002     6.1359424155644717     
   2.3400000000000004E-002     7.5264435703547008     
   2.3699999999999999E-002     8.6656897444314893     
   2.4000000000000000E-002     9.4874613542720567     
   2.4300000000000002E-002     9.9423967113037861     
   2.4599999999999997E-002     10.002186993643193     
   2.4900000000000005E-002     9.6591326644880837     
   2.5200000000000000E-002     8.9284967422212276     
   2.5499999999999995E-002     7.8454018933264535     
   2.5800000000000003E-002     6.4618858262284959     
   2.6099999999999998E-002     4.8446214758476174     
   2.6400000000000007E-002     3.0682261353538678     
   2.6700000000000002E-002     1.2131957484342664     
   2.6999999999999996E-002   -0.64050636877561828     
   2.7300000000000005E-002    -2.4165833048877818     
   2.7600000000000000E-002    -4.0445244065444896     
   2.7900000000000008E-002    -5.4641815917389067     
   2.8200000000000003E-002    -6.6252744031285715     
   2.8499999999999998E-002    -7.4894609514363140     
   2.8800000000000006E-002    -8.0316008708565789     
   2.9100000000000001E-002    -8.2384305463858993     
   2.9400000000000003E-002    -8.1099944383603031     
   2.9700000000000004E-002    -7.6594680272723110     
   3.0000000000000006E-002    -6.9116905837144884     
   3.0300000000000001E-002    -5.9046736321151343     
   3.0600000000000002E-002    -4.6871110241937117     
   3.0900000000000004E-002    -3.3173647358533032     
   3.1199999999999999E-002    -1.8628472175582971     
   3.1500000000000007E-002   -0.39458426767694288     
   3.1800000000000002E-002     1.0134599703225220     
   3.2099999999999997E-002     2.2897048606970181     
   3.2400000000000005E-002     3.3697663619590301     
   3.2700000000000000E-002     4.1983468740346268     
   3.3000000000000002E-002     4.7358800726894543     
   3.3300000000000003E-002     4.9589198313639429     
   3.3599999999999998E-002     4.8630422535829894     
   3.3900000000000000E-002     4.4639893972829157     
   3.4200000000000001E-002     3.7940989397225877     
   3.4500000000000003E-002     2.9024933986091384     
   3.4799999999999998E-002     1.8493550051771734     
   3.5099999999999999E-002    0.70100598637323408     
   3.5400000000000001E-002   -0.47410766838872576     
   3.5699999999999996E-002    -1.6125623523524624     
   3.6000000000000004E-002    -2.6592786541446358     
   3.6299999999999999E-002    -3.5717234885325126     
   3.6600000000000008E-002    -4.3224505003142113     
   3.6900000000000002E-002    -4.8992064013103231     
   3.7199999999999997E-002    -5.3041684765404682     
   3.7500000000000006E-002    -5.5518248778196551     
   3.7800000000000000E-002    -5.6643902952070846     
   3.8100000000000009E-002    -5.6679787635648324     
   3.8400000000000004E-002    -5.5882536311687261     
   3.8699999999999998E-002    -5.4445558710797570     
   3.9000000000000007E-002    -5.2487328125249348     
   3.9300000000000002E-002    -5.0007986914482387     
   3.9600000000000003E-002    -4.6896027142534251     
   3.9900000000000005E-002    -4.2946455969765225     
   4.0200000000000000E-002    -3.7868921632722561     
   4.0500000000000001E-002    -3.1353663735993393     
   4.0800000000000003E-002    -2.3095441667090526     
   4.1100000000000005E-002    -1.2863810343589606     
   4.1399999999999999E-002    -5.5070864059050706E-002
   4.1700000000000008E-002     1.3808103300749224     
   4.2000000000000003E-002     2.9976057701455971     
   4.2299999999999997E-002     4.7542610329059087     
   4.2600000000000006E-002     6.5908995656367697     
   4.2900000000000001E-002     8.4318534122077082     
   4.3200000000000002E-002     10.191425499991183     
   4.3500000000000004E-002     11.777622558311123     
   4.3799999999999999E-002     13.099905097890542     
   4.4100000000000000E-002     14.074431666497787     
   4.4400000000000002E-002     14.629555213782112     
   4.4700000000000004E-002     14.711152863400685     
   4.4999999999999998E-002     14.286742784917067     
   4.5300000000000000E-002     13.345740939961900     
   4.5600000000000002E-002     11.902639752488426     
   4.5899999999999996E-002     9.9945136870109081     
   4.6200000000000005E-002     7.6794614117312676     
   4.6500000000000000E-002     5.0361706458119642     
   4.6799999999999994E-002     2.1564180375810160     
   4.7100000000000003E-002   -0.85385508119868803     
   4.7399999999999998E-002    -3.8821089921659109     
   4.7700000000000006E-002    -6.8132363082837628     
   4.8000000000000001E-002    -9.5310621864870768     
   4.8300000000000010E-002    -11.927765131479440     
   4.8600000000000004E-002    -13.903204686511373     
   4.8899999999999999E-002    -15.373158071537063     
   4.9200000000000008E-002    -16.273431646802635     
   4.9500000000000002E-002    -16.560982171429544     
   4.9800000000000011E-002    -16.221661019555540     
   5.0100000000000006E-002    -15.269491221914961     
   5.0400000000000000E-002    -13.749108912177633     
   5.0700000000000009E-002    -11.736232005183069     
   5.1000000000000004E-002    -9.3323403558042344     
   5.1299999999999998E-002    -6.6636111860950393     
   5.1600000000000007E-002    -3.8725495252756161     
   5.1900000000000002E-002    -1.1089233992260574     
   5.2200000000000010E-002     1.4770498699933228     
   5.2500000000000005E-002     3.7475690334209446     
   5.2800000000000000E-002     5.5850072528519661     
   5.3099999999999994E-002     6.9022430939812836     
   5.3400000000000003E-002     7.6492781093064792     
   5.3699999999999998E-002     7.8161037541028264     
   5.4000000000000006E-002     7.4357697721311524     
   5.4300000000000001E-002     6.5803171194215793     
   5.4599999999999996E-002     5.3551036747703904     
   5.4900000000000004E-002     3.8907575252371203     
   5.5199999999999999E-002     2.3312297958699304     
   5.5499999999999994E-002    0.82154818848551336     
   5.5800000000000002E-002   -0.50406804065043787     
   5.6099999999999997E-002    -1.5345247869441323     
   5.6400000000000006E-002    -2.1896249427088748     
   5.6700000000000000E-002    -2.4267994347582942     
   5.6999999999999995E-002    -2.2438176847631319     
   5.7300000000000004E-002    -1.6752526212992151     
   5.7599999999999998E-002   -0.78965593053297845     
   5.7900000000000007E-002    0.32114036826051517     
   5.8200000000000002E-002     1.5511480318992881     
   5.8499999999999996E-002     2.7909443221944485     
   5.8800000000000005E-002     3.9401488328466598     
   5.9100000000000000E-002     4.9144169856408162     
   5.9400000000000008E-002     5.6540079526939522     
   5.9700000000000003E-002     6.1262683448740063     
   6.0000000000000012E-002     6.3260422641445473     
   6.0300000000000006E-002     6.2744292270570554     
   6.0600000000000001E-002     6.0115127675568942     
   6.0900000000000010E-002     5.5912865121970015     
   6.1200000000000004E-002     5.0742795241494605     
   6.1500000000000013E-002     4.5192347654114826     
   6.1800000000000008E-002     3.9782868780762470     
   6.2100000000000002E-002     3.4918862913064288     
   6.2399999999999997E-002     3.0845747451018184     
   6.2700000000000006E-002     2.7659432011655696     
   6.3000000000000000E-002     2.5294069373826034     
   6.3300000000000009E-002     2.3553744652015496     
   6.3600000000000004E-002     2.2135252047988558     
   6.3899999999999998E-002     2.0654025295130936     
   6.4199999999999993E-002     1.8715274130907389     
   6.4500000000000002E-002     1.5913255790534890     
   6.4800000000000010E-002     1.1898309895313872     
   6.5100000000000005E-002    0.64161361245098192     
   6.5400000000000000E-002    -6.8787443505222257E-002
   6.5700000000000008E-002   -0.94175395828066755     
   6.5999999999999989E-002    -1.9642225086141565     
   6.6299999999999998E-002    -3.1096944411521239     
   6.6600000000000006E-002    -4.3399300357862627     
   6.6900000000000001E-002    -5.6127792945383028     
   6.7199999999999996E-002    -6.8827323020853157     
   6.7500000000000004E-002    -8.1120412601084979     
   6.7800000000000013E-002    -9.2752796549311398     
   6.8099999999999994E-002    -10.361678808475375     
   6.8400000000000002E-002    -11.382067621935931     
   6.8700000000000011E-002    -12.361968817078292     
   6.8999999999999992E-002    -13.339426807447097     
   6.9300000000000000E-002    -14.354560510013187     
   6.9600000000000009E-002    -15.435933643332191     
   6.9900000000000004E-002    -16.590251670715190     
   7.0199999999999999E-002    -17.783994391896499     
   7.0500000000000007E-002    -18.937462518127745     
   7.0800000000000016E-002    -19.918356290809641     
   7.1099999999999997E-002    -20.542869372046766     
   7.1400000000000005E-002    -20.588324982209542     
   7.1700000000000000E-002    -19.810076382502700     
   7.1999999999999995E-002    -17.967962763835203     
   7.2300000000000003E-002    -14.856770945413245     
   7.2600000000000012E-002    -10.336675681920894     
   7.2900000000000006E-002    -4.3642574054535217     
   7.3200000000000001E-002     2.9844472073497741     
   7.3499999999999996E-002     11.500583208008777     
   7.3800000000000004E-002     20.840478929844153     
   7.4099999999999999E-002     30.537479749385852     
   7.4400000000000008E-002     40.028089395957011     
   7.4700000000000003E-002     48.689985100721444     
   7.5000000000000011E-002     55.887338051587847     
   7.5299999999999992E-002     61.024995137335992     
   7.5600000000000001E-002     63.599174390580629     
   7.5900000000000009E-002     63.244953252025880     
   7.6200000000000004E-002     59.776163570234417     
   7.6499999999999999E-002     53.208294273706542     
   7.6800000000000007E-002     43.767448082019882     
   7.7099999999999988E-002     31.882505761915695     
   7.7399999999999997E-002     18.157392865577549     
   7.7700000000000005E-002     3.3326753514419352     
   7.8000000000000014E-002    -11.770486320627583     
   7.8299999999999995E-002    -26.305642091680056     
   7.8600000000000003E-002    -39.464770231553302     
   7.8900000000000012E-002    -50.537204032212458     
   7.9199999999999993E-002    -58.954702757859081     
   7.9500000000000001E-002    -64.331904287794828     
   7.9800000000000010E-002    -66.486181820753202     
   8.0100000000000018E-002    -65.439096287277607     
   8.0399999999999999E-002    -61.411960496084134     
   8.0700000000000008E-002    -54.790632879242594     
   8.1000000000000003E-002    -46.095398398265615     
   8.1299999999999997E-002    -35.934373820050951     
   8.1600000000000006E-002    -24.949745684208438     
   8.1900000000000014E-002    -13.783826773864860     
   8.2199999999999995E-002    -3.0240776731289998     
   8.2500000000000004E-002     6.8210259930583561     
   8.2799999999999999E-002     15.348185888281023     
   8.3100000000000007E-002     22.277007926953615     
   8.3400000000000002E-002     27.444322168908343     
   8.3700000000000011E-002     30.807576703199402     
   8.4000000000000005E-002     32.426615395971965     
   8.4300000000000000E-002     32.446234293072401     
   8.4599999999999995E-002     31.079857101341247     
   8.4900000000000003E-002     28.581924045849632     
   8.5199999999999998E-002     25.232406879957352     
   8.5500000000000007E-002     21.315967369314194     
   8.5800000000000001E-002     17.104100711168371     
   8.6100000000000010E-002     12.845237263000797     
   8.6399999999999991E-002     8.7530757904916641     
   8.6699999999999999E-002     4.9984650138434716     
   8.7000000000000008E-002     1.7097282310460926     
   8.7300000000000003E-002    -1.0324779782819604     
   8.7599999999999997E-002    -3.1916091888102471     
   8.7900000000000006E-002    -4.7684354013829591     
   8.8200000000000014E-002    -5.8005608713280310     
   8.8499999999999995E-002    -6.3486740977616876     
   8.8800000000000004E-002    -6.4928539362610849     
   8.9100000000000013E-002    -6.3216383627536494     
   8.9399999999999993E-002    -5.9222693144773615     
   8.9700000000000002E-002    -5.3802025638588020     
   9.0000000000000011E-002    -4.7649967935570317     
   9.0299999999999991E-002    -4.1343557122826269     
   9.0600000000000000E-002    -3.5306084973125138     
   9.0900000000000009E-002    -2.9784829380852358     
   9.1200000000000017E-002    -2.4936011950112942     
   9.1499999999999998E-002    -2.0786843419843635     
   9.1800000000000007E-002    -1.7316417554831958     
   9.2100000000000001E-002    -1.4471061033822679     
   9.2399999999999996E-002    -1.2172441897485413     
   9.2700000000000005E-002    -1.0363066014910913     
   9.3000000000000013E-002   -0.89769970963888568     
   9.3300000000000008E-002   -0.79605031527759351     
   9.3600000000000003E-002   -0.72698009435094946     
   9.3899999999999997E-002   -0.68386436854517996     
   9.4200000000000006E-002   -0.65868727125191384     
   9.4500000000000001E-002   -0.64467303846121737     
   9.4800000000000009E-002   -0.63104760909683932     
   9.5100000000000004E-002   -0.60942041438215355     
   9.5399999999999999E-002   -0.57269937158306661     
   9.5699999999999993E-002   -0.51396467569186477     
   9.6000000000000002E-002   -0.43414196950268114     
   9.6300000000000011E-002   -0.33287163216036841     
   9.6600000000000005E-002   -0.21672297799707119     
   9.6900000000000000E-002    -9.4708982959962995E-002
   9.7200000000000009E-002     2.6957462852293723E-002
   9.7499999999999989E-002    0.13565244925466402     
   9.7799999999999998E-002    0.22659858912335462     
   9.8100000000000007E-002    0.29516231265647797     
   9.8400000000000015E-002    0.33866262849119355     
   9.8699999999999996E-002    0.36263373944906796     
   9.9000000000000005E-002    0.36859220929871395     
   9.9300000000000013E-002    0.36520994541366925     
   9.9599999999999994E-002    0.35873873649209642     
   9.9900000000000003E-002    0.35289023969039057     
  0.10020000000000001         0.35450723117359573     
  0.10049999999999999         0.36161971555591421     
  0.10080000000000000         0.37444671398304052     
  0.10110000000000001         0.38993536958285269     
  0.10140000000000000         0.40224034964142241     
  0.10170000000000000         0.40921735624280764     
  0.10200000000000001         0.40602328034209734     
  0.10230000000000002         0.39140534376947933     
  0.10260000000000000         0.36595624771025292     
  0.10290000000000001         0.33033376909725298     
  0.10320000000000000         0.28927371015021919     
  0.10350000000000001         0.24618258671415383     
  0.10380000000000000         0.20381441101122011     
  0.10410000000000001         0.16669899101852437     
  0.10440000000000001         0.13547316989043257     
  0.10470000000000000         0.11041042183534033     
  0.10500000000000000          9.1582512402237359E-002
  0.10530000000000000          7.5515984034596695E-002
  0.10560000000000000          6.1948024688290193E-002
  0.10590000000000001          4.8390010718757370E-002
  0.10620000000000000          3.3835002612208287E-002
  0.10650000000000001          2.0302606945205137E-002
  0.10679999999999999          6.8097980996741914E-003
  0.10710000000000000         -2.1178957786038843E-003
  0.10740000000000001         -4.5441366085607893E-003
  0.10770000000000000          1.1332662265786109E-003
  0.10800000000000000          1.8197917310114997E-002
  0.10830000000000001          4.4801780548814119E-002
  0.10859999999999999          8.0864584910627091E-002
  0.10890000000000000         0.12234546231642440     
  0.10920000000000001         0.16427074300268596     
  0.10950000000000001         0.20168664992372864     
  0.10979999999999999         0.22730517650717402     
  0.11009999999999999         0.23651455237390170     
  0.11040000000000001         0.22548148409206287     
  0.11070000000000001         0.19240689790117282     
  0.11100000000000000         0.13785478266841886     
  0.11130000000000000          6.6636171176701675E-002
  0.11160000000000002         -1.5715755775723261E-002
  0.11190000000000001        -0.10022747565144208     
  0.11220000000000001        -0.17645493479133822     
  0.11250000000000000        -0.23690442094653053     
  0.11280000000000000        -0.27073928516754364     
  0.11309999999999999        -0.27485737727253934     
  0.11340000000000001        -0.24589274608642642     
  0.11369999999999998        -0.18550783987040492     
  0.11400000000000000        -0.10306338210682009     
  0.11430000000000000         -4.8648298354971864E-003
  0.11460000000000002          9.2418441613403957E-002
  0.11489999999999999         0.17633778916926435     
  0.11520000000000001         0.23459431525416541     
  0.11550000000000001         0.25335716267864949     
  0.11580000000000000         0.23119935035080896     
  0.11609999999999999         0.16457182702065420     
  0.11640000000000002          6.1649204682801884E-002
  0.11670000000000001         -6.3775546289343232E-002
  0.11700000000000001        -0.19809380811632821     
  0.11730000000000000        -0.31708405247935900     
  0.11760000000000000        -0.40526129823556101     
  0.11789999999999999        -0.44553871012486868     
  0.11820000000000001        -0.42714674647568796     
  0.11850000000000001        -0.35281861993374419     
  0.11880000000000000        -0.22704025674622685     
  0.11910000000000000         -7.0762806518014365E-002
  0.11940000000000002          9.2019725574198574E-002
  0.11970000000000001         0.23374284738496343     
  0.12000000000000001         0.32243916663579597     
  0.12030000000000000         0.33729168662924813     
  0.12060000000000000         0.26163169633842775     
  0.12089999999999999          9.2786304876164571E-002
  0.12119999999999999        -0.15511331461626110     
  0.12150000000000001        -0.45874741482153469     
  0.12180000000000001        -0.77787924589773993     
  0.12210000000000000         -1.0674709186593745     
  0.12239999999999999         -1.2816662404204884     
  0.12270000000000002         -1.3741495974699145     
  0.12300000000000001         -1.3160549697030959     
  0.12330000000000001         -1.0892097983122770     
  0.12360000000000000        -0.69622640679255565     
  0.12390000000000000        -0.16364448714012170     
  0.12419999999999999         0.47033315842850598     
  0.12450000000000001          1.1445794298431125     
  0.12480000000000001          1.7949053829017458     
  0.12509999999999999          2.3543498229114945     
  0.12540000000000001          2.7580606975998876     
  0.12570000000000003          2.9622081406966849     
  0.12600000000000000          2.9319077816772889     
  0.12630000000000002          2.6611245251331415     
  0.12659999999999999          2.1651960612213443     
  0.12690000000000001          1.4758453457053697     
  0.12719999999999998         0.65155646969440273     
  0.12750000000000000        -0.24737637726130401     
  0.12780000000000002         -1.1472108173662150     
  0.12809999999999999         -1.9774875872411286     
  0.12840000000000001         -2.6786437236414571     
  0.12869999999999998         -3.1942259150656866     
  0.12900000000000000         -3.4949337151654518     
  0.12930000000000003         -3.5605446646124506     
  0.12959999999999999         -3.3926486606207371     
  0.12990000000000002         -3.0131958574985305     
  0.13019999999999998         -2.4507136209039899     
  0.13050000000000000         -1.7548610923496852     
  0.13080000000000003        -0.97467009983050801     
  0.13109999999999999        -0.16543015418061202     
  0.13140000000000002         0.61601313988518314     
  0.13169999999999998          1.3246654454511742     
  0.13200000000000001          1.9158830551268693     
  0.13229999999999997          2.3607442685242717     
  0.13260000000000000          2.6409988015254058     
  0.13290000000000002          2.7477459590140185     
  0.13319999999999999          2.6898439045298872     
  0.13350000000000001          2.4812927607858661     
  0.13380000000000003          2.1477335292430197     
  0.13410000000000000          1.7223335455115532     
  0.13440000000000002          1.2373687920481409     
  0.13469999999999999         0.73041197016387471     
  0.13500000000000001         0.23439018297471126     
  0.13529999999999998        -0.22262994267379099     
  0.13560000000000000        -0.61551113387982781     
  0.13590000000000002        -0.93053362016451047     
  0.13619999999999999         -1.1574012428376790     
  0.13650000000000001         -1.2936719402976635     
  0.13680000000000003         -1.3457624211780974     
  0.13710000000000000         -1.3192762116789147     
  0.13740000000000002         -1.2288994984642123     
  0.13769999999999999         -1.0879642955607736     
  0.13800000000000001        -0.90978996401642576     
  0.13829999999999998        -0.71165168402655965     
  0.13860000000000000        -0.50412317253174699     
  0.13890000000000002        -0.30170618255786685     
  0.13919999999999999        -0.11352807838261669     
  0.13950000000000001          5.3228625576321242E-002
  0.13979999999999998         0.19017652821963260     
  0.14010000000000000         0.29647499072996197     
  0.14040000000000002         0.36835074534175227     
  0.14069999999999999         0.40751399790335086     
  0.14100000000000001         0.41705482115007975     
  0.14130000000000004         0.40069646873697984     
  0.14160000000000000         0.36590047927080516     
  0.14189999999999997         0.31784335769581684     
  0.14219999999999999         0.26446270934854255     
  0.14250000000000002         0.21103148323300935     
  0.14279999999999998         0.16252625374456819     
  0.14310000000000000         0.12247719192671891     
  0.14339999999999997          9.1857587162866183E-002
  0.14369999999999999          7.1464790933015498E-002
  0.14400000000000002          5.7979871954617512E-002
  0.14429999999999998          5.0661490139561616E-002
  0.14460000000000001          4.6052440894558844E-002
  0.14490000000000003          4.2405211925004238E-002
  0.14520000000000000          3.9132237036078932E-002
  0.14550000000000002          3.3670567005726015E-002
  0.14579999999999999          2.8644345541884109E-002
  0.14610000000000001          2.2863961655841036E-002
  0.14640000000000003          1.8110300096113030E-002
  0.14670000000000000          1.5573764094837572E-002
  0.14699999999999996          1.3136807518388194E-002
  0.14729999999999999          1.2536962466487167E-002
  0.14760000000000001          1.0074665126774685E-002
  0.14789999999999998          4.9472238934705759E-003
  0.14820000000000000         -3.9587834506441266E-003