  -1.4999999999999999E-002     0.0000000000000000     
  -1.4700000000000000E-002     0.0000000000000000     
  -1.4400000000000000E-002     0.0000000000000000     
  -1.4100000000000000E-002     4.3425193413538557E-035
  -1.3800000000000000E-002    -8.4175719788827420E-033
  -1.3500000000000000E-002    -5.2808406899911724E-030
  -1.3200000000000000E-002    -2.0970209620023682E-028
  -1.2899999999999998E-002     1.1013731157732195E-027
  -1.2600000000000000E-002     7.8646752229575940E-026
  -1.2299999999999998E-002    -2.9944083525773447E-025
  -1.2000000000000000E-002    -4.0095566530395703E-024
  -1.1699999999999999E-002     1.7387826035646062E-024
  -1.1399999999999999E-002     2.6223930391144285E-022
  -1.1099999999999999E-002    -1.2217296086453927E-021
  -1.0799999999999999E-002    -3.8201292362495329E-021
  -1.0499999999999999E-002     8.3421828001381427E-020
  -1.0199999999999999E-002    -4.6853762519109749E-019
  -9.8999999999999991E-003     5.9376946638550990E-019
  -9.5999999999999992E-003     5.8477640577871224E-018
  -9.2999999999999992E-003    -3.3822673119465117E-017
  -8.9999999999999993E-003     8.3499774673185692E-017
  -8.6999999999999994E-003    -1.0669790304271611E-016
  -8.3999999999999995E-003     2.3931928191861409E-017
  -8.0999999999999996E-003     3.2264671080245419E-016
  -7.7999999999999988E-003    -1.2528068472149683E-015
  -7.4999999999999997E-003     2.9591763705455738E-015
  -7.1999999999999998E-003    -5.7571950385650926E-015
  -6.8999999999999981E-003     8.7157565952895160E-015
  -6.5999999999999982E-003    -2.8673993898574695E-016
  -6.3000000000000000E-003    -2.9160946348590533E-014
  -6.0000000000000001E-003     1.2839155039922148E-014
  -5.6999999999999985E-003     1.8665842915255314E-013
  -5.3999999999999986E-003    -4.9454705982996243E-013
  -5.1000000000000004E-003     3.3702765382479317E-013
  -4.7999999999999987E-003     1.1206400494325456E-012
  -4.5000000000000005E-003    -3.9144893470958895E-012
  -4.1999999999999989E-003     5.5797622273815201E-012
  -3.8999999999999990E-003    -1.3886428167059073E-012
  -3.5999999999999990E-003    -1.0221773509058517E-011
  -3.2999999999999991E-003     2.1597801942945339E-011
  -2.9999999999999992E-003    -1.9605687909175714E-011
  -2.6999999999999993E-003     2.7962342257965936E-013
  -2.3999999999999994E-003     2.3000288019844874E-011
  -2.0999999999999977E-003    -3.7168412625312173E-011
  -1.7999999999999995E-003     4.3099626008402102E-011
  -1.4999999999999979E-003    -2.7202562592567776E-011
  -1.1999999999999997E-003    -2.7940876814687727E-011
  -8.9999999999999976E-004     7.7937598619059089E-011
  -5.9999999999999810E-004    -1.1150022622753690E-010
  -2.9999999999999992E-004     3.2154324629317735E-010
   0.0000000000000000         -8.3403379608446968E-010
   3.0000000000000165E-004     8.6828813154103691E-010
   5.9999999999999984E-004     1.7343245367522567E-009
   9.0000000000000149E-004    -7.8324484538280414E-009
   1.2000000000000031E-003     9.8378750423473278E-009
   1.5000000000000013E-003     6.7871136675855443E-009
   1.8000000000000030E-003    -3.1153507498097699E-008
   2.1000000000000012E-003     6.6953309889113637E-009
   2.3999999999999994E-003     4.6880955189544775E-008
   2.7000000000000010E-003     8.6206638747373019E-008
   2.9999999999999992E-003    -2.8899283059403113E-007
   3.3000000000000008E-003    -6.4546610832274527E-007
   3.6000000000000025E-003     1.6544191639401752E-006
   3.9000000000000007E-003     2.9310656432137951E-006
   4.2000000000000023E-003    -6.1665867936779942E-006
   4.5000000000000005E-003    -1.2462172480973870E-005
   4.7999999999999987E-003     2.7994415830558019E-005
   5.1000000000000004E-003     1.4525029831634361E-004
   5.4000000000000020E-003     3.2613952582874906E-004
   5.7000000000000037E-003     5.4938916772257450E-004
   5.9999999999999984E-003     8.2522055032198914E-004
   6.3000000000000000E-003     1.2100033042392565E-003
   6.6000000000000017E-003     1.8201981429208022E-003
   6.9000000000000034E-003     2.8150652448209190E-003
   7.2000000000000015E-003     4.3584294637232929E-003
   7.5000000000000032E-003     6.6346757686652075E-003
   7.8000000000000014E-003     9.9082219080899037E-003
   8.0999999999999996E-003     1.4563147336645710E-002
   8.4000000000000012E-003     2.1128795344834861E-002
   8.7000000000000029E-003     3.0282814671068969E-002
   9.0000000000000011E-003     4.2800492600170603E-002
   9.2999999999999992E-003     5.9562048106745369E-002
   9.6000000000000009E-003     8.1622233407555811E-002
   9.8999999999999991E-003    0.11014304281627929     
   1.0200000000000001E-002    0.14623552820596775     
   1.0500000000000002E-002    0.19088915651048044     
   1.0800000000000004E-002    0.24486787732127890     
   1.1099999999999999E-002    0.30844843581455628     
   1.1400000000000000E-002    0.38110190522272447     
   1.1700000000000002E-002    0.46122483423755689     
   1.2000000000000004E-002    0.54584598468031764     
   1.2300000000000002E-002    0.63028931170845226     
   1.2600000000000000E-002    0.70787087122034364     
   1.2900000000000002E-002    0.76980685090628143     
   1.3200000000000000E-002    0.80521399677569505     
   1.3500000000000002E-002    0.80138643069048143     
   1.3800000000000003E-002    0.74427900860138507     
   1.4100000000000001E-002    0.61940740918518600     
   1.4400000000000000E-002    0.41319075530519633     
   1.4700000000000001E-002    0.11433395064451268     
   1.4999999999999999E-002   -0.28455554381802628     
   1.5300000000000001E-002   -0.78503790341723256     
   1.5600000000000003E-002    -1.3810499539763086     
   1.5899999999999997E-002    -2.0573819532259137     
   1.6199999999999999E-002    -2.7889014283571640     
   1.6500000000000001E-002    -3.5404272672804069     
   1.6800000000000002E-002    -4.2674555627985455     
   1.7100000000000004E-002    -4.9180164985893526     
   1.7400000000000006E-002    -5.4355066510073868     
   1.7700000000000000E-002    -5.7625061182827153     
   1.8000000000000002E-002    -5.8455373538151605     
   1.8300000000000004E-002    -5.6398059441477244     
   1.8600000000000005E-002    -5.1143126760734674     
   1.8900000000000000E-002    -4.2562282344449045     
   1.9200000000000002E-002    -3.0739119261309895     
   1.9500000000000003E-002    -1.5988589692157973     
   1.9799999999999998E-002    0.11438725012675555     
   2.0100000000000000E-002     1.9902175624447267     
   2.0400000000000001E-002     3.9358116778226417     
   2.0700000000000003E-002     5.8469882601578007     
   2.0999999999999998E-002     7.6146968471719845     
   2.1299999999999999E-002     9.1331569820719949     
   2.1600000000000001E-002     10.307442299783531     
   2.1900000000000003E-002     11.060695560575198     
   2.2200000000000004E-002     11.340191729377239     
   2.2500000000000006E-002     11.121327449804824     
   2.2800000000000001E-002     10.410115296473919     
   2.3100000000000002E-002     9.2430482336530417     
   2.3400000000000004E-002     7.6850334665151934     
   2.3699999999999999E-002     5.8248991858924057     
   2.4000000000000000E-002     3.7697087916026533     
   2.4300000000000002E-002     1.6368015787708501     
   2.4599999999999997E-002   -0.45288380987573618     
   2.4900000000000005E-002    -2.3836512942418899     
   2.5200000000000000E-002    -4.0529453159698008     
   2.5499999999999995E-002    -5.3766138313082337     
   2.5800000000000003E-002    -6.2957000446279494     
   2.6099999999999998E-002    -6.7792851949212718     
   2.6400000000000007E-002    -6.8252559761299381     
   2.6700000000000002E-002    -6.4615862697694695     
   2.6999999999999996E-002    -5.7420248531303741     
   2.7300000000000005E-002    -4.7427648706319303     
   2.7600000000000000E-002    -3.5573711380746147     
   2.7900000000000008E-002    -2.2879977964002549     
   2.8200000000000003E-002    -1.0404904347924386     
   2.8499999999999998E-002     8.5125748768106746E-002
   2.8800000000000006E-002     1.0006807175236219     
   2.9100000000000001E-002     1.6349262503396584     
   2.9400000000000003E-002     1.9397792202778845     
   2.9700000000000004E-002     1.8908001308045925     
   3.0000000000000006E-002     1.4888722741328593     
   3.0300000000000001E-002    0.75950262178143468     
   3.0600000000000002E-002   -0.25151996576226310     
   3.0900000000000004E-002    -1.4807247260668959     
   3.1199999999999999E-002    -2.8527372498223826     
   3.1500000000000007E-002    -4.2865673503039048     
   3.1800000000000002E-002    -5.6985318834373828     
   3.2099999999999997E-002    -7.0095479095885906     
   3.2400000000000005E-002    -8.1475020403416636     
   3.2700000000000000E-002    -9.0492452305092286     
   3.3000000000000002E-002    -9.6646471509385492     
   3.3300000000000003E-002    -9.9540939626388365     
   3.3599999999999998E-002    -9.8905476155652536     
   3.3900000000000000E-002    -9.4583333206502402     
   3.4200000000000001E-002    -8.6508819386398272     
   3.4500000000000003E-002    -7.4737692067366197     
   3.4799999999999998E-002    -5.9411010703734064     
   3.5099999999999999E-002    -4.0781807883227685     
   3.5400000000000001E-002    -1.9225183483532255     
   3.5699999999999996E-002    0.47668893039690374     
   3.6000000000000004E-002     3.0548176402929528     
   3.6299999999999999E-002     5.7337114431310567     
   3.6600000000000008E-002     8.4212986553258702     
   3.6900000000000002E-002     11.012172592873014     
   3.7199999999999997E-002     13.393813015949306     
   3.7500000000000006E-002     15.449572270199269     
   3.7800000000000000E-002     17.065739544033306     
   3.8100000000000009E-002     18.140323746033118     
   3.8400000000000004E-002     18.588354512663216     
   3.8699999999999998E-002     18.352004319653304     
   3.9000000000000007E-002     17.405818226607380     
   3.9300000000000002E-002     15.760061654688911     
   3.9600000000000003E-002     13.465466246959693     
   3.9900000000000005E-002     10.609708768126666     
   4.0200000000000000E-002     7.3152173266794023     
   4.0500000000000001E-002     3.7332739854553623     
   4.0800000000000003E-002     3.2931870112832939E-002
   4.1100000000000005E-002    -3.6056998952716128     
   4.1399999999999999E-002    -7.0061920138707023     
   4.1700000000000008E-002    -10.005880371968729     
   4.2000000000000003E-002    -12.465524809364979     
   4.2299999999999997E-002    -14.280490035409912     
   4.2600000000000006E-002    -15.385610142097363     
   4.2900000000000001E-002    -15.759810864172721     
   4.3200000000000002E-002    -15.428521661922730     
   4.3500000000000004E-002    -14.458561370703364     
   4.3799999999999999E-002    -12.955754830209685     
   4.4100000000000000E-002    -11.054642553720328     
   4.4400000000000002E-002    -8.9082206950784553     
   4.4700000000000004E-002    -6.6783887637336932     
   4.4999999999999998E-002    -4.5201719277601171     
   4.5300000000000000E-002    -2.5728149942367509     
   4.5600000000000002E-002   -0.94857084587870411     
   4.5899999999999996E-002    0.27654148536778678     
   4.6200000000000005E-002     1.0647038999037122     
   4.6500000000000000E-002     1.4198891606587551     
   4.6799999999999994E-002     1.3837151724164336     
   4.7100000000000003E-002     1.0289731389214616     
   4.7399999999999998E-002    0.45340605544866364     
   4.7700000000000006E-002   -0.23396599995856349     
   4.8000000000000001E-002   -0.92138204681010194     
   4.8300000000000010E-002    -1.5053964966093645     
   4.8600000000000004E-002    -1.9018635722867714     
   4.8899999999999999E-002    -2.0483396800168379     
   4.9200000000000008E-002    -1.9110625164230832     
   4.9500000000000002E-002    -1.4837274240596960     
   4.9800000000000011E-002   -0.78333955655748433     
   5.0100000000000006E-002    0.15024691582198813     
   5.0400000000000000E-002     1.2653356346038507     
   5.0700000000000009E-002     2.5004220794397796     
   5.1000000000000004E-002     3.7921567524816524     
   5.1299999999999998E-002     5.0821509291143236     
   5.1600000000000007E-002     6.3167844500846542     
   5.1900000000000002E-002     7.4552272666597403     
   5.2200000000000010E-002     8.4671609730815618     
   5.2500000000000005E-002     9.3343858629019252     
   5.2800000000000000E-002     10.053204681785331     
   5.3099999999999994E-002     10.630040163146646     
   5.3400000000000003E-002     11.084438535840121     
   5.3699999999999998E-002     11.444810665555565     
   5.4000000000000006E-002     11.744436034098044     
   5.4300000000000001E-002     12.020021568074412     
   5.4599999999999996E-002     12.302408454418241     
   5.4900000000000004E-002     12.609931491782504     
   5.5199999999999999E-002     12.940127133669307     
   5.5499999999999994E-002     13.260801423393957     
   5.5800000000000002E-002     13.504784632806206     
   5.6099999999999997E-002     13.565430403568314     
   5.6400000000000006E-002     13.298699941662449     
   5.6700000000000000E-002     12.532339040110401     
   5.6999999999999995E-002     11.078577460847782     
   5.7300000000000004E-002     8.7543290304242305     
   5.7599999999999998E-002     5.4079172422754596     
   5.7900000000000007E-002    0.94190169495330167     
   5.8200000000000002E-002    -4.6582336361140051     
   5.8499999999999996E-002    -11.304254924785596     
   5.8800000000000005E-002    -18.794197625950915     
   5.9100000000000000E-002    -26.806044778038228     
   5.9400000000000008E-002    -34.912521678900490     
   5.9700000000000003E-002    -42.601703771526886     
   6.0000000000000012E-002    -49.310481538012866     
   6.0300000000000006E-002    -54.472328149173336     
   6.0600000000000001E-002    -57.560423168798877     
   6.0900000000000010E-002    -58.142623125717478     
   6.1200000000000004E-002    -55.923457790838825     
   6.1500000000000013E-002    -50.779282755515624     
   6.1800000000000008E-002    -42.785086017704998     
   6.2100000000000002E-002    -32.215806476081411     
   6.2399999999999997E-002    -19.540134035432573     
   6.2700000000000006E-002    -5.3918588146802335     
   6.3000000000000000E-002     9.4725302627552992     
   6.3300000000000009E-002     24.226996580218838     
   6.3600000000000004E-002     38.033905311322997     
   6.3899999999999998E-002     50.107939611457823     
   6.4199999999999993E-002     59.771793080790758     
   6.4500000000000002E-002     66.504609710712543     
   6.4800000000000010E-002     69.979187207615368     
   6.5100000000000005E-002     70.078636990870621     
   6.5400000000000000E-002     66.901781047134705     
   6.5700000000000008E-002     60.747840747898636     
   6.5999999999999989E-002     52.086972217110770     
   6.6299999999999998E-002     41.518882699033838     
   6.6600000000000006E-002     29.725110972665675     
   6.6900000000000001E-002     17.414938610488178     
   6.7199999999999996E-002     5.2769822495126846     
   6.7500000000000004E-002    -6.0683596015725811     
   6.7800000000000013E-002    -16.103573722408214     
   6.8099999999999994E-002    -24.438905368989936     
   6.8400000000000002E-002    -30.826792359321416     
   6.8700000000000011E-002    -35.158103013737900     
   6.8999999999999992E-002    -37.459539108025638     
   6.9300000000000000E-002    -37.867989561063297     
   6.9600000000000009E-002    -36.607240518938966     
   6.9900000000000004E-002    -33.968973618583618     
   7.0199999999999999E-002    -30.271605325337759     
   7.0500000000000007E-002    -25.849934490913938     
   7.0800000000000016E-002    -21.023868806028645     
   7.1099999999999997E-002    -16.081185271990762     
   7.1400000000000005E-002    -11.277906834478699     
   7.1700000000000000E-002    -6.8109274937395270     
   7.1999999999999995E-002    -2.8354722692939021     
   7.2300000000000003E-002    0.54625737288918685     
   7.2600000000000012E-002     3.2841949388869978     
   7.2900000000000006E-002     5.3607894347711351     
   7.3200000000000001E-002     6.8057859243661198     
   7.3499999999999996E-002     7.6709770992283950     
   7.3800000000000004E-002     8.0313131778258935     
   7.4099999999999999E-002     7.9807481833642715     
   7.4400000000000008E-002     7.6118350984534544     
   7.4700000000000003E-002     7.0244172491693462     
   7.5000000000000011E-002     6.3077145993793522     
   7.5299999999999992E-002     5.5373542296696030     
   7.5600000000000001E-002     4.7789661917526018     
   7.5900000000000009E-002     4.0742278120890916     
   7.6200000000000004E-002     3.4514771854556869     
   7.6499999999999999E-002     2.9233101226961793     
   7.6800000000000007E-002     2.4854328366349137     
   7.7099999999999988E-002     2.1301831549649819     
   7.7399999999999997E-002     1.8413721049809055     
   7.7700000000000005E-002     1.6020463186979228     
   7.8000000000000014E-002     1.3998422757215323     
   7.8299999999999995E-002     1.2224192953691642     
   7.8600000000000003E-002     1.0650711740017087     
   7.8900000000000012E-002    0.92555621726712189     
   7.9199999999999993E-002    0.80303504329878095     
   7.9500000000000001E-002    0.70057236525792277     
   7.9800000000000010E-002    0.61730718789690542     
   8.0100000000000018E-002    0.55158988015435639     
   8.0399999999999999E-002    0.50104791348006827     
   8.0700000000000008E-002    0.45877072925589779     
   8.1000000000000003E-002    0.41816117613406689     
   8.1299999999999997E-002    0.37254437991347267     
   8.1600000000000006E-002    0.31560891815205316     
   8.1900000000000014E-002    0.24483530604904846     
   8.2199999999999995E-002    0.16021089672218336     
   8.2500000000000004E-002     6.3979172835423537E-002
   8.2799999999999999E-002    -3.8262741694913782E-002
   8.3100000000000007E-002   -0.14154366311128941     
   8.3400000000000002E-002   -0.24101665913781822     
   8.3700000000000011E-002   -0.33075621493067331     
   8.4000000000000005E-002   -0.41145958049632370     
   8.4300000000000000E-002   -0.48263320354353034     
   8.4599999999999995E-002   -0.54661315736009009     
   8.4900000000000003E-002   -0.61017993285872762     
   8.5199999999999998E-002   -0.67280884293086274     
   8.5500000000000007E-002   -0.74056761204884936     
   8.5800000000000001E-002   -0.81185527654684364     
   8.6100000000000010E-002   -0.88188472296979015     
   8.6399999999999991E-002   -0.94965280537263297     
   8.6699999999999999E-002    -1.0022965108085629     
   8.7000000000000008E-002    -1.0358572511022714     
   8.7300000000000003E-002    -1.0421415283862672     
   8.7599999999999997E-002    -1.0136304818987689     
   8.7900000000000006E-002   -0.95441200249775093     
   8.8200000000000014E-002   -0.86127906692020417     
   8.8499999999999995E-002   -0.74398018941178634     
   8.8800000000000004E-002   -0.61225726783520074     
   8.9100000000000013E-002   -0.47301284158417722     
   8.9399999999999993E-002   -0.34241427245870426     
   8.9700000000000002E-002   -0.22480124173273008     
   9.0000000000000011E-002   -0.12860058769822302     
   9.0299999999999991E-002    -5.8649056911787678E-002
   9.0600000000000000E-002    -9.9710125511498493E-003
   9.0900000000000009E-002     1.6136347571613058E-002
   9.1200000000000017E-002     2.8318240917054815E-002
   9.1499999999999998E-002     3.3397380351144590E-002
   9.1800000000000007E-002     3.4327591703826044E-002
   9.2100000000000001E-002     3.9686154772312632E-002
   9.2399999999999996E-002     4.9255475816382788E-002
   9.2700000000000005E-002     6.3806014428267943E-002
   9.3000000000000013E-002     8.3853217737583918E-002
   9.3300000000000008E-002    0.10340198518288446     
   9.3600000000000003E-002    0.12232215943873248     
   9.3899999999999997E-002    0.13779838656993881     
   9.4200000000000006E-002    0.14638453167577037     
   9.4500000000000001E-002    0.15240846552515741     
   9.4800000000000009E-002    0.15507354419918684     
   9.5100000000000004E-002    0.15857472340203493     
   9.5399999999999999E-002    0.16909821077309672     
   9.5699999999999993E-002    0.18624933326026749     
   9.6000000000000002E-002    0.21588354986619507     
   9.6300000000000011E-002    0.25671604974134077     
   9.6600000000000005E-002    0.30508887737475909     
   9.6900000000000000E-002    0.36024133218445797     
   9.7200000000000009E-002    0.41131079501915124     
   9.7499999999999989E-002    0.45315967750413400     
   9.7799999999999998E-002    0.47854875317709400     
   9.8100000000000007E-002    0.47696597239482852     
   9.8400000000000015E-002    0.44872997549032156     
   9.8699999999999996E-002    0.38900340352262486     
   9.9000000000000005E-002    0.30020251463341907     
   9.9300000000000013E-002    0.19119646639770060     
   9.9599999999999994E-002     6.6466006389090948E-002
   9.9900000000000003E-002    -5.8171554538506420E-002
  0.10020000000000001        -0.17213254546957391     
  0.10049999999999999        -0.26540223020367559     
  0.10080000000000000        -0.32353296074347337     
  0.10110000000000001        -0.34542982524692567     
  0.10140000000000000        -0.32700790154878634     
  0.10170000000000000        -0.27078005429890362     
  0.10200000000000001        -0.19004718672090481     
  0.10230000000000002         -9.1801667308987756E-002
  0.10260000000000000          4.6197602418027728E-003
  0.10290000000000001          8.4329549500784751E-002
  0.10320000000000000         0.13692718982546825     
  0.10350000000000001         0.14689006600296217     
  0.10380000000000000         0.11684397683352410     
  0.10410000000000001          4.7313876212793815E-002
  0.10440000000000001         -5.2017966095790236E-002
  0.10470000000000000        -0.15868667412433168     
  0.10500000000000000        -0.25796236107621695     
  0.10530000000000000        -0.32205877463198451     
  0.10560000000000000        -0.33186981438305452     
  0.10590000000000001        -0.27552692548798419     
  0.10620000000000000        -0.14194491162229750     
  0.10650000000000001          5.7158672945215372E-002
  0.10679999999999999         0.30765687655585805     
  0.10710000000000000         0.58150093142362458     
  0.10740000000000001         0.83832927040407590     
  0.10770000000000000          1.0427734331240881     
  0.10800000000000000          1.1513325567084767     
  0.10830000000000001          1.1335897486749857     
  0.10859999999999999         0.97167999177489150     
  0.10890000000000000         0.65863137589886422     
  0.10920000000000001         0.21367542050217558     
  0.10950000000000001        -0.33143776283814930     
  0.10979999999999999        -0.92736534733491993     
  0.11009999999999999         -1.5110486007149291     
  0.11040000000000001         -2.0204256249466823     
  0.11070000000000001         -2.3919172303095877     
  0.11100000000000000         -2.5743944306134239     
  0.11130000000000000         -2.5356653114439496     
  0.11160000000000002         -2.2608539659757021     
  0.11190000000000001         -1.7626325816022934     
  0.11220000000000001         -1.0761302602724676     
  0.11250000000000000        -0.25295163134135379     
  0.11280000000000000         0.63578191486899271     
  0.11309999999999999          1.5166802683048246     
  0.11340000000000001          2.3150631830162212     
  0.11369999999999998          2.9615737010051362     
  0.11400000000000000          3.4068851659064023     
  0.11430000000000000          3.6134301751352922     
  0.11460000000000002          3.5686751178493452     
  0.11489999999999999          3.2815266944504495     
  0.11520000000000001          2.7753910082585449     
  0.11550000000000001          2.0963254089292320     
  0.11580000000000000          1.2955781643385649     
  0.11609999999999999         0.43248362503577553     
  0.11640000000000002        -0.43024720425668761     
  0.11670000000000001         -1.2393051326305269     
  0.11700000000000001         -1.9426457550093517     
  0.11730000000000000         -2.5025152228503913     
  0.11760000000000000         -2.8938384938644219     
  0.11789999999999999         -3.1000705319885213     
  0.11820000000000001         -3.1233799771119060     
  0.11850000000000001         -2.9729879540675661     
  0.11880000000000000         -2.6698887033474321     
  0.11910000000000000         -2.2453199796452665     
  0.11940000000000002         -1.7314756664354860     
  0.11970000000000001         -1.1678393772474216     
  0.12000000000000001        -0.59201990654749448     
  0.12030000000000000         -3.8690659115266257E-002
  0.12060000000000000         0.45898061793229772     
  0.12089999999999999         0.87834872436484090     
  0.12119999999999999          1.2017464950522410     
  0.12150000000000001          1.4200135039890469     
  0.12180000000000001          1.5343615592608160     
  0.12210000000000000          1.5493579379145608     
  0.12239999999999999          1.4796088743416078     
  0.12270000000000002          1.3414827263379898     
  0.12300000000000001          1.1532907016524518     
  0.12330000000000001         0.93664061169664947     
  0.12360000000000000         0.70725205175796724     
  0.12390000000000000         0.48268184856290652     
  0.12419999999999999         0.27459303661911338     
  0.12450000000000001          9.1349734887113510E-002
  0.12480000000000001         -6.0063964119311031E-002
  0.12509999999999999        -0.17921898343047005     
  0.12540000000000001        -0.26403788594574173     
  0.12570000000000003        -0.31742890197998186     
  0.12600000000000000        -0.34217815285421516     
  0.12630000000000002        -0.34075993922724912     
  0.12659999999999999        -0.31984795174249214     
  0.12690000000000001        -0.28196551674813608     
  0.12719999999999998        -0.23388168556001609     
  0.12750000000000000        -0.18020476756224735     
  0.12780000000000002        -0.12547336772089368     
  0.12809999999999999         -7.6558562697061294E-002
  0.12840000000000001         -3.4754671662853245E-002
  0.12869999999999998         -5.6463957749628424E-003
  0.12900000000000000          1.0944183192558521E-002
  0.12930000000000003          1.5363284115720521E-002
  0.12959999999999999          7.4290406384123209E-003
  0.12990000000000002         -7.3491911390849429E-003
  0.13019999999999998         -2.8359084954113156E-002
  0.13050000000000000         -4.9851799126829688E-002
  0.13080000000000003         -6.9060746082867830E-002
  0.13109999999999999         -8.4514129388246761E-002
  0.13140000000000002         -9.2443499689420339E-002
  0.13169999999999998         -9.5586242875241867E-002
  0.13200000000000001         -9.2624755096338107E-002
  0.13229999999999997         -8.5509907571503785E-002
  0.13260000000000000         -7.6699427340994220E-002
  0.13290000000000002         -6.5608829493725263E-002
  0.13319999999999999         -5.5215589876617122E-002
  0.13350000000000001         -4.3930344542436828E-002
  0.13380000000000003         -3.2019458455804117E-002
  0.13410000000000000         -1.9459849217285885E-002
  0.13440000000000002         -4.0426952952830608E-003
  0.13469999999999999          1.2759214141934594E-002
  0.13500000000000001          3.1501117923561583E-002
  0.13529999999999998          5.0805520438624963E-002
  0.13560000000000000          6.8290589875884100E-002
  0.13590000000000002          8.2759815022776184E-002
  0.13619999999999999          9.0952063102930136E-002
  0.13650000000000001          9.2508858420027984E-002
  0.13680000000000003          8.6740720698424756E-002
  0.13710000000000000          7.3950358397920857E-002
  0.13740000000000002          5.6980167771331192E-002
  0.13769999999999999          3.7496764080466205E-002
  0.13800000000000001          1.9333046287091094E-002
  0.13829999999999998          5.4165237466281546E-003
  0.13860000000000000         -2.4180611558785037E-003
  0.13890000000000002         -2.2490695354857870E-003
  0.13919999999999999          4.1048584808795752E-003
  0.13950000000000001          1.6111798941298938E-002
  0.13979999999999998          3.1444880744973314E-002
  0.14010000000000000          4.5975227234875793E-002
  0.14040000000000002          5.9284710210056879E-002
  0.14069999999999999          6.7128024886446980E-002
  0.14100000000000001          7.0122331614249633E-002
  0.14130000000000004          6.8620086362001009E-002
  0.14160000000000000          6.2079272071023928E-002
  0.14189999999999997          5.6142130703058513E-002
  0.14219999999999999          4.8830133511011953E-002
  0.14250000000000002          4.4302732481191320E-002
  0.14279999999999998          4.3308298070149798E-002
  0.14310000000000000          4.2494662567204355E-002
  0.14339999999999997          4.5244651975847136E-002
  0.14369999999999999          4.4742816364393700E-002
  0.14400000000000002          4.1703761422968721E-002
  0.14429999999999998          3.4180404889600391E-002
  0.14460000000000001          1.7802403952139667E-002
  0.14490000000000003         -1.5865426201107091E-003
  0.14520000000000000         -2.7725200237709080E-002
  0.14550000000000002         -5.5120738377747003E-002
  0.14579999999999999         -7.9471729380228617E-002
  0.14610000000000001        -0.10140285759223641     
  0.14640000000000003        -0.11249976601015388     
  0.14670000000000000        -0.11595688848158980     
  0.14699999999999996        -0.10945880251450180     
  0.14729999999999999         -9.3101788820358244E-002
  0.14760000000000001         -7.3705536104947414E-002
  0.14789999999999998         -4.9314290982333087E-002
  0.14820000000000000         -2.7370818390181517E-002