  -1.4999999999999999E-002     0.0000000000000000     
  -1.4700000000000000E-002     0.0000000000000000     
  -1.4400000000000000E-002     0.0000000000000000     
  -1.4100000000000000E-002     0.0000000000000000     
  -1.3800000000000000E-002     0.0000000000000000     
  -1.3500000000000000E-002     0.0000000000000000     
  -1.3200000000000000E-002     0.0000000000000000     
  -1.2899999999999998E-002     0.0000000000000000     
  -1.2600000000000000E-002     0.0000000000000000     
  -1.2299999999999998E-002     0.0000000000000000     
  -1.2000000000000000E-002     0.0000000000000000     
  -1.1699999999999999E-002     0.0000000000000000     
  -1.1399999999999999E-002     0.0000000000000000     
  -1.1099999999999999E-002     0.0000000000000000     
  -1.0799999999999999E-002     0.0000000000000000     
  -1.0499999999999999E-002     0.0000000000000000     
  -1.0199999999999999E-002     0.0000000000000000     
  -9.8999999999999991E-003     0.0000000000000000     
  -9.5999999999999992E-003    -5.4493300075015932E-037
  -9.2999999999999992E-003    -2.0300157504594447E-035
  -8.9999999999999993E-003     3.4518194165579733E-034
  -8.6999999999999994E-003    -5.6536870170736446E-033
  -8.3999999999999995E-003     3.1477693354850429E-032
  -8.0999999999999996E-003     1.0132790691446889E-033
  -7.7999999999999988E-003    -5.7458380159153965E-031
  -7.4999999999999997E-003     2.3558103443727779E-031
  -7.1999999999999998E-003     6.7236907651215008E-030
  -6.8999999999999981E-003     4.3324311692663425E-029
  -6.5999999999999982E-003    -3.7387461712807206E-028
  -6.3000000000000000E-003    -3.4122784160302375E-029
  -6.0000000000000001E-003     6.8796289914132225E-027
  -5.6999999999999985E-003    -1.8933900483444513E-026
  -5.3999999999999986E-003    -8.3782636442469509E-027
  -5.1000000000000004E-003     3.3062319177267148E-026
  -4.7999999999999987E-003     6.7298256305515541E-025
  -4.5000000000000005E-003    -3.3910444244069020E-024
  -4.1999999999999989E-003     5.7028707269167365E-024
  -3.8999999999999990E-003     2.7920627335030403E-024
  -3.5999999999999990E-003    -2.1184275852640408E-023
  -3.2999999999999991E-003    -8.7869157305605878E-024
  -2.9999999999999992E-003     1.6734185899632570E-022
  -2.6999999999999993E-003    -3.1624229573024634E-022
  -2.3999999999999994E-003    -5.3400657868826315E-023
  -2.0999999999999977E-003     1.1933996826315004E-021
  -1.7999999999999995E-003    -2.0879934956236825E-021
  -1.4999999999999979E-003     1.7276050795114282E-021
  -1.1999999999999997E-003    -4.1957355244752851E-021
  -8.9999999999999976E-004     2.0632952477039772E-020
  -5.9999999999999810E-004    -5.1526337282718262E-020
  -2.9999999999999992E-004     3.9473918323385712E-020
   0.0000000000000000          1.7693982668695706E-019
   3.0000000000000165E-004    -8.1073145398816302E-019
   5.9999999999999984E-004     1.8607669829709529E-018
   9.0000000000000149E-004    -2.7002940933469471E-018
   1.2000000000000031E-003     2.0251039892426286E-018
   1.5000000000000013E-003     1.0350473781748470E-018
   1.8000000000000030E-003    -4.6931088805834152E-018
   2.1000000000000012E-003     4.2213326220683900E-018
   2.3999999999999994E-003    -6.9285971596421683E-019
   2.7000000000000010E-003     2.3106221694317410E-017
   2.9999999999999992E-003    -1.3622587368718577E-016
   3.3000000000000008E-003     3.0416836668871678E-016
   3.6000000000000025E-003     2.0134777837534611E-016
   3.9000000000000007E-003    -4.1412923098920439E-015
   4.2000000000000023E-003     1.7262482337131700E-014
   4.5000000000000005E-003    -4.2097767871500380E-014
   4.7999999999999987E-003     4.5724390257146502E-014
   5.1000000000000004E-003     1.2656177917746286E-013
   5.4000000000000020E-003    -8.7895565391987729E-013
   5.7000000000000037E-003     2.8168912515058597E-012
   5.9999999999999984E-003    -5.7496039179705249E-012
   6.3000000000000000E-003     4.8866388366319846E-012
   6.6000000000000017E-003     1.8571501975150895E-011
   6.9000000000000034E-003    -1.1049262893525480E-010
   7.2000000000000015E-003     3.2983454856250205E-010
   7.5000000000000032E-003    -6.1105559501228868E-010
   7.8000000000000014E-003     4.0656086830459515E-010
   8.0999999999999996E-003     1.6547927472743140E-009
   8.4000000000000012E-003    -7.1543198032486544E-009
   8.7000000000000029E-003     1.4989856467195750E-008
   9.0000000000000011E-003    -1.2515498859499985E-008
   9.2999999999999992E-003    -4.1628535285553880E-008
   9.6000000000000009E-003     1.7543209196446696E-007
   9.8999999999999991E-003    -1.7727646195453417E-007
   1.0200000000000001E-002    -6.2873590422896086E-007
   1.0500000000000002E-002     1.3568929944085539E-006
   1.0800000000000004E-002     1.8216301214124542E-006
   1.1099999999999999E-002    -4.7714834181533661E-006
   1.1400000000000000E-002    -4.6045433919061907E-006
   1.1700000000000002E-002     3.1408646464115009E-005
   1.2000000000000004E-002     1.1535353405633941E-004
   1.2300000000000002E-002     2.2724489099346101E-004
   1.2600000000000000E-002     3.4596171462908387E-004
   1.2900000000000002E-002     4.9025978660210967E-004
   1.3200000000000000E-002     7.1728747570887208E-004
   1.3500000000000002E-002     1.1021922109648585E-003
   1.3800000000000003E-002     1.7252101097255945E-003
   1.4100000000000001E-002     2.6640137657523155E-003
   1.4400000000000000E-002     4.0208911523222923E-003
   1.4700000000000001E-002     5.9567815624177456E-003
   1.4999999999999999E-002     8.6966585367918015E-003
   1.5300000000000001E-002     1.2534928508102894E-002
   1.5600000000000003E-002     1.7834110185503960E-002
   1.5899999999999997E-002     2.5018217042088509E-002
   1.6199999999999999E-002     3.4569058567285538E-002
   1.6500000000000001E-002     4.7020234167575836E-002
   1.6800000000000002E-002     6.2949135899543762E-002
   1.7100000000000004E-002     8.2912400364875793E-002
   1.7400000000000006E-002    0.10735619813203812     
   1.7700000000000000E-002    0.13655139505863190     
   1.8000000000000002E-002    0.17049126327037811     
   1.8300000000000004E-002    0.20873048901557922     
   1.8600000000000005E-002    0.25021597743034363     
   1.8900000000000000E-002    0.29313233494758606     
   1.9200000000000002E-002    0.33477643132209778     
   1.9500000000000003E-002    0.37146171927452087     
   1.9799999999999998E-002    0.39846000075340271     
   2.0100000000000000E-002    0.41009455919265747     
   2.0400000000000001E-002    0.39992600679397583     
   2.0700000000000003E-002    0.36106270551681519     
   2.0999999999999998E-002    0.28663653135299683     
   2.1299999999999999E-002    0.17047351598739624     
   2.1600000000000001E-002     7.8470567241311073E-003
   2.1900000000000003E-002   -0.20365466177463531     
   2.2200000000000004E-002   -0.46331414580345154     
   2.2500000000000006E-002   -0.76653522253036499     
   2.2800000000000001E-002    -1.1043419837951660     
   2.3100000000000002E-002    -1.4630599021911621     
   2.3400000000000004E-002    -1.8245080709457397     
   2.3699999999999999E-002    -2.1666221618652344     
   2.4000000000000000E-002    -2.4645314216613770     
   2.4300000000000002E-002    -2.6921231746673584     
   2.4599999999999997E-002    -2.8239390850067139     
   2.4900000000000005E-002    -2.8374514579772949     
   2.5200000000000000E-002    -2.7151989936828613     
   2.5499999999999995E-002    -2.4466588497161865     
   2.5800000000000003E-002    -2.0300338268280029     
   2.6099999999999998E-002    -1.4730644226074219     
   2.6400000000000007E-002   -0.79353153705596924     
   2.6700000000000002E-002    -1.8501222133636475E-002
   2.6999999999999996E-002    0.81697946786880493     
   2.7300000000000005E-002     1.6721566915512085     
   2.7600000000000000E-002     2.5034837722778320     
   2.7900000000000008E-002     3.2674193382263184     
   2.8200000000000003E-002     3.9238772392272949     
   2.8499999999999998E-002     4.4391107559204102     
   2.8800000000000006E-002     4.7877745628356934     
   2.9100000000000001E-002     4.9553074836730957     
   2.9400000000000003E-002     4.9382252693176270     
   2.9700000000000004E-002     4.7442169189453125     
   3.0000000000000006E-002     4.3913393020629883     
   3.0300000000000001E-002     3.9058012962341309     
   3.0600000000000002E-002     3.3200967311859131     
   3.0900000000000004E-002     2.6700656414031982     
   3.1199999999999999E-002     1.9918414354324341     
   3.1500000000000007E-002     1.3194806575775146     
   3.1800000000000002E-002    0.68231916427612305     
   3.2099999999999997E-002    0.10314919054508209     
   3.2400000000000005E-002   -0.40290102362632751     
   3.2700000000000000E-002   -0.82935768365859985     
   3.3000000000000002E-002    -1.1777247190475464     
   3.3300000000000003E-002    -1.4570095539093018     
   3.3599999999999998E-002    -1.6825489997863770     
   3.3900000000000000E-002    -1.8733570575714111     
   3.4200000000000001E-002    -2.0506603717803955     
   3.4500000000000003E-002    -2.2351253032684326     
   3.4799999999999998E-002    -2.4442315101623535     
   3.5099999999999999E-002    -2.6907784938812256     
   3.5400000000000001E-002    -2.9798169136047363     
   3.5699999999999996E-002    -3.3081557750701904     
   3.6000000000000004E-002    -3.6632919311523438     
   3.6299999999999999E-002    -4.0231370925903320     
   3.6600000000000008E-002    -4.3578195571899414     
   3.6900000000000002E-002    -4.6306948661804199     
   3.7199999999999997E-002    -4.8014893531799316     
   3.7500000000000006E-002    -4.8298220634460449     
   3.7800000000000000E-002    -4.6784777641296387     
   3.8100000000000009E-002    -4.3180918693542480     
   3.8400000000000004E-002    -3.7303504943847656     
   3.8699999999999998E-002    -2.9111666679382324     
   3.9000000000000007E-002    -1.8733044862747192     
   3.9300000000000002E-002   -0.64637672901153564     
   3.9600000000000003E-002    0.72261512279510498     
   3.9900000000000005E-002     2.1720519065856934     
   4.0200000000000000E-002     3.6292324066162109     
   4.0500000000000001E-002     5.0139369964599609     
   4.0800000000000003E-002     6.2454047203063965     
   4.1100000000000005E-002     7.2466678619384766     
   4.1399999999999999E-002     7.9510493278503418     
   4.1700000000000008E-002     8.3070650100708008     
   4.2000000000000003E-002     8.2819623947143555     
   4.2299999999999997E-002     7.8652644157409668     
   4.2600000000000006E-002     7.0691385269165039     
   4.2900000000000001E-002     5.9283022880554199     
   4.3200000000000002E-002     4.4980430603027344     
   4.3500000000000004E-002     2.8505718708038330     
   4.3799999999999999E-002     1.0710829496383667     
   4.4100000000000000E-002   -0.74812066555023193     
   4.4400000000000002E-002    -2.5125257968902588     
   4.4700000000000004E-002    -4.1314277648925781     
   4.4999999999999998E-002    -5.5230350494384766     
   4.5300000000000000E-002    -6.6192131042480469     
   4.5600000000000002E-002    -7.3694610595703125     
   4.5899999999999996E-002    -7.7433395385742188     
   4.6200000000000005E-002    -7.7327575683593750     
   4.6500000000000000E-002    -7.3518409729003906     
   4.6799999999999994E-002    -6.6360268592834473     
   4.7100000000000003E-002    -5.6401033401489258     
   4.7399999999999998E-002    -4.4344043731689453     
   4.7700000000000006E-002    -3.1009750366210938     
   4.8000000000000001E-002    -1.7277690172195435     
   4.8300000000000010E-002   -0.40311303734779358     
   4.8600000000000004E-002    0.78990155458450317     
   4.8899999999999999E-002     1.7798186540603638     
   4.9200000000000008E-002     2.5106928348541260     
   4.9500000000000002E-002     2.9469475746154785     
   4.9800000000000011E-002     3.0756208896636963     
   5.0100000000000006E-002     2.9066507816314697     
   5.0400000000000000E-002     2.4734156131744385     
   5.0700000000000009E-002     1.8285645246505737     
   5.1000000000000004E-002     1.0407370328903198     
   5.1299999999999998E-002    0.18888613581657410     
   5.1600000000000007E-002   -0.64481097459793091     
   5.1900000000000002E-002    -1.3807189464569092     
   5.2200000000000010E-002    -1.9493680000305176     
   5.2500000000000005E-002    -2.2966449260711670     
   5.2800000000000000E-002    -2.3883361816406250     
   5.3099999999999994E-002    -2.2134985923767090     
   5.3400000000000003E-002    -1.7844452857971191     
   5.3699999999999998E-002    -1.1358355283737183     
   5.4000000000000006E-002   -0.32099226117134094     
   5.4300000000000001E-002    0.59310942888259888     
   5.4599999999999996E-002     1.5325485467910767     
   5.4900000000000004E-002     2.4233746528625488     
   5.5199999999999999E-002     3.1986937522888184     
   5.5499999999999994E-002     3.8055369853973389     
   5.5800000000000002E-002     4.2087311744689941     
   5.6099999999999997E-002     4.3952980041503906     
   5.6400000000000006E-002     4.3743147850036621     
   5.6700000000000000E-002     4.1752943992614746     
   5.6999999999999995E-002     3.8453645706176758     
   5.7300000000000004E-002     3.4423835277557373     
   5.7599999999999998E-002     3.0295057296752930     
   5.7900000000000007E-002     2.6672406196594238     
   5.8200000000000002E-002     2.4065892696380615     
   5.8499999999999996E-002     2.2846014499664307     
   5.8800000000000005E-002     2.3185365200042725     
   5.9100000000000000E-002     2.5054416656494141     
   5.9400000000000008E-002     2.8222000598907471     
   5.9700000000000003E-002     3.2273252010345459     
   6.0000000000000012E-002     3.6673653125762939     
   6.0300000000000006E-002     4.0801391601562500     
   6.0600000000000001E-002     4.4025053977966309     
   6.0900000000000010E-002     4.5763072967529297     
   6.1200000000000004E-002     4.5522942543029785     
   6.1500000000000013E-002     4.2962961196899414     
   6.1800000000000008E-002     3.7894737720489502     
   6.2100000000000002E-002     3.0298087596893311     
   6.2399999999999997E-002     2.0318455696105957     
   6.2700000000000006E-002    0.82274454832077026     
   6.3000000000000000E-002   -0.55791211128234863     
   6.3300000000000009E-002    -2.0649828910827637     
   6.3600000000000004E-002    -3.6481842994689941     
   6.3899999999999998E-002    -5.2556838989257812     
   6.4199999999999993E-002    -6.8384914398193359     
   6.4500000000000002E-002    -8.3482742309570312     
   6.4800000000000010E-002    -9.7420959472656250     
   6.5100000000000005E-002    -10.979964256286621     
   6.5400000000000000E-002    -12.025331497192383     
   6.5700000000000008E-002    -12.846802711486816     
   6.5999999999999989E-002    -13.414269447326660     
   6.6299999999999998E-002    -13.702390670776367     
   6.6600000000000006E-002    -13.688853263854980     
   6.6900000000000001E-002    -13.355051040649414     
   6.7199999999999996E-002    -12.688916206359863     
   6.7500000000000004E-002    -11.683274269104004     
   6.7800000000000013E-002    -10.340116500854492     
   6.8099999999999994E-002    -8.6709508895874023     
   6.8400000000000002E-002    -6.6973991394042969     
   6.8700000000000011E-002    -4.4549846649169922     
   6.8999999999999992E-002    -1.9908975362777710     
   6.9300000000000000E-002    0.63415467739105225     
   6.9600000000000009E-002     3.3455107212066650     
   6.9900000000000004E-002     6.0604743957519531     
   7.0199999999999999E-002     8.6844625473022461     
   7.0500000000000007E-002     11.120694160461426     
   7.0800000000000016E-002     13.270753860473633     
   7.1099999999999997E-002     15.039709091186523     
   7.1400000000000005E-002     16.346019744873047     
   7.1700000000000000E-002     17.120052337646484     
   7.1999999999999995E-002     17.315656661987305     
   7.2300000000000003E-002     16.911544799804688     
   7.2600000000000012E-002     15.912408828735352     
   7.2900000000000006E-002     14.356167793273926     
   7.3200000000000001E-002     12.306756019592285     
   7.3499999999999996E-002     9.8568449020385742     
   7.3800000000000004E-002     7.1218075752258301     
   7.4099999999999999E-002     4.2315831184387207     
   7.4400000000000008E-002     1.3287355899810791     
   7.4700000000000003E-002    -1.4458205699920654     
   7.5000000000000011E-002    -3.9566664695739746     
   7.5299999999999992E-002    -6.0831031799316406     
   7.5600000000000001E-002    -7.7290573120117188     
   7.5900000000000009E-002    -8.8244533538818359     
   7.6200000000000004E-002    -9.3338937759399414     
   7.6499999999999999E-002    -9.2567338943481445     
   7.6800000000000007E-002    -8.6267452239990234     
   7.7099999999999988E-002    -7.5121903419494629     
   7.7399999999999997E-002    -6.0086126327514648     
   7.7700000000000005E-002    -4.2350420951843262     
   7.8000000000000014E-002    -2.3248698711395264     
   7.8299999999999995E-002   -0.41681236028671265     
   7.8600000000000003E-002     1.3530585765838623     
   7.8900000000000012E-002     2.8620650768280029     
   7.9199999999999993E-002     4.0087919235229492     
   7.9500000000000001E-002     4.7198543548583984     
   7.9800000000000010E-002     4.9552884101867676     
   8.0100000000000018E-002     4.7113380432128906     
   8.0399999999999999E-002     4.0198798179626465     
   8.0700000000000008E-002     2.9464137554168701     
   8.1000000000000003E-002     1.5840977430343628     
   8.1299999999999997E-002     4.6279303729534149E-002
   8.1600000000000006E-002    -1.5422075986862183     
   8.1900000000000014E-002    -3.0561895370483398     
   8.2199999999999995E-002    -4.3799843788146973     
   8.2500000000000004E-002    -5.4162626266479492     
   8.2799999999999999E-002    -6.0948839187622070     
   8.3100000000000007E-002    -6.3775339126586914     
   8.3400000000000002E-002    -6.2611145973205566     
   8.3700000000000011E-002    -5.7770152091979980     
   8.4000000000000005E-002    -4.9863162040710449     
   8.4300000000000000E-002    -3.9755744934082031     
   8.4599999999999995E-002    -2.8459141254425049     
   8.4900000000000003E-002    -1.7044287919998169     
   8.5199999999999998E-002   -0.65389204025268555     
   8.5500000000000007E-002    0.21874547004699707     
   8.5800000000000001E-002    0.84754425287246704     
   8.6100000000000010E-002     1.1957321166992188     
   8.6399999999999991E-002     1.2569409608840942     
   8.6699999999999999E-002     1.0536473989486694     
   8.7000000000000008E-002    0.63561898469924927     
   8.7300000000000003E-002     7.0656076073646545E-002
   8.7599999999999997E-002   -0.56135451793670654     
   8.7900000000000006E-002    -1.1783419847488403     
   8.8200000000000014E-002    -1.7068066596984863     
   8.8499999999999995E-002    -2.0859458446502686     
   8.8800000000000004E-002    -2.2765834331512451     
   8.9100000000000013E-002    -2.2623865604400635     
   8.9399999999999993E-002    -2.0491828918457031     
   8.9700000000000002E-002    -1.6654181480407715     
   9.0000000000000011E-002    -1.1535122394561768     
   9.0299999999999991E-002   -0.56656348705291748     
   9.0600000000000000E-002     3.9777591824531555E-002
   9.0900000000000009E-002    0.61529421806335449     
   9.1200000000000017E-002     1.1177264451980591     
   9.1499999999999998E-002     1.5199331045150757     
   9.1800000000000007E-002     1.8099243640899658     
   9.2100000000000001E-002     1.9902206659317017     
   9.2399999999999996E-002     2.0780711174011230     
   9.2700000000000005E-002     2.0985968112945557     
   9.3000000000000013E-002     2.0828835964202881     
   9.3300000000000008E-002     2.0624325275421143     
   9.3600000000000003E-002     2.0638611316680908     
   9.3899999999999997E-002     2.1082339286804199     
   9.4200000000000006E-002     2.2060177326202393     
   9.4500000000000001E-002     2.3588752746582031     
   9.4800000000000009E-002     2.5601186752319336     
   9.5100000000000004E-002     2.7956349849700928     
   9.5399999999999999E-002     3.0483927726745605     
   9.5699999999999993E-002     3.2996158599853516     
   9.6000000000000002E-002     3.5318505764007568     
   9.6300000000000011E-002     3.7316887378692627     
   9.6600000000000005E-002     3.8894793987274170     
   9.6900000000000000E-002     4.0004434585571289     
   9.7200000000000009E-002     4.0634994506835938     
   9.7499999999999989E-002     4.0790848731994629     
   9.7799999999999998E-002     4.0491476058959961     
   9.8100000000000007E-002     3.9744973182678223     
   9.8400000000000015E-002     3.8547949790954590     
   9.8699999999999996E-002     3.6885218620300293     
   9.9000000000000005E-002     3.4723293781280518     
   9.9300000000000013E-002     3.2040336132049561     
   9.9599999999999994E-002     2.8825871944427490     
   9.9900000000000003E-002     2.5099115371704102     
  0.10020000000000001          2.0920245647430420     
  0.10049999999999999          1.6369684934616089     
  0.10080000000000000          1.1549561023712158     
  0.10110000000000001         0.65598052740097046     
  0.10140000000000000         0.14561370015144348     
  0.10170000000000000        -0.37484258413314819     
  0.10200000000000001        -0.91218954324722290     
  0.10230000000000002         -1.4808285236358643     
  0.10260000000000000         -2.1011877059936523     
  0.10290000000000001         -2.7973239421844482     
  0.10320000000000000         -3.5908725261688232     
  0.10350000000000001         -4.4965438842773438     
  0.10380000000000000         -5.5170812606811523     
  0.10410000000000001         -6.6373395919799805     
  0.10440000000000001         -7.8242955207824707     
  0.10470000000000000         -9.0268840789794922     
  0.10500000000000000         -10.179381370544434     
  0.10530000000000000         -11.211077690124512     
  0.10560000000000000         -12.052172660827637     
  0.10590000000000001         -12.645542144775391     
  0.10620000000000000         -12.955670356750488     
  0.10650000000000001         -12.971992492675781     
  0.10679999999999999         -12.715918540954590     
  0.10710000000000000         -12.234621047973633     
  0.10740000000000001         -11.594190597534180     
  0.10770000000000000         -10.870354652404785     
  0.10800000000000000         -10.129324913024902     
  0.10830000000000001         -9.4167776107788086     
  0.10859999999999999         -8.7414007186889648     
  0.10890000000000000         -8.0632562637329102     
  0.10920000000000001         -7.2959480285644531     
  0.10950000000000001         -6.3026494979858398     
  0.10979999999999999         -4.9136114120483398     
  0.11009999999999999         -2.9466679096221924     
  0.11040000000000001        -0.22573116421699524     
  0.11070000000000001          3.3791062831878662     
  0.11100000000000000          7.9329929351806641     
  0.11130000000000000          13.406461715698242     
  0.11160000000000002          19.654319763183594     
  0.11190000000000001          26.420001983642578     
  0.11220000000000001          33.328872680664062     
  0.11250000000000000          39.915843963623047     
  0.11280000000000000          45.658508300781250     
  0.11309999999999999          50.009845733642578     
  0.11340000000000001          52.461181640625000     
  0.11369999999999998          52.581451416015625     
  0.11400000000000000          50.068195343017578     
  0.11430000000000000          44.792076110839844     
  0.11460000000000002          36.808837890625000     
  0.11489999999999999          26.383880615234375     
  0.11520000000000001          13.972847938537598     
  0.11550000000000001         0.19537979364395142     
  0.11580000000000000         -14.197263717651367     
  0.11609999999999999         -28.391717910766602     
  0.11640000000000002         -41.559795379638672     
  0.11670000000000001         -52.925926208496094     
  0.11700000000000001         -61.831584930419922     
  0.11730000000000000         -67.767913818359375     
  0.11760000000000000         -70.426521301269531     
  0.11789999999999999         -69.709075927734375     
  0.11820000000000001         -65.725128173828125     
  0.11850000000000001         -58.789226531982422     
  0.11880000000000000         -49.376251220703125     
  0.11910000000000000         -38.090980529785156     
  0.11940000000000002         -25.619895935058594     
  0.11970000000000001         -12.673032760620117     
  0.12000000000000001          5.0476133823394775E-002
  0.12030000000000000          11.917002677917480     
  0.12060000000000000          22.388349533081055     
  0.12089999999999999          31.042806625366211     
  0.12119999999999999          37.600566864013672     
  0.12150000000000001          41.916465759277344     
  0.12180000000000001          43.981849670410156     
  0.12210000000000000          43.912254333496094     
  0.12239999999999999          41.922763824462891     
  0.12270000000000002          38.312812805175781     
  0.12300000000000001          33.435028076171875     
  0.12330000000000001          27.670145034790039     
  0.12360000000000000          21.406538009643555     
  0.12390000000000000          15.011165618896484     
  0.12419999999999999          8.8157424926757812     
  0.12450000000000001          3.1004502773284912     
  0.12480000000000001         -1.9190617799758911     
  0.12509999999999999         -6.0917110443115234     
  0.12540000000000001         -9.3360614776611328     
  0.12570000000000003         -11.634705543518066     
  0.12600000000000000         -13.024296760559082     
  0.12630000000000002         -13.588986396789551     
  0.12659999999999999         -13.445854187011719     
  0.12690000000000001         -12.729930877685547     
  0.12719999999999998         -11.588004112243652     
  0.12750000000000000         -10.160887718200684     
  0.12780000000000002         -8.5778427124023438     
  0.12809999999999999         -6.9531869888305664     
  0.12840000000000001         -5.3757543563842773     
  0.12869999999999998         -3.9160070419311523     
  0.12900000000000000         -2.6209573745727539     
  0.12930000000000003         -1.5177232027053833     
  0.12959999999999999        -0.62053674459457397     
  0.12990000000000002          7.3100149631500244E-002
  0.13019999999999998         0.57219564914703369     
  0.13050000000000000         0.89303547143936157     
  0.13080000000000003          1.0596920251846313     
  0.13109999999999999          1.0948672294616699     
  0.13140000000000002          1.0270068645477295     
  0.13169999999999998         0.88423359394073486     
  0.13200000000000001         0.69281595945358276     
  0.13229999999999997         0.48114803433418274     
  0.13260000000000000         0.27111965417861938     
  0.13290000000000002          8.3824500441551208E-002
  0.13319999999999999         -6.5574720501899719E-002
  0.13350000000000001        -0.16877093911170959     
  0.13380000000000003        -0.22055576741695404     
  0.13410000000000000        -0.22380588948726654     
  0.13440000000000002        -0.18497300148010254     
  0.13469999999999999        -0.11364310979843140     
  0.13500000000000001         -2.2393137216567993E-002
  0.13529999999999998          7.6705709099769592E-002
  0.13560000000000000         0.17330576479434967     
  0.13590000000000002         0.25837129354476929     
  0.13619999999999999         0.32685273885726929     
  0.13650000000000001         0.37725216150283813     
  0.13680000000000003         0.40994024276733398     
  0.13710000000000000         0.42865276336669922     
  0.13740000000000002         0.43757361173629761     
  0.13769999999999999         0.44067671895027161     
  0.13800000000000001         0.44268915057182312     
  0.13829999999999998         0.44427472352981567     
  0.13860000000000000         0.44619345664978027     
  0.13890000000000002         0.44773197174072266     
  0.13919999999999999         0.44373351335525513     
  0.13950000000000001         0.43384212255477905     
  0.13979999999999998         0.41304275393486023     
  0.14010000000000000         0.37943530082702637     
  0.14040000000000002         0.33471810817718506     
  0.14069999999999999         0.27729550004005432     
  0.14100000000000001         0.21429140865802765     
  0.14130000000000004         0.14888657629489899     
  0.14160000000000000          8.6450226604938507E-002
  0.14189999999999997          3.5984821617603302E-002
  0.14219999999999999         -2.1352176554501057E-003
  0.14250000000000002         -2.1816719323396683E-002
  0.14279999999999998         -2.3453813046216965E-002
  0.14310000000000000         -1.1612884700298309E-002
  0.14339999999999997          1.3462092727422714E-002
  0.14369999999999999          4.0812786668539047E-002
  0.14400000000000002          6.6541627049446106E-002
  0.14429999999999998          8.4915518760681152E-002
  0.14460000000000001          8.7845899164676666E-002
  0.14490000000000003          7.8697234392166138E-002
  0.14520000000000000          5.4044496268033981E-002
  0.14550000000000002          1.9632656127214432E-002
  0.14579999999999999         -1.6726750880479813E-002
  0.14610000000000001         -5.1966298371553421E-002
  0.14640000000000003         -7.4521608650684357E-002
  0.14670000000000000         -8.2827001810073853E-002
  0.14699999999999996         -7.4283070862293243E-002
  0.14729999999999999         -4.7996062785387039E-002
  0.14760000000000001         -1.3201585970818996E-002
  0.14789999999999998          2.6004329323768616E-002
  0.14820000000000000          5.8293271809816360E-002