  -1.4999999999999999E-002     0.0000000000000000     
  -1.4700000000000000E-002     0.0000000000000000     
  -1.4400000000000000E-002     0.0000000000000000     
  -1.4100000000000000E-002     0.0000000000000000     
  -1.3800000000000000E-002     0.0000000000000000     
  -1.3500000000000000E-002     0.0000000000000000     
  -1.3200000000000000E-002     0.0000000000000000     
  -1.2899999999999998E-002     0.0000000000000000     
  -1.2600000000000000E-002     0.0000000000000000     
  -1.2299999999999998E-002     0.0000000000000000     
  -1.2000000000000000E-002     0.0000000000000000     
  -1.1699999999999999E-002     0.0000000000000000     
  -1.1399999999999999E-002     0.0000000000000000     
  -1.1099999999999999E-002     0.0000000000000000     
  -1.0799999999999999E-002     0.0000000000000000     
  -1.0499999999999999E-002     0.0000000000000000     
  -1.0199999999999999E-002     0.0000000000000000     
  -9.8999999999999991E-003     0.0000000000000000     
  -9.5999999999999992E-003     0.0000000000000000     
  -9.2999999999999992E-003     0.0000000000000000     
  -8.9999999999999993E-003     0.0000000000000000     
  -8.6999999999999994E-003     0.0000000000000000     
  -8.3999999999999995E-003     0.0000000000000000     
  -8.0999999999999996E-003     0.0000000000000000     
  -7.7999999999999988E-003     0.0000000000000000     
  -7.4999999999999997E-003     0.0000000000000000     
  -7.1999999999999998E-003     0.0000000000000000     
  -6.8999999999999981E-003     0.0000000000000000     
  -6.5999999999999982E-003     0.0000000000000000     
  -6.3000000000000000E-003     0.0000000000000000     
  -6.0000000000000001E-003     0.0000000000000000     
  -5.6999999999999985E-003     0.0000000000000000     
  -5.3999999999999986E-003     0.0000000000000000     
  -5.1000000000000004E-003     0.0000000000000000     
  -4.7999999999999987E-003     0.0000000000000000     
  -4.5000000000000005E-003     0.0000000000000000     
  -4.1999999999999989E-003     0.0000000000000000     
  -3.8999999999999990E-003     0.0000000000000000     
  -3.5999999999999990E-003     0.0000000000000000     
  -3.2999999999999991E-003     0.0000000000000000     
  -2.9999999999999992E-003     0.0000000000000000     
  -2.6999999999999993E-003     0.0000000000000000     
  -2.3999999999999994E-003     0.0000000000000000     
  -2.0999999999999977E-003     0.0000000000000000     
  -1.7999999999999995E-003     0.0000000000000000     
  -1.4999999999999979E-003     0.0000000000000000     
  -1.1999999999999997E-003     0.0000000000000000     
  -8.9999999999999976E-004     0.0000000000000000     
  -5.9999999999999810E-004     0.0000000000000000     
  -2.9999999999999992E-004     0.0000000000000000     
   0.0000000000000000          0.0000000000000000     
   3.0000000000000165E-004     0.0000000000000000     
   5.9999999999999984E-004     1.8755132789354427E-038
   9.0000000000000149E-004     2.4667125180809891E-038
   1.2000000000000031E-003     4.5104998035620956E-038
   1.5000000000000013E-003     1.3428813092357353E-036
   1.8000000000000030E-003     8.7446164258843084E-036
   2.1000000000000012E-003     2.8320708321955403E-035
   2.3999999999999994E-003     1.3042903992357324E-035
   2.7000000000000010E-003    -2.2544696324269799E-034
   2.9999999999999992E-003    -1.9535555689381433E-034
   3.3000000000000008E-003     2.9734913878121746E-033
   3.6000000000000025E-003     2.7708367019159282E-033
   3.9000000000000007E-003    -1.7470761817442016E-032
   4.2000000000000023E-003    -3.8274576657563573E-032
   4.5000000000000005E-003     1.2747300037311756E-031
   4.7999999999999987E-003     3.8911780316172790E-031
   5.1000000000000004E-003    -1.4084444951037123E-030
   5.4000000000000020E-003    -1.9168719597637306E-030
   5.7000000000000037E-003     1.2138822306070853E-029
   5.9999999999999984E-003    -2.3475780735413934E-030
   6.3000000000000000E-003    -5.9730588154782323E-029
   6.6000000000000017E-003     8.3181955645852482E-029
   6.9000000000000034E-003     1.0669475863288904E-028
   7.2000000000000015E-003    -3.9854666291980876E-028
   7.5000000000000032E-003     6.2855337818215249E-028
   7.8000000000000014E-003    -1.4674330325616443E-027
   8.0999999999999996E-003    -3.0470514032173376E-028
   8.4000000000000012E-003     3.5005002529274237E-026
   8.7000000000000029E-003    -1.9254044933762552E-025
   9.0000000000000011E-003     4.9577459651745840E-025
   9.2999999999999992E-003     4.4654803854666020E-026
   9.6000000000000009E-003    -6.4483576965009917E-024
   9.8999999999999991E-003     3.2668831384815188E-023
   1.0200000000000001E-002    -9.8238944736073433E-023
   1.0500000000000002E-002     1.7329301174703559E-022
   1.0800000000000004E-002     5.2811249776637161E-023
   1.1099999999999999E-002    -1.8331013452643522E-021
   1.1400000000000000E-002     8.7078918659122203E-021
   1.1700000000000002E-002    -2.8121011931928932E-020
   1.2000000000000004E-002     7.1350557337015562E-020
   1.2300000000000002E-002    -1.5125439613560881E-019
   1.2600000000000000E-002     2.9897113943771471E-019
   1.2900000000000002E-002    -7.0480795547154004E-019
   1.3200000000000000E-002     2.3025697020001860E-018
   1.3500000000000002E-002    -8.5495204396072580E-018
   1.3800000000000003E-002     3.0340793348632769E-017
   1.4100000000000001E-002    -1.0353354842811939E-016
   1.4400000000000000E-002     3.8581713486874474E-016
   1.4700000000000001E-002    -1.7719538859109379E-015
   1.4999999999999999E-002     9.4844817828433942E-015
   1.5300000000000001E-002    -5.1145306078687337E-014
   1.5600000000000003E-002     2.5286881508610954E-013
   1.5899999999999997E-002    -1.0929007283094393E-012
   1.6199999999999999E-002     3.9683722294701810E-012
   1.6500000000000001E-002    -1.1313134466979591E-011
   1.6800000000000002E-002     2.0756269464047108E-011
   1.7100000000000004E-002     3.6117288582740378E-012
   1.7400000000000006E-002    -1.9519992572319396E-010
   1.7700000000000000E-002     7.6081108957659238E-010
   1.8000000000000002E-002    -1.3449589702777925E-009
   1.8300000000000004E-002    -6.3812711447588701E-010
   1.8600000000000005E-002     9.4726627927198576E-009
   1.8900000000000000E-002    -1.8265085225538380E-008
   1.9200000000000002E-002    -1.0435754584738537E-008
   1.9500000000000003E-002     9.3816709308168270E-008
   1.9799999999999998E-002    -6.4269635380312319E-008
   2.0100000000000000E-002    -2.9543209362644822E-007
   2.0400000000000001E-002     3.0701255047821424E-007
   2.0700000000000003E-002     9.0831573074453851E-007
   2.0999999999999998E-002    -6.5618296423850690E-007
   2.1299999999999999E-002    -3.1350549667191540E-006
   2.1600000000000001E-002    -9.9304204733747001E-008
   2.1900000000000003E-002     1.4638139969001102E-005
   2.2200000000000004E-002     4.0816902227394083E-005
   2.2500000000000006E-002     7.4536913457942579E-005
   2.2800000000000001E-002     1.1674123549764836E-004
   2.3100000000000002E-002     1.7705317778636195E-004
   2.3400000000000004E-002     2.7294304181001670E-004
   2.3699999999999999E-002     4.2680530907781601E-004
   2.4000000000000000E-002     6.6432914656116074E-004
   2.4300000000000002E-002     1.0192457062772470E-003
   2.4599999999999997E-002     1.5396974394773916E-003
   2.4900000000000005E-002     2.2931311045220754E-003
   2.5200000000000000E-002     3.3718586648330967E-003
   2.5499999999999995E-002     4.8957040007448216E-003
   2.5800000000000003E-002     7.0136304901405044E-003
   2.6099999999999998E-002     9.9074227518016200E-003
   2.6400000000000007E-002     1.3794713283505566E-002
   2.6700000000000002E-002     1.8927610449687049E-002
   2.6999999999999996E-002     2.5582514256035527E-002
   2.7300000000000005E-002     3.4044105160303539E-002
   2.7600000000000000E-002     4.4588035212869581E-002
   2.7900000000000008E-002     5.7451071344902793E-002
   2.8200000000000003E-002     7.2779678420678007E-002
   2.8499999999999998E-002     9.0574909936894432E-002
   2.8800000000000006E-002    0.11062364718331885     
   2.9100000000000001E-002    0.13243804389032920     
   2.9400000000000003E-002    0.15518995758738985     
   2.9700000000000004E-002    0.17763909983310366     
   3.0000000000000006E-002    0.19809319011105320     
   3.0300000000000001E-002    0.21439905795520176     
   3.0600000000000002E-002    0.22397137498544240     
   3.0900000000000004E-002    0.22387787331522979     
   3.1199999999999999E-002    0.21097874798821437     
   3.1500000000000007E-002    0.18216276989282765     
   3.1800000000000002E-002    0.13460978241878241     
   3.2099999999999997E-002     6.6134525642882358E-002
   3.2400000000000005E-002    -2.4463950477527141E-002
   3.2700000000000000E-002   -0.13706292657393515     
   3.3000000000000002E-002   -0.26987198015529046     
   3.3300000000000003E-002   -0.41923073030557489     
   3.3599999999999998E-002   -0.57948906062592087     
   3.3900000000000000E-002   -0.74305190647844199     
   3.4200000000000001E-002   -0.90067189647113111     
   3.4500000000000003E-002    -1.0418427487424538     
   3.4799999999999998E-002    -1.1554880904988210     
   3.5099999999999999E-002    -1.2307309957290258     
   3.5400000000000001E-002    -1.2577690765289873     
   3.5699999999999996E-002    -1.2287901737712232     
   3.6000000000000004E-002    -1.1388356443564120     
   3.6299999999999999E-002   -0.98645180912534158     
   3.6600000000000008E-002   -0.77418825501147026     
   3.6900000000000002E-002   -0.50873965610833238     
   3.7199999999999997E-002   -0.20073524925223563     
   3.7500000000000006E-002    0.13570889016411680     
   3.7800000000000000E-002    0.48401068159514971     
   3.8100000000000009E-002    0.82599506202453910     
   3.8400000000000004E-002     1.1433771252344513     
   3.8699999999999998E-002     1.4189654631323023     
   3.9000000000000007E-002     1.6379162934647695     
   3.9300000000000002E-002     1.7888900518387629     
   3.9600000000000003E-002     1.8648120981467571     
   3.9900000000000005E-002     1.8633157856856783     
   4.0200000000000000E-002     1.7868317692625695     
   4.0500000000000001E-002     1.6423138093780238     
   4.0800000000000003E-002     1.4405228986354999     
   4.1100000000000005E-002     1.1951512120405638     
   4.1399999999999999E-002    0.92172653749139855     
   4.1700000000000008E-002    0.63635008301567275     
   4.2000000000000003E-002    0.35466161910408278     
   4.2299999999999997E-002     9.0625970707921777E-002
   4.2600000000000006E-002   -0.14423791175584633     
   4.2900000000000001E-002   -0.34137766583084961     
   4.3200000000000002E-002   -0.49569835753524671     
   4.3500000000000004E-002   -0.60528401727832915     
   4.3799999999999999E-002   -0.67143129026520398     
   4.4100000000000000E-002   -0.69800033922190252     
   4.4400000000000002E-002   -0.69084592894192909     
   4.4700000000000004E-002   -0.65725974539908805     
   4.4999999999999998E-002   -0.60499060589856413     
   4.5300000000000000E-002   -0.54178889881296044     
   4.5600000000000002E-002   -0.47479813861714248     
   4.5899999999999996E-002   -0.40995693582722481     
   4.6200000000000005E-002   -0.35194308326221702     
   4.6500000000000000E-002   -0.30386980088986348     
   4.6799999999999994E-002   -0.26728202428639136     
   4.7100000000000003E-002   -0.24252209792241608     
   4.7399999999999998E-002   -0.22867870923682609     
   4.7700000000000006E-002   -0.22413319217020167     
   4.8000000000000001E-002   -0.22679575247663042     
   4.8300000000000010E-002   -0.23432290387491062     
   4.8600000000000004E-002   -0.24479918243373344     
   4.8899999999999999E-002   -0.25655939718277310     
   4.9200000000000008E-002   -0.26867752681764934     
   4.9500000000000002E-002   -0.28104404199432054     
   4.9800000000000011E-002   -0.29407813268086613     
   5.0100000000000006E-002   -0.30901144203304121     
   5.0400000000000000E-002   -0.32724678622033032     
   5.0700000000000009E-002   -0.35030154554014459     
   5.1000000000000004E-002   -0.37946992656605616     
   5.1299999999999998E-002   -0.41510579041429985     
   5.1600000000000007E-002   -0.45672397621138572     
   5.1900000000000002E-002   -0.50229943409253508     
   5.2200000000000010E-002   -0.54827822016418537     
   5.2500000000000005E-002   -0.58972165404584942     
   5.2800000000000000E-002   -0.62015178108646651     
   5.3099999999999994E-002   -0.63243929811478594     
   5.3400000000000003E-002   -0.61907962250572979     
   5.3699999999999998E-002   -0.57304262174988452     
   5.4000000000000006E-002   -0.48875178141405407     
   5.4300000000000001E-002   -0.36267907379511488     
   5.4599999999999996E-002   -0.19429209385364454     
   5.4900000000000004E-002     1.3599695662866895E-002
   5.5199999999999999E-002    0.25454033118044705     
   5.5499999999999994E-002    0.51855789077972148     
   5.5800000000000002E-002    0.79273643204151867     
   5.6099999999999997E-002     1.0619221998175803     
   5.6400000000000006E-002     1.3098894709471054     
   5.6700000000000000E-002     1.5206628709734673     
   5.6999999999999995E-002     1.6798198392643116     
   5.7300000000000004E-002     1.7757465344722050     
   5.7599999999999998E-002     1.8007762299752486     
   5.7900000000000007E-002     1.7518357305286187     
   5.8200000000000002E-002     1.6308251075996836     
   5.8499999999999996E-002     1.4445384198582261     
   5.8800000000000005E-002     1.2040666199683088     
   5.9100000000000000E-002    0.92407343547551690     
   5.9400000000000008E-002    0.62139065165603213     
   5.9700000000000003E-002    0.31380442457784952     
   6.0000000000000012E-002     1.8645741267897531E-002
   6.0300000000000006E-002   -0.24861913133842073     
   6.0600000000000001E-002   -0.47532978435641304     
   6.0900000000000010E-002   -0.65252663763553187     
   6.1200000000000004E-002   -0.77546387089686775     
   6.1500000000000013E-002   -0.84352067975013512     
   6.1800000000000008E-002   -0.86008609788662227     
   6.2100000000000002E-002   -0.83200547439544792     
   6.2399999999999997E-002   -0.76868656899815235     
   6.2700000000000006E-002   -0.68143268132813617     
   6.3000000000000000E-002   -0.58242165375478194     
   6.3300000000000009E-002   -0.48384139316706865     
   6.3600000000000004E-002   -0.39728792271027125     
   6.3899999999999998E-002   -0.33292422073800054     
   6.4199999999999993E-002   -0.29919323809474641     
   6.4500000000000002E-002   -0.30249852577615322     
   6.4800000000000010E-002   -0.34686350160025903     
   6.5100000000000005E-002   -0.43399301389089651     
   6.5400000000000000E-002   -0.56281929991972390     
   6.5700000000000008E-002   -0.72960247757702135     
   6.5999999999999989E-002   -0.92794588556779800     
   6.6299999999999998E-002    -1.1484949307206378     
   6.6600000000000006E-002    -1.3793731836045851     
   6.6900000000000001E-002    -1.6061284064395096     
   6.7199999999999996E-002    -1.8122017592619315     
   6.7500000000000004E-002    -1.9799128726436521     
   6.7800000000000013E-002    -2.0908957834580235     
   6.8099999999999994E-002    -2.1276856278999361     
   6.8400000000000002E-002    -2.0749705749316121     
   6.8700000000000011E-002    -1.9207103987569880     
   6.8999999999999992E-002    -1.6579474939895746     
   6.9300000000000000E-002    -1.2855483205251801     
   6.9600000000000009E-002   -0.80918790591596945     
   6.9900000000000004E-002   -0.24196314990452805     
   7.0199999999999999E-002    0.39622365623689504     
   7.0500000000000007E-002     1.0789399248861216     
   7.0800000000000016E-002     1.7747161380894099     
   7.1099999999999997E-002     2.4489891557005166     
   7.1400000000000005E-002     3.0659030421918345     
   7.1700000000000000E-002     3.5910324332048873     
   7.1999999999999995E-002     3.9937623608305159     
   7.2300000000000003E-002     4.2492589747886882     
   7.2600000000000012E-002     4.3409205285448138     
   7.2900000000000006E-002     4.2611099767816825     
   7.3200000000000001E-002     4.0122364866021485     
   7.3499999999999996E-002     3.6068874411054850     
   7.3800000000000004E-002     3.0663836815923275     
   7.4099999999999999E-002     2.4200673279562679     
   7.4400000000000008E-002     1.7024759037905639     
   7.4700000000000003E-002    0.95094035080718609     
   7.5000000000000011E-002    0.20325910844537276     
   7.5299999999999992E-002   -0.50601042985543820     
   7.5600000000000001E-002    -1.1469845791330755     
   7.5900000000000009E-002    -1.6971567967242365     
   7.6200000000000004E-002    -2.1429392153251143     
   7.6499999999999999E-002    -2.4793195507754717     
   7.6800000000000007E-002    -2.7105979479822651     
   7.7099999999999988E-002    -2.8483407122345739     
   7.7399999999999997E-002    -2.9098463705690278     
   7.7700000000000005E-002    -2.9157763269133596     
   7.8000000000000014E-002    -2.8869306710441123     
   7.8299999999999995E-002    -2.8420925894389626     
   7.8600000000000003E-002    -2.7951403303208764     
   7.8900000000000012E-002    -2.7532466117932728     
   7.9199999999999993E-002    -2.7162589414703575     
   7.9500000000000001E-002    -2.6759522763234713     
   7.9800000000000010E-002    -2.6173764297237199     
   8.0100000000000018E-002    -2.5206760220461319     
   8.0399999999999999E-002    -2.3630063329744502     
   8.0700000000000008E-002    -2.1223296282712667     
   8.1000000000000003E-002    -1.7799739782049357     
   8.1299999999999997E-002    -1.3235728894189727     
   8.1600000000000006E-002   -0.74989899364382318     
   8.1900000000000014E-002    -6.5557954457012180E-002
   8.2199999999999995E-002    0.71143141786017594     
   8.2500000000000004E-002     1.5527530058531198     
   8.2799999999999999E-002     2.4214105592519246     
   8.3100000000000007E-002     3.2732593654012163     
   8.3400000000000002E-002     4.0611993799309261     
   8.3700000000000011E-002     4.7377999159729711     
   8.4000000000000005E-002     5.2590460913501431     
   8.4300000000000000E-002     5.5881074474148704     
   8.4599999999999995E-002     5.6974318997075954     
   8.4900000000000003E-002     5.5718014945479695     
   8.5199999999999998E-002     5.2089973270809367     
   8.5500000000000007E-002     4.6202874076079752     
   8.5800000000000001E-002     3.8302303972795357     
   8.6100000000000010E-002     2.8748009501455698     
   8.6399999999999991E-002     1.7996294133748361     
   8.6699999999999999E-002    0.65730438029164162     
   8.7000000000000008E-002   -0.49589179874747202     
   8.7300000000000003E-002    -1.6031506944293241     
   8.7599999999999997E-002    -2.6104920191076957     
   8.7900000000000006E-002    -3.4696572203725395     
   8.8200000000000014E-002    -4.1409072677368783     
   8.8499999999999995E-002    -4.5949991943774648     
   8.8800000000000004E-002    -4.8147747574347477     
   8.9100000000000013E-002    -4.7959409423871477     
   8.9399999999999993E-002    -4.5469143722110914     
   8.9700000000000002E-002    -4.0882517373002685     
   9.0000000000000011E-002    -3.4511003960148372     
   9.0299999999999991E-002    -2.6753075289560400     
   9.0600000000000000E-002    -1.8071596428390722     
   9.0900000000000009E-002   -0.89662660374625247     
   9.1200000000000017E-002     5.1345819663675130E-003
   9.1499999999999998E-002    0.84864818144120235     
   9.1800000000000007E-002     1.5882750837078632     
   9.2100000000000001E-002     2.1846741421123141     
   9.2399999999999996E-002     2.6063925678094506     
   9.2700000000000005E-002     2.8311856301907881     
   9.3000000000000013E-002     2.8474185624278618     
   9.3300000000000008E-002     2.6543657724105998     
   9.3600000000000003E-002     2.2627271540006255     
   9.3899999999999997E-002     1.6942325337820243     
   9.4200000000000006E-002    0.98119870751607507     
   9.4500000000000001E-002    0.16534130752031828     
   9.4800000000000009E-002   -0.70414982249918445     
   9.5100000000000004E-002    -1.5725389583639782     
   9.5399999999999999E-002    -2.3827706589203927     
   9.5699999999999993E-002    -3.0786642274551497     
   9.6000000000000002E-002    -3.6085693429443921     
   9.6300000000000011E-002    -3.9292804985250740     
   9.6600000000000005E-002    -4.0093713997061684     
   9.6900000000000000E-002    -3.8325422184771440     
   9.7200000000000009E-002    -3.3993877616838404     
   9.7499999999999989E-002    -2.7287118361645142     
   9.7799999999999998E-002    -1.8568828748992328     
   9.8100000000000007E-002   -0.83594629712820279     
   9.8400000000000015E-002    0.26943654182603183     
   9.8699999999999996E-002     1.3868902604339368     
   9.9000000000000005E-002     2.4410030181499280     
   9.9300000000000013E-002     3.3595589797713217     
   9.9599999999999994E-002     4.0789503307004082     
   9.9900000000000003E-002     4.5488896053048222     
  0.10020000000000001          4.7367553181760798     
  0.10049999999999999          4.6296681487136908     
  0.10080000000000000          4.2355466299129603     
  0.10110000000000001          3.5823723369022318     
  0.10140000000000000          2.7158206582561775     
  0.10170000000000000          1.6956222794731062     
  0.10200000000000001         0.59093574484161238     
  0.10230000000000002        -0.52486581761097462     
  0.10260000000000000         -1.5796460143641298     
  0.10290000000000001         -2.5071855600938449     
  0.10320000000000000         -3.2518828888776738     
  0.10350000000000001         -3.7723177806561523     
  0.10380000000000000         -4.0430523016585624     
  0.10410000000000001         -4.0564626120978318     
  0.10440000000000001         -3.8220230205747470     
  0.10470000000000000         -3.3654622044286882     
  0.10500000000000000         -2.7261744367994858     
  0.10530000000000000         -1.9539168745609148     
  0.10560000000000000         -1.1057409595087719     
  0.10590000000000001        -0.24105356654463073     
  0.10620000000000000         0.58201014914816085     
  0.10650000000000001          1.3107684142053913     
  0.10679999999999999          1.9016222667100990     
  0.10710000000000000          2.3224440354760958     
  0.10740000000000001          2.5555098431148053     
  0.10770000000000000          2.5973117733336153     
  0.10800000000000000          2.4590361515938355     
  0.10830000000000001          2.1652493331909000     
  0.10859999999999999          1.7510758221737639     
  0.10890000000000000          1.2600011479123978     
  0.10920000000000001         0.73898778100479845     
  0.10950000000000001         0.23518539718394571     
  0.10979999999999999        -0.20809923506466799     
  0.11009999999999999        -0.55554264340677229     
  0.11040000000000001        -0.78162845511481649     
  0.11070000000000001        -0.87318242184178807     
  0.11100000000000000        -0.82965584416181404     
  0.11130000000000000        -0.66219681054900814     
  0.11160000000000002        -0.39287869812214105     
  0.11190000000000001         -5.0756597069002041E-002
  0.11220000000000001         0.33078170394547257     
  0.11250000000000000         0.71741829867329443     
  0.11280000000000000          1.0783580545021501     
  0.11309999999999999          1.3878362755708196     
  0.11340000000000001          1.6285373032129584     
  0.11369999999999998          1.7922352736168037     
  0.11400000000000000          1.8791569071926801     
  0.11430000000000000          1.8981099728500652     
  0.11460000000000002          1.8630071541327311     
  0.11489999999999999          1.7913905077065877     
  0.11520000000000001          1.7010599229351513     
  0.11550000000000001          1.6064270395972073     
  0.11580000000000000          1.5178791998396122     
  0.11609999999999999          1.4385443008577923     
  0.11640000000000002          1.3648862919417724     
  0.11670000000000001          1.2872450136376372     
  0.11700000000000001          1.1901864940084437     
  0.11730000000000000          1.0569684150021956     
  0.11760000000000000         0.87051673972732679     
  0.11789999999999999         0.61750650531576068     
  0.11820000000000001         0.29141700153186534     
  0.11850000000000001        -0.10703590071405999     
  0.11880000000000000        -0.56660144153660319     
  0.11910000000000000         -1.0676802015197246     
  0.11940000000000002         -1.5828828132412127     
  0.11970000000000001         -2.0787525633788491     
  0.12000000000000001         -2.5207596212560333     
  0.12030000000000000         -2.8754175718382129     
  0.12060000000000000         -3.1151173418019482     
  0.12089999999999999         -3.2212052880094006     
  0.12119999999999999         -3.1856007320350272     
  0.12150000000000001         -3.0130992769408067     
  0.12180000000000001         -2.7203046325899507     
  0.12210000000000000         -2.3342850993995725     
  0.12239999999999999         -1.8900234879654150     
  0.12270000000000002         -1.4266137958066807     
  0.12300000000000001        -0.98364697399681944     
  0.12330000000000001        -0.59716892014431444     
  0.12360000000000000        -0.29611924531334566     
  0.12390000000000000        -0.10030039731553941     
  0.12419999999999999         -1.9337274507881641E-002
  0.12450000000000001         -5.1961281127852255E-002
  0.12480000000000001        -0.18806257740156784     
  0.12509999999999999        -0.40984936363456370     
  0.12540000000000001        -0.69459301350815039     
  0.12570000000000003         -1.0179470744074450     
  0.12600000000000000         -1.3551644802550129     
  0.12630000000000002         -1.6846361650834183     
  0.12659999999999999         -1.9878692965390954     
  0.12690000000000001         -2.2504995472036597     
  0.12719999999999998         -2.4629076593784021     
  0.12750000000000000         -2.6175095890630331     
  0.12780000000000002         -2.7101981483730526     
  0.12809999999999999         -2.7377939021960174     
  0.12840000000000001         -2.6973057783788619     
  0.12869999999999998         -2.5868372337782404     
  0.12900000000000000         -2.4033879041074471     
  0.12930000000000003         -2.1448556037442579     
  0.12959999999999999         -1.8099861379277460     
  0.12990000000000002         -1.3987620462607246     
  0.13019999999999998        -0.91451889696416089     
  0.13050000000000000        -0.36224704053876522     
  0.13080000000000003         0.24987076775199446     
  0.13109999999999999         0.91011738658531982     
  0.13140000000000002          1.6063635145085939     
  0.13169999999999998          2.3238435245629390     
  0.13200000000000001          3.0477820326067615     
  0.13229999999999997          3.7647358780161255     
  0.13260000000000000          4.4608637646519469     
  0.13290000000000002          5.1253515603524988     
  0.13319999999999999          5.7477279363264699     
  0.13350000000000001          6.3181974049529117     
  0.13380000000000003          6.8282904500838981     
  0.13410000000000000          7.2672215968484863     
  0.13440000000000002          7.6240917332986271     
  0.13469999999999999          7.8850178900076173     
  0.13500000000000001          8.0333520044794398     
  0.13529999999999998          8.0519345722996150     
  0.13560000000000000          7.9206917834540604     
  0.13590000000000002          7.6209260937782233     
  0.13619999999999999          7.1358795534530515     
  0.13650000000000001          6.4523608631609477     
  0.13680000000000003          5.5643540612169176     
  0.13710000000000000          4.4727736706808159     
  0.13740000000000002          3.1884197740915994     
  0.13769999999999999          1.7324341787126230     
  0.13800000000000001         0.13559372038144346     
  0.13829999999999998         -1.5613798848891136     
  0.13860000000000000         -3.3100065002970354     
  0.13890000000000002         -5.0560281138317578     
  0.13919999999999999         -6.7414740182833839     
  0.13950000000000001         -8.3087741163690225     
  0.13979999999999998         -9.7013938975293854     
  0.14010000000000000         -10.868948604962725     
  0.14040000000000002         -11.768285708702194     
  0.14069999999999999         -12.364969921929969     
  0.14100000000000001         -12.636279430407342     
  0.14130000000000004         -12.569866589675996     
  0.14160000000000000         -12.165078459074181     
  0.14189999999999997         -11.432692946472002     
  0.14219999999999999         -10.392496120872323     
  0.14250000000000002         -9.0743032849775744     
  0.14279999999999998         -7.5151833760745426     
  0.14310000000000000         -5.7577265469283958     
  0.14339999999999997         -3.8505998025265740     
  0.14369999999999999         -1.8450447634057383     
  0.14400000000000002         0.20418029572816465     
  0.14429999999999998          2.2406215010840285     
  0.14460000000000001          4.2073832196026331     
  0.14490000000000003          6.0461735022922767     
  0.14520000000000000          7.7010052045099258     
  0.14550000000000002          9.1179693062915703     
  0.14579999999999999          10.246676351387976     
  0.14610000000000001          11.044009188984433     
  0.14640000000000003          11.474640612463190     
  0.14670000000000000          11.515229585899277     
  0.14699999999999996          11.155931914424514     
  0.14729999999999999          10.401608593260150     
  0.14760000000000001          9.2757561779090310     
  0.14789999999999998          7.8182152033654582     
  0.14820000000000000          6.0864424036879257     