  -1.4999999999999999E-002     0.0000000000000000     
  -1.4700000000000000E-002     0.0000000000000000     
  -1.4400000000000000E-002     0.0000000000000000     
  -1.4100000000000000E-002     0.0000000000000000     
  -1.3800000000000000E-002     0.0000000000000000     
  -1.3500000000000000E-002     0.0000000000000000     
  -1.3200000000000000E-002     0.0000000000000000     
  -1.2899999999999998E-002     0.0000000000000000     
  -1.2600000000000000E-002     0.0000000000000000     
  -1.2299999999999998E-002     0.0000000000000000     
  -1.2000000000000000E-002     0.0000000000000000     
  -1.1699999999999999E-002     0.0000000000000000     
  -1.1399999999999999E-002     0.0000000000000000     
  -1.1099999999999999E-002     0.0000000000000000     
  -1.0799999999999999E-002     0.0000000000000000     
  -1.0499999999999999E-002     0.0000000000000000     
  -1.0199999999999999E-002     0.0000000000000000     
  -9.8999999999999991E-003     0.0000000000000000     
  -9.5999999999999992E-003     0.0000000000000000     
  -9.2999999999999992E-003     0.0000000000000000     
  -8.9999999999999993E-003     0.0000000000000000     
  -8.6999999999999994E-003     0.0000000000000000     
  -8.3999999999999995E-003     0.0000000000000000     
  -8.0999999999999996E-003     0.0000000000000000     
  -7.7999999999999988E-003     0.0000000000000000     
  -7.4999999999999997E-003     0.0000000000000000     
  -7.1999999999999998E-003     0.0000000000000000     
  -6.8999999999999981E-003     0.0000000000000000     
  -6.5999999999999982E-003     0.0000000000000000     
  -6.3000000000000000E-003     0.0000000000000000     
  -6.0000000000000001E-003     0.0000000000000000     
  -5.6999999999999985E-003     0.0000000000000000     
  -5.3999999999999986E-003     0.0000000000000000     
  -5.1000000000000004E-003     0.0000000000000000     
  -4.7999999999999987E-003     0.0000000000000000     
  -4.5000000000000005E-003     0.0000000000000000     
  -4.1999999999999989E-003     0.0000000000000000     
  -3.8999999999999990E-003     0.0000000000000000     
  -3.5999999999999990E-003     0.0000000000000000     
  -3.2999999999999991E-003     0.0000000000000000     
  -2.9999999999999992E-003     0.0000000000000000     
  -2.6999999999999993E-003     0.0000000000000000     
  -2.3999999999999994E-003    -1.5026211014109034E-039
  -2.0999999999999977E-003     3.1860615527628882E-038
  -1.7999999999999995E-003     9.9541128256288772E-037
  -1.4999999999999979E-003     1.6127736609255700E-036
  -1.1999999999999997E-003    -2.0171601328611467E-036
  -8.9999999999999976E-004     1.6424088997948362E-036
  -5.9999999999999810E-004     1.2965690845770579E-034
  -2.9999999999999992E-004     2.3920591999003150E-034
   0.0000000000000000         -1.1617344980852421E-033
   3.0000000000000165E-004    -3.5611129451279686E-034
   5.9999999999999984E-004     1.9997921600768313E-033
   9.0000000000000149E-004     1.2199602424663665E-034
   1.2000000000000031E-003     3.7359698874500300E-032
   1.5000000000000013E-003    -4.6818162569063209E-032
   1.8000000000000030E-003    -4.0756235771146185E-031
   2.1000000000000012E-003     9.4263644284858195E-031
   2.3999999999999994E-003     5.4413029014705448E-031
   2.7000000000000010E-003    -3.8643951618756445E-030
   2.9999999999999992E-003     1.3809030734909171E-029
   3.3000000000000008E-003    -5.5829227131363941E-029
   3.6000000000000025E-003     2.3201835095220237E-029
   3.9000000000000007E-003     6.1484447733379234E-028
   4.2000000000000023E-003    -1.8591218600851092E-027
   4.5000000000000005E-003     2.0004396797084341E-029
   4.7999999999999987E-003     1.1361467634295026E-026
   5.1000000000000004E-003    -2.5982331410038073E-026
   5.4000000000000020E-003     7.6754271868271860E-027
   5.7000000000000037E-003     8.5058709794996878E-026
   5.9999999999999984E-003    -2.3266848219969661E-025
   6.3000000000000000E-003     3.0643096462895153E-025
   6.6000000000000017E-003     5.4022314343978591E-026
   6.9000000000000034E-003    -1.8827628104100384E-024
   7.2000000000000015E-003     6.9633330644223825E-024
   7.5000000000000032E-003    -1.3864543255195472E-023
   7.8000000000000014E-003     1.1859867482388529E-024
   8.0999999999999996E-003     1.1739584691033846E-022
   8.4000000000000012E-003    -5.8215256150526322E-022
   8.7000000000000029E-003     1.8830566515090881E-021
   9.0000000000000011E-003    -4.5569367284302766E-021
   9.2999999999999992E-003     7.5657895041018871E-021
   9.6000000000000009E-003    -2.5433741129663533E-021
   9.8999999999999991E-003    -4.0323192951278874E-020
   1.0200000000000001E-002     1.9882976022428576E-019
   1.0500000000000002E-002    -6.5195697585485691E-019
   1.0800000000000004E-002     1.8984254931578285E-018
   1.1099999999999999E-002    -6.0294878040056714E-018
   1.1400000000000000E-002     2.3412470566200890E-017
   1.1700000000000002E-002    -1.0310414460019275E-016
   1.2000000000000004E-002     4.5589072463117781E-016
   1.2300000000000002E-002    -1.8975200641887300E-015
   1.2600000000000000E-002     7.2018082014835694E-015
   1.2900000000000002E-002    -2.3981466857042207E-014
   1.3200000000000000E-002     6.3879989719163943E-014
   1.3500000000000002E-002    -9.2183918264181799E-014
   1.3800000000000003E-002    -2.9249012370447862E-013
   1.4100000000000001E-002     3.1387348171859776E-012
   1.4400000000000000E-002    -1.5361042749591387E-011
   1.4700000000000001E-002     5.0544208112814782E-011
   1.4999999999999999E-002    -1.0331224123788838E-010
   1.5300000000000001E-002     2.6105175735617652E-011
   1.5600000000000003E-002     6.8681468430714330E-010
   1.5899999999999997E-002    -2.5406354153934530E-009
   1.6199999999999999E-002     3.3214907583274594E-009
   1.6500000000000001E-002     5.8256884255638269E-009
   1.6800000000000002E-002    -2.9524465379959749E-008
   1.7100000000000004E-002     2.4915049460536817E-008
   1.7400000000000006E-002     8.9778045918579123E-008
   1.7700000000000000E-002    -1.8704152590551532E-007
   1.8000000000000002E-002    -2.1021666771728584E-007
   1.8300000000000004E-002     6.4819855823626380E-007
   1.8600000000000005E-002     6.9937768488080793E-007
   1.8900000000000000E-002    -1.6795273758486004E-006
   1.9200000000000002E-002    -3.2095206922996028E-006
   1.9500000000000003E-002     3.6266269875415114E-006
   1.9799999999999998E-002     2.3744022569665993E-005
   2.0100000000000000E-002     5.5410773116080364E-005
   2.0400000000000001E-002     9.5737716942395461E-005
   2.0700000000000003E-002     1.4833904404216829E-004
   2.0999999999999998E-002     2.2562376404964245E-004
   2.1299999999999999E-002     3.4796913464746684E-004
   2.1600000000000001E-002     5.4164926606288868E-004
   2.1900000000000003E-002     8.3834840614512712E-004
   2.2200000000000004E-002     1.2791598179025948E-003
   2.2500000000000006E-002     1.9221737215140144E-003
   2.2800000000000001E-002     2.8507550724273106E-003
   2.3100000000000002E-002     4.1763489846585178E-003
   2.3400000000000004E-002     6.0375840571928185E-003
   2.3699999999999999E-002     8.6039470399016937E-003
   2.4000000000000000E-002     1.2083366347515889E-002
   2.4300000000000002E-002     1.6726329080929192E-002
   2.4599999999999997E-002     2.2819421346747193E-002
   2.4900000000000005E-002     3.0668161302951691E-002
   2.5200000000000000E-002     4.0572010449086537E-002
   2.5499999999999995E-002     5.2800711281578705E-002
   2.5800000000000003E-002     6.7562124643853139E-002
   2.6099999999999998E-002     8.4950198859020887E-002
   2.6400000000000007E-002    0.10487333695041245     
   2.6700000000000002E-002    0.12698078629221543     
   2.6999999999999996E-002    0.15058689858031471     
   2.7300000000000005E-002    0.17458734929299702     
   2.7600000000000000E-002    0.19740743759507406     
   2.7900000000000008E-002    0.21697839815078712     
   2.8200000000000003E-002    0.23074539549991613     
   2.8499999999999998E-002    0.23571333395816918     
   2.8800000000000006E-002    0.22855998230375096     
   2.9100000000000001E-002    0.20585563175930854     
   2.9400000000000003E-002    0.16431811267509744     
   2.9700000000000004E-002    0.10116924205054634     
   3.0000000000000006E-002     1.4493740945625611E-002
   3.0300000000000001E-002    -9.6355009076722009E-002
   3.0600000000000002E-002   -0.23037735006909177     
   3.0900000000000004E-002   -0.38461564370932599     
   3.1199999999999999E-002   -0.55395755495409205     
   3.1500000000000007E-002   -0.73109320725481197     
   3.1800000000000002E-002   -0.90668883873929573     
   3.2099999999999997E-002    -1.0697772760627302     
   3.2400000000000005E-002    -1.2083560429901823     
   3.2700000000000000E-002    -1.3101986304074629     
   3.3000000000000002E-002    -1.3637830791051044     
   3.3300000000000003E-002    -1.3593025712466726     
   3.3599999999999998E-002    -1.2896878928899298     
   3.3900000000000000E-002    -1.1514802990380986     
   3.4200000000000001E-002   -0.94544942022706735     
   3.4500000000000003E-002   -0.67697622274639180     
   3.4799999999999998E-002   -0.35595358200195459     
   3.5099999999999999E-002     3.5474114561686587E-003
   3.5400000000000001E-002    0.38413816717420346     
   3.5699999999999996E-002    0.76628626247232745     
   3.6000000000000004E-002     1.1295638950751012     
   3.6299999999999999E-002     1.4542743221100025     
   3.6600000000000008E-002     1.7228048183612614     
   3.6900000000000002E-002     1.9208976708097794     
   3.7199999999999997E-002     2.0389301869521717     
   3.7500000000000006E-002     2.0722289881009317     
   3.7800000000000000E-002     2.0215761644090762     
   3.8100000000000009E-002     1.8928771031499636     
   3.8400000000000004E-002     1.6964442711348298     
   3.8699999999999998E-002     1.4462895642538030     
   3.9000000000000007E-002     1.1586644379993878     
   3.9300000000000002E-002    0.85095216001746365     
   3.9600000000000003E-002    0.54027268290293939     
   3.9900000000000005E-002    0.24219373126967692     
   4.0200000000000000E-002    -3.0013023788157012E-002
   4.0500000000000001E-002   -0.26626667268378412     
   4.0800000000000003E-002   -0.45986137369727054     
   4.1100000000000005E-002   -0.60753207729069203     
   4.1399999999999999E-002   -0.70933468786917331     
   4.1700000000000008E-002   -0.76794409793593488     
   4.2000000000000003E-002   -0.78822064164307548     
   4.2299999999999997E-002   -0.77638751500993664     
   4.2600000000000006E-002   -0.73927468108274041     
   4.2900000000000001E-002   -0.68384808138195652     
   4.3200000000000002E-002   -0.61648162953693131     
   4.3500000000000004E-002   -0.54277672560861134     
   4.3799999999999999E-002   -0.46731895130815992     
   4.4100000000000000E-002   -0.39360792147784096     
   4.4400000000000002E-002   -0.32429269239987057     
   4.4700000000000004E-002   -0.26122859441929869     
   4.4999999999999998E-002   -0.20584082640425638     
   4.5300000000000000E-002   -0.15943049793957753     
   4.5600000000000002E-002   -0.12319091749881395     
   4.5899999999999996E-002    -9.8642500473064221E-002
   4.6200000000000005E-002    -8.7454578936444261E-002
   4.6500000000000000E-002    -9.1477066454162426E-002
   4.6799999999999994E-002   -0.11270849085100698     
   4.7100000000000003E-002   -0.15272589963751315     
   4.7399999999999998E-002   -0.21274373326992357     
   4.7700000000000006E-002   -0.29291647714227942     
   4.8000000000000001E-002   -0.39210864979446924     
   4.8300000000000010E-002   -0.50777937323224620     
   4.8600000000000004E-002   -0.63535268192844185     
   4.8899999999999999E-002   -0.76863898067238168     
   4.9200000000000008E-002   -0.89957380272988630     
   4.9500000000000002E-002    -1.0186442955005859     
   4.9800000000000011E-002    -1.1155097256812923     
   5.0100000000000006E-002    -1.1792866179985850     
   5.0400000000000000E-002    -1.1997804098399740     
   5.0700000000000009E-002    -1.1680107151053676     
   5.1000000000000004E-002    -1.0771866561258605     
   5.1299999999999998E-002   -0.92370270979843738     
   5.1600000000000007E-002   -0.70748760445833625     
   5.1900000000000002E-002   -0.43269451319502483     
   5.2200000000000010E-002   -0.10761354879573126     
   5.2500000000000005E-002    0.25548213359054017     
   5.2800000000000000E-002    0.64081950731955217     
   5.3099999999999994E-002     1.0301586880769982     
   5.3400000000000003E-002     1.4038983823878652     
   5.3699999999999998E-002     1.7423285510509743     
   5.4000000000000006E-002     2.0272736877129205     
   5.4300000000000001E-002     2.2431915709749433     
   5.4599999999999996E-002     2.3785015563075405     
   5.4900000000000004E-002     2.4264556303118070     
   5.5199999999999999E-002     2.3855281576861813     
   5.5499999999999994E-002     2.2596960053397197     
   5.5800000000000002E-002     2.0579515088138791     
   5.6099999999999997E-002     1.7935152155852450     
   5.6400000000000006E-002     1.4829446650947489     
   5.6700000000000000E-002     1.1444953833935436     
   5.6999999999999995E-002    0.79698874288065014     
   5.7300000000000004E-002    0.45832167306670435     
   5.7599999999999998E-002    0.14398196889088721     
   5.7900000000000007E-002   -0.13370903059342165     
   5.8200000000000002E-002   -0.36672588245580329     
   5.8499999999999996E-002   -0.55148608025185553     
   5.8800000000000005E-002   -0.68900433399644001     
   5.9100000000000000E-002   -0.78455443719004236     
   5.9400000000000008E-002   -0.84702469686802573     
   5.9700000000000003E-002   -0.88808130389606887     
   6.0000000000000012E-002   -0.92114568083185944     
   6.0300000000000006E-002   -0.96019734290543113     
   6.0600000000000001E-002    -1.0185910895343788     
   6.0900000000000010E-002    -1.1078004879046546     
   6.1200000000000004E-002    -1.2363555420531753     
   6.1500000000000013E-002    -1.4088493322154605     
   6.1800000000000008E-002    -1.6251092553765076     
   6.2100000000000002E-002    -1.8798872292042930     
   6.2399999999999997E-002    -2.1623970609493739     
   6.2700000000000006E-002    -2.4566256874328047     
   6.3000000000000000E-002    -2.7418953342284453     
   6.3300000000000009E-002    -2.9936856178464524     
   6.3600000000000004E-002    -3.1854185512060411     
   6.3899999999999998E-002    -3.2898521072484215     
   6.4199999999999993E-002    -3.2813344272153699     
   6.4500000000000002E-002    -3.1380113194339714     
   6.4800000000000010E-002    -2.8436748775576319     
   6.5100000000000005E-002    -2.3903538319002280     
   6.5400000000000000E-002    -1.7792502601721161     
   6.5700000000000008E-002    -1.0221431514517478     
   6.5999999999999989E-002   -0.14166795749694572     
   6.6299999999999998E-002    0.82969534584403704     
   6.6600000000000006E-002     1.8502459682331107     
   6.6900000000000001E-002     2.8719302294481253     
   6.7199999999999996E-002     3.8427905824695188     
   6.7500000000000004E-002     4.7102984288310950     
   6.7800000000000013E-002     5.4251889792180918     
   6.8099999999999994E-002     5.9445782142742019     
   6.8400000000000002E-002     6.2351581785667634     
   6.8700000000000011E-002     6.2761070363735030     
   6.8999999999999992E-002     6.0600694234553885     
   6.9300000000000000E-002     5.5945619636874824     
   6.9600000000000009E-002     4.9011543042845034     
   6.9900000000000004E-002     4.0139360015311638     
   7.0199999999999999E-002     2.9777562100661186     
   7.0500000000000007E-002     1.8441481015716255     
   7.0800000000000016E-002    0.66873018499670067     
   7.1099999999999997E-002   -0.49305113159424252     
   7.1400000000000005E-002    -1.5896623704152475     
   7.1700000000000000E-002    -2.5760446119237059     
   7.1999999999999995E-002    -3.4168263756484407     
   7.2300000000000003E-002    -4.0870368904234766     
   7.2600000000000012E-002    -4.5729256379085541     
   7.2900000000000006E-002    -4.8719205345034595     
   7.3200000000000001E-002    -4.9902284599318136     
   7.3499999999999996E-002    -4.9422775294845849     
   7.3800000000000004E-002    -4.7472690434050833     
   7.4099999999999999E-002    -4.4269996417754527     
   7.4400000000000008E-002    -4.0043695954735767     
   7.4700000000000003E-002    -3.5000717806864543     
   7.5000000000000011E-002    -2.9330273353199914     
   7.5299999999999992E-002    -2.3190041859231130     
   7.5600000000000001E-002    -1.6707139192373148     
   7.5900000000000009E-002   -0.99953716301018503     
   7.6200000000000004E-002   -0.31528644487790913     
   7.6499999999999999E-002    0.37140257806314381     
   7.6800000000000007E-002     1.0482772295669989     
   7.7099999999999988E-002     1.7011549549070395     
   7.7399999999999997E-002     2.3122361043926531     
   7.7700000000000005E-002     2.8617866027992278     
   7.8000000000000014E-002     3.3280465818632194     
   7.8299999999999995E-002     3.6887571552492773     
   7.8600000000000003E-002     3.9237358072317363     
   7.8900000000000012E-002     4.0156844913835670     
   7.9199999999999993E-002     3.9531087155734923     
   7.9500000000000001E-002     3.7318323391012882     
   7.9800000000000010E-002     3.3560248272323605     
   8.0100000000000018E-002     2.8396021998882404     
   8.0399999999999999E-002     2.2054445144218100     
   8.0700000000000008E-002     1.4849333418499153     
   8.1000000000000003E-002    0.71691828512511080     
   8.1299999999999997E-002    -5.5370710310931770E-002
   8.1600000000000006E-002   -0.78649246929136751     
   8.1900000000000014E-002    -1.4319262349013542     
   8.2199999999999995E-002    -1.9517106976300624     
   8.2500000000000004E-002    -2.3125728856705621     
   8.2799999999999999E-002    -2.4914273229464072     
   8.3100000000000007E-002    -2.4769842980308852     
   8.3400000000000002E-002    -2.2708151474645248     
   8.3700000000000011E-002    -1.8884527623975895     
   8.4000000000000005E-002    -1.3576454994211495     
   8.4300000000000000E-002   -0.71751927900595902     
   8.4599999999999995E-002    -1.5863016350650128E-002
   8.4900000000000003E-002    0.69447655228191962     
   8.5199999999999998E-002     1.3583733284284136     
   8.5500000000000007E-002     1.9232866470382817     
   8.5800000000000001E-002     2.3425302269231025     
   8.6100000000000010E-002     2.5785351375360364     
   8.6399999999999991E-002     2.6062315645263965     
   8.6699999999999999E-002     2.4144671616975444     
   8.7000000000000008E-002     2.0073810525430495     
   8.7300000000000003E-002     1.4044428323604716     
   8.7599999999999997E-002    0.63916035741754484     
   8.7900000000000006E-002   -0.24250606946391895     
   8.8200000000000014E-002    -1.1853157397844356     
   8.8499999999999995E-002    -2.1283515935154966     
   8.8800000000000004E-002    -3.0082902841139543     
   8.9100000000000013E-002    -3.7649532062982587     
   8.9399999999999993E-002    -4.3446480739203821     
   8.9700000000000002E-002    -4.7039312405111957     
   9.0000000000000011E-002    -4.8141308372419473     
   9.0299999999999991E-002    -4.6620678513841227     
   9.0600000000000000E-002    -4.2530330689960039     
   9.0900000000000009E-002    -3.6103715794082305     
   9.1200000000000017E-002    -2.7735809444224557     
   9.1499999999999998E-002    -1.7975758959926953     
   9.1800000000000007E-002   -0.74690499453826220     
   9.2100000000000001E-002    0.30748403641636002     
   9.2399999999999996E-002     1.2936387153578153     
   9.2700000000000005E-002     2.1452522281736961     
   9.3000000000000013E-002     2.8051302898967094     
   9.3300000000000008E-002     3.2314766391549057     
   9.3600000000000003E-002     3.4007665703314132     
   9.3899999999999997E-002     3.3090262073697545     
   9.4200000000000006E-002     2.9736360995714719     
   9.4500000000000001E-002     2.4302514197286307     
   9.4800000000000009E-002     1.7305432879098213     
   9.5100000000000004E-002    0.93782671172069954     
   9.5399999999999999E-002    0.12055128899274159     
   9.5699999999999993E-002   -0.65256643572714168     
   9.6000000000000002E-002    -1.3194086477695208     
   9.6300000000000011E-002    -1.8295764049341443     
   9.6600000000000005E-002    -2.1478744352549484     
   9.6900000000000000E-002    -2.2579212778923861     
   9.7200000000000009E-002    -2.1619003984364582     
   9.7499999999999989E-002    -1.8799682445848163     
   9.7799999999999998E-002    -1.4478516209067052     
   9.8100000000000007E-002   -0.91175684675201296     
   9.8400000000000015E-002   -0.32461768921748657     
   9.8699999999999996E-002    0.26015909450268415     
   9.9000000000000005E-002    0.79365019990634522     
   9.9300000000000013E-002     1.2350356551924264     
   9.9599999999999994E-002     1.5561993828162528     
   9.9900000000000003E-002     1.7421746620279919     
  0.10020000000000001          1.7919803342620071     
  0.10049999999999999          1.7177578017045363     
  0.10080000000000000          1.5412258133376540     
  0.10110000000000001          1.2917950781305976     
  0.10140000000000000          1.0016818501214733     
  0.10170000000000000         0.70247009030868313     
  0.10200000000000001         0.42247972714272386     
  0.10230000000000002         0.18293856653671009     
  0.10260000000000000         -2.2655606006400930E-003
  0.10290000000000001        -0.12745511769329232     
  0.10320000000000000        -0.19479689801201872     
  0.10350000000000001        -0.21200058084516193     
  0.10380000000000000        -0.19085064944414354     
  0.10410000000000001        -0.14431387543738849     
  0.10440000000000001         -8.3984881530875286E-002
  0.10470000000000000         -1.8646536928719204E-002
  0.10500000000000000          4.7635582589513614E-002
  0.10530000000000000         0.11600644512154323     
  0.10560000000000000         0.19206473506358179     
  0.10590000000000001         0.28534340266922698     
  0.10620000000000000         0.40705504272220949     
  0.10650000000000001         0.56803625556569415     
  0.10679999999999999         0.77672231572324080     
  0.10710000000000000          1.0364202150671993     
  0.10740000000000001          1.3445030456080715     
  0.10770000000000000          1.6915131038209026     
  0.10800000000000000          2.0608509438404781     
  0.10830000000000001          2.4305635334370237     
  0.10859999999999999          2.7746199306233734     
  0.10890000000000000          3.0658624194528556     
  0.10920000000000001          3.2787091786632061     
  0.10950000000000001          3.3913756604133170     
  0.10979999999999999          3.3892356233069449     
  0.11009999999999999          3.2655668580989214     
  0.11040000000000001          3.0226960160116221     
  0.11070000000000001          2.6713161302411095     
  0.11100000000000000          2.2292844983967299     
  0.11130000000000000          1.7195715586025990     
  0.11160000000000002          1.1669081402569859     
  0.11190000000000001         0.59578432776341117     
  0.11220000000000001          2.7163941203919073E-002
  0.11250000000000000        -0.52305826352527696     
  0.11280000000000000         -1.0456539817911796     
  0.11309999999999999         -1.5385736319971812     
  0.11340000000000001         -2.0054503866017441     
  0.11369999999999998         -2.4549532810922301     
  0.11400000000000000         -2.8980569123982178     
  0.11430000000000000         -3.3459124966386042     
  0.11460000000000002         -3.8077286394641305     
  0.11489999999999999         -4.2880748361890539     
  0.11520000000000001         -4.7869141318747950     
  0.11550000000000001         -5.2978386920877085     
  0.11580000000000000         -5.8080828738504238     
  0.11609999999999999         -6.3003899224709983     
  0.11640000000000002         -6.7529221133761439     
  0.11670000000000001         -7.1416019335341048     
  0.11700000000000001         -7.4416841342881526     
  0.11730000000000000         -7.6285279770593206     
  0.11760000000000000         -7.6802364706531989     
  0.11789999999999999         -7.5773073488771274     
  0.11820000000000001         -7.3045393540904229     
  0.11850000000000001         -6.8518384716676337     
  0.11880000000000000         -6.2131361887221175     
  0.11910000000000000         -5.3890198372735512     
  0.11940000000000002         -4.3848006948591731     
  0.11970000000000001         -3.2122500877883979     
  0.12000000000000001         -1.8896478914959545     
  0.12030000000000000        -0.43992546925859699     
  0.12060000000000000          1.1066972695298745     
  0.12089999999999999          2.7158972756636217     
  0.12119999999999999          4.3486520860081583     
  0.12150000000000001          5.9619425064681764     
  0.12180000000000001          7.5114040652638607     
  0.12210000000000000          8.9508752222010344     
  0.12239999999999999          10.235793199623117     
  0.12270000000000002          11.323682579100989     
  0.12300000000000001          12.175460626804238     
  0.12330000000000001          12.757458090311900     
  0.12360000000000000          13.042657419501040     
  0.12390000000000000          13.011307856093936     
  0.12419999999999999          12.651712854104517     
  0.12450000000000001          11.961624919774550     
  0.12480000000000001          10.948378368213923     
  0.12509999999999999          9.6296751563524765     
  0.12540000000000001          8.0329829045065662     
  0.12570000000000003          6.1963893749740322     
  0.12600000000000000          4.1674623842819472     
  0.12630000000000002          2.0025136413954669     
  0.12659999999999999        -0.23423950795881510     
  0.12690000000000001         -2.4738856817393255     
  0.12719999999999998         -4.6429676001037308     
  0.12750000000000000         -6.6685364994575878     
  0.12780000000000002         -8.4795656107982609     
  0.12809999999999999         -10.010400129440882     
  0.12840000000000001         -11.204282034848404     
  0.12869999999999998         -12.015393841746970     
  0.12900000000000000         -12.412170757246315     
  0.12930000000000003         -12.378486331821250     
  0.12959999999999999         -11.914663691061378     
  0.12990000000000002         -11.038963195841745     
  0.13019999999999998         -9.7857813651164989     
  0.13050000000000000         -8.2061718925024500     
  0.13080000000000003         -6.3650435637775615     
  0.13109999999999999         -4.3389395943213174     
  0.13140000000000002         -2.2132023687370719     
  0.13169999999999998         -7.8115175006303161E-002
  0.13200000000000001          1.9742499594943368     
  0.13229999999999997          3.8554942453226033     
  0.13260000000000000          5.4837607733308289     
  0.13290000000000002          6.7886548536980058     
  0.13319999999999999          7.7149686576449881     
  0.13350000000000001          8.2256116394842422     
  0.13380000000000003          8.3043996691399968     
  0.13410000000000000          7.9569299736919277     
  0.13440000000000002          7.2114808066269660     
  0.13469999999999999          6.1170910561739227     
  0.13500000000000001          4.7418663598400173     
  0.13529999999999998          3.1691065420989872     
  0.13560000000000000          1.4928232501116270     
  0.13590000000000002        -0.18773195856405422     
  0.13619999999999999         -1.7740295838961941     
  0.13650000000000001         -3.1731543540242910     
  0.13680000000000003         -4.3046458265168326     
  0.13710000000000000         -5.1041145049057377     
  0.13740000000000002         -5.5280797878515244     
  0.13769999999999999         -5.5562618295608672     
  0.13800000000000001         -5.1921002102799676     
  0.13829999999999998         -4.4642286960703075     
  0.13860000000000000         -3.4229148755793659     
  0.13890000000000002         -2.1387918300338384     
  0.13919999999999999        -0.69712506746840575     
  0.13950000000000001         0.80678841046587335     
  0.13979999999999998          2.2731101368159727     
  0.14010000000000000          3.6051705223274695     
  0.14040000000000002          4.7136730811460552     
  0.14069999999999999          5.5245733774927714     
  0.14100000000000001          5.9824771661040614     
  0.14130000000000004          6.0549230375699494     
  0.14160000000000000          5.7356421772644737     
  0.14189999999999997          5.0433692733764488     
  0.14219999999999999          4.0230660144631685     
  0.14250000000000002          2.7406847776761651     
  0.14279999999999998          1.2805109716068870     
  0.14310000000000000        -0.26129438039436437     
  0.14339999999999997         -1.7843674666031930     
  0.14369999999999999         -3.1886627961723519     
  0.14400000000000002         -4.3846794701822489     
  0.14429999999999998         -5.2973389210863218     
  0.14460000000000001         -5.8726316109805339     
  0.14490000000000003         -6.0820933814247553     
  0.14520000000000000         -5.9227551920179664     
  0.14550000000000002         -5.4197865334005293     
  0.14579999999999999         -4.6221921864604383     
  0.14610000000000001         -3.6001934409282867     
  0.14640000000000003         -2.4396875255542341     
  0.14670000000000000         -1.2344938682541695     
  0.14699999999999996         -8.0505338305421503E-002
  0.14729999999999999         0.93390950699084563     
  0.14760000000000001          1.7334511652514450     
  0.14789999999999998          2.2620313185377370     
  0.14820000000000000          2.4883681246286420     