  -1.4999999999999999E-002     0.0000000000000000     
  -1.4700000000000000E-002     0.0000000000000000     
  -1.4400000000000000E-002     0.0000000000000000     
  -1.4100000000000000E-002     0.0000000000000000     
  -1.3800000000000000E-002     0.0000000000000000     
  -1.3500000000000000E-002     0.0000000000000000     
  -1.3200000000000000E-002     0.0000000000000000     
  -1.2899999999999998E-002     0.0000000000000000     
  -1.2600000000000000E-002     0.0000000000000000     
  -1.2299999999999998E-002     0.0000000000000000     
  -1.2000000000000000E-002     0.0000000000000000     
  -1.1699999999999999E-002     0.0000000000000000     
  -1.1399999999999999E-002     0.0000000000000000     
  -1.1099999999999999E-002     0.0000000000000000     
  -1.0799999999999999E-002     0.0000000000000000     
  -1.0499999999999999E-002     0.0000000000000000     
  -1.0199999999999999E-002     0.0000000000000000     
  -9.8999999999999991E-003     0.0000000000000000     
  -9.5999999999999992E-003     0.0000000000000000     
  -9.2999999999999992E-003     0.0000000000000000     
  -8.9999999999999993E-003     0.0000000000000000     
  -8.6999999999999994E-003     0.0000000000000000     
  -8.3999999999999995E-003     0.0000000000000000     
  -8.0999999999999996E-003     0.0000000000000000     
  -7.7999999999999988E-003     0.0000000000000000     
  -7.4999999999999997E-003     0.0000000000000000     
  -7.1999999999999998E-003     0.0000000000000000     
  -6.8999999999999981E-003     0.0000000000000000     
  -6.5999999999999982E-003     0.0000000000000000     
  -6.3000000000000000E-003     0.0000000000000000     
  -6.0000000000000001E-003     0.0000000000000000     
  -5.6999999999999985E-003     0.0000000000000000     
  -5.3999999999999986E-003     0.0000000000000000     
  -5.1000000000000004E-003     0.0000000000000000     
  -4.7999999999999987E-003     0.0000000000000000     
  -4.5000000000000005E-003     0.0000000000000000     
  -4.1999999999999989E-003     0.0000000000000000     
  -3.8999999999999990E-003     0.0000000000000000     
  -3.5999999999999990E-003     0.0000000000000000     
  -3.2999999999999991E-003     0.0000000000000000     
  -2.9999999999999992E-003     0.0000000000000000     
  -2.6999999999999993E-003     0.0000000000000000     
  -2.3999999999999994E-003     0.0000000000000000     
  -2.0999999999999977E-003     0.0000000000000000     
  -1.7999999999999995E-003     0.0000000000000000     
  -1.4999999999999979E-003     0.0000000000000000     
  -1.1999999999999997E-003     0.0000000000000000     
  -8.9999999999999976E-004     0.0000000000000000     
  -5.9999999999999810E-004     0.0000000000000000     
  -2.9999999999999992E-004     0.0000000000000000     
   0.0000000000000000          0.0000000000000000     
   3.0000000000000165E-004     0.0000000000000000     
   5.9999999999999984E-004     0.0000000000000000     
   9.0000000000000149E-004     0.0000000000000000     
   1.2000000000000031E-003     0.0000000000000000     
   1.5000000000000013E-003     0.0000000000000000     
   1.8000000000000030E-003     0.0000000000000000     
   2.1000000000000012E-003     0.0000000000000000     
   2.3999999999999994E-003     0.0000000000000000     
   2.7000000000000010E-003     0.0000000000000000     
   2.9999999999999992E-003     0.0000000000000000     
   3.3000000000000008E-003     0.0000000000000000     
   3.6000000000000025E-003     0.0000000000000000     
   3.9000000000000007E-003     0.0000000000000000     
   4.2000000000000023E-003     0.0000000000000000     
   4.5000000000000005E-003    -6.9031190944302293E-037
   4.7999999999999987E-003     1.4649804618256707E-036
   5.1000000000000004E-003     1.1226979805880956E-035
   5.4000000000000020E-003    -2.6518271507759540E-035
   5.7000000000000037E-003    -1.8247899053472574E-034
   5.9999999999999984E-003     2.1770316089347041E-034
   6.3000000000000000E-003     2.7656671091001841E-033
   6.6000000000000017E-003    -1.1915196449018570E-033
   6.9000000000000034E-003    -1.9501166222761675E-032
   7.2000000000000015E-003    -5.2032743160370072E-034
   7.5000000000000032E-003     1.0618207557135900E-031
   7.8000000000000014E-003     1.0082852752688081E-032
   8.0999999999999996E-003    -4.0242099300965548E-031
   8.4000000000000012E-003    -9.0336729105749287E-032
   8.7000000000000029E-003     1.3236491449016215E-030
   9.0000000000000011E-003     1.6049174835053597E-030
   9.2999999999999992E-003    -2.0947199493461023E-029
   9.6000000000000009E-003     7.6910682233736421E-029
   9.8999999999999991E-003     1.1970882384706218E-028
   1.0200000000000001E-002    -2.8472913631081896E-027
   1.0500000000000002E-002     1.2469314017278607E-026
   1.0800000000000004E-002    -4.5405832220950358E-027
   1.1099999999999999E-002    -2.0481995636514830E-025
   1.1400000000000000E-002     1.0661065633990022E-024
   1.1700000000000002E-002    -2.1503553498962772E-024
   1.2000000000000004E-002    -3.4753701053009547E-024
   1.2300000000000002E-002     4.0411460374630767E-023
   1.2600000000000000E-002    -1.4862750348248866E-022
   1.2900000000000002E-002     3.0109225359991302E-022
   1.3200000000000000E-002    -1.3475665295251276E-022
   1.3500000000000002E-002    -1.5390888811544243E-021
   1.3800000000000003E-002     7.2559281669128574E-021
   1.4100000000000001E-002    -2.1494672726928291E-020
   1.4400000000000000E-002     5.5016958688335344E-020
   1.4700000000000001E-002    -1.5364944501657845E-019
   1.4999999999999999E-002     5.3306496523122294E-019
   1.5300000000000001E-002    -2.0938346331348128E-018
   1.5600000000000003E-002     8.1777540355217724E-018
   1.5899999999999997E-002    -3.0289573939013659E-017
   1.6199999999999999E-002     1.0716672098317739E-016
   1.6500000000000001E-002    -3.7391417129637914E-016
   1.6800000000000002E-002     1.3400846848621610E-015
   1.7100000000000004E-002    -5.0830006707597991E-015
   1.7400000000000006E-002     2.0344560793515189E-014
   1.7700000000000000E-002    -8.2732018664207624E-014
   1.8000000000000002E-002     3.2369040173924057E-013
   1.8300000000000004E-002    -1.1490232593516780E-012
   1.8600000000000005E-002     3.4424117202613846E-012
   1.8900000000000000E-002    -7.5427060430843795E-012
   1.9200000000000002E-002     5.5442399803096176E-012
   1.9500000000000003E-002     4.4547206201617229E-011
   1.9799999999999998E-002    -2.5349158883081202E-010
   2.0100000000000000E-002     6.9355687859484760E-010
   2.0400000000000001E-002    -7.2715750087937181E-010
   2.0700000000000003E-002    -2.1429040764076035E-009
   2.0999999999999998E-002     1.0210997380966091E-008
   2.1299999999999999E-002    -1.2825922546255697E-008
   2.1600000000000001E-002    -2.3631672618762423E-008
   2.1900000000000003E-002     9.2699629306025599E-008
   2.2200000000000004E-002    -1.8050087646770407E-008
   2.2500000000000006E-002    -3.2415127293461410E-007
   2.2800000000000001E-002     1.9194121136933973E-007
   2.3100000000000002E-002     9.8023429018212482E-007
   2.3400000000000004E-002    -3.5153436783730285E-007
   2.3699999999999999E-002    -3.1048523396748351E-006
   2.4000000000000000E-002    -1.0765190836536931E-006
   2.4300000000000002E-002     1.1978390830336139E-005
   2.4599999999999997E-002     3.5510871384758502E-005
   2.4900000000000005E-002     6.4867796027101576E-005
   2.5200000000000000E-002     1.0056651808554307E-004
   2.5499999999999995E-002     1.5193180297501385E-004
   2.5800000000000003E-002     2.3504429555032402E-004
   2.6099999999999998E-002     3.6972467205487192E-004
   2.6400000000000007E-002     5.7798059424385428E-004
   2.6700000000000002E-002     8.8857323862612247E-004
   2.6999999999999996E-002     1.3438406167551875E-003
   2.7300000000000005E-002     2.0038457587361336E-003
   2.7600000000000000E-002     2.9504336416721344E-003
   2.7900000000000008E-002     4.2904810979962349E-003
   2.8200000000000003E-002     6.1579938046634197E-003
   2.8499999999999998E-002     8.7158298119902611E-003
   2.8800000000000006E-002     1.2158329598605633E-002
   2.9100000000000001E-002     1.6714191064238548E-002
   2.9400000000000003E-002     2.2639308124780655E-002
   2.9700000000000004E-002     3.0199905857443810E-002
   3.0000000000000006E-002     3.9656061679124832E-002
   3.0300000000000001E-002     5.1237631589174271E-002
   3.0600000000000002E-002     6.5104112029075623E-002
   3.0900000000000004E-002     8.1291221082210541E-002
   3.1199999999999999E-002     9.9655263125896454E-002
   3.1500000000000007E-002    0.11981766670942307     
   3.1800000000000002E-002    0.14109764993190765     
   3.2099999999999997E-002    0.16245019435882568     
   3.2400000000000005E-002    0.18241880834102631     
   3.2700000000000000E-002    0.19913206994533539     
   3.3000000000000002E-002    0.21031747758388519     
   3.3300000000000003E-002    0.21336612105369568     
   3.3599999999999998E-002    0.20545193552970886     
   3.3900000000000000E-002    0.18370237946510315     
   3.4200000000000001E-002    0.14546026289463043     
   3.4500000000000003E-002     8.8550120592117310E-002
   3.4799999999999998E-002     1.1612188071012497E-002
   3.5099999999999999E-002    -8.5603341460227966E-002
   3.5400000000000001E-002   -0.20192137360572815     
   3.5699999999999996E-002   -0.33451995253562927     
   3.6000000000000004E-002   -0.47882258892059326     
   3.6299999999999999E-002   -0.62848645448684692     
   3.6600000000000008E-002   -0.77559763193130493     
   3.6900000000000002E-002   -0.91101461648941040     
   3.7199999999999997E-002    -1.0248744487762451     
   3.7500000000000006E-002    -1.1072964668273926     
   3.7800000000000000E-002    -1.1490875482559204     
   3.8100000000000009E-002    -1.1425820589065552     
   3.8400000000000004E-002    -1.0823917388916016     
   3.8699999999999998E-002   -0.96605277061462402     
   3.9000000000000007E-002   -0.79453355073928833     
   3.9300000000000002E-002   -0.57238912582397461     
   3.9600000000000003E-002   -0.30777314305305481     
   3.9900000000000005E-002    -1.2063189409673214E-002
   4.0200000000000000E-002    0.30080586671829224     
   4.0500000000000001E-002    0.61518913507461548     
   4.0800000000000003E-002    0.91478490829467773     
   4.1100000000000005E-002     1.1837453842163086     
   4.1399999999999999E-002     1.4078606367111206     
   4.1700000000000008E-002     1.5754383802413940     
   4.2000000000000003E-002     1.6782366037368774     
   4.2299999999999997E-002     1.7119143009185791     
   4.2600000000000006E-002     1.6762590408325195     
   4.2900000000000001E-002     1.5752124786376953     
   4.3200000000000002E-002     1.4163057804107666     
   4.3500000000000004E-002     1.2101494073867798     
   4.3799999999999999E-002    0.96954292058944702     
   4.4100000000000000E-002    0.70847213268280029     
   4.4400000000000002E-002    0.44125157594680786     
   4.4700000000000004E-002    0.18145582079887390     
   4.4999999999999998E-002    -5.8887131512165070E-002
   4.5300000000000000E-002   -0.26982033252716064     
   4.5600000000000002E-002   -0.44410008192062378     
   4.5899999999999996E-002   -0.57727134227752686     
   4.6200000000000005E-002   -0.66769969463348389     
   4.6500000000000000E-002   -0.71642661094665527     
   4.6799999999999994E-002   -0.72674828767776489     
   4.7100000000000003E-002   -0.70380234718322754     
   4.7399999999999998E-002   -0.65406042337417603     
   4.7700000000000006E-002   -0.58469188213348389     
   4.8000000000000001E-002   -0.50314176082611084     
   4.8300000000000010E-002   -0.41657993197441101     
   4.8600000000000004E-002   -0.33148071169853210     
   4.8899999999999999E-002   -0.25343349575996399     
   4.9200000000000008E-002   -0.18671703338623047     
   4.9500000000000002E-002   -0.13434349000453949     
   4.9800000000000011E-002    -9.8005242645740509E-002
   5.0100000000000006E-002    -7.7992878854274750E-002
   5.0400000000000000E-002    -7.3535062372684479E-002
   5.0700000000000009E-002    -8.2794234156608582E-002
   5.1000000000000004E-002   -0.10320743918418884     
   5.1299999999999998E-002   -0.13182644546031952     
   5.1600000000000007E-002   -0.16546283662319183     
   5.1900000000000002E-002   -0.20118346810340881     
   5.2200000000000010E-002   -0.23647461831569672     
   5.2500000000000005E-002   -0.26948744058609009     
   5.2800000000000000E-002   -0.29926964640617371     
   5.3099999999999994E-002   -0.32563775777816772     
   5.3400000000000003E-002   -0.34924346208572388     
   5.3699999999999998E-002   -0.37132018804550171     
   5.4000000000000006E-002   -0.39328986406326294     
   5.4300000000000001E-002   -0.41647106409072876     
   5.4599999999999996E-002   -0.44157147407531738     
   5.4900000000000004E-002   -0.46829718351364136     
   5.5199999999999999E-002   -0.49503654241561890     
   5.5499999999999994E-002   -0.51867061853408813     
   5.5800000000000002E-002   -0.53460276126861572     
   5.6099999999999997E-002   -0.53704893589019775     
   5.6400000000000006E-002   -0.51949173212051392     
   5.6700000000000000E-002   -0.47537419199943542     
   5.6999999999999995E-002   -0.39893472194671631     
   5.7300000000000004E-002   -0.28601026535034180     
   5.7599999999999998E-002   -0.13489595055580139     
   5.7900000000000007E-002     5.3032770752906799E-002
   5.8200000000000002E-002    0.27309232950210571     
   5.8499999999999996E-002    0.51700502634048462     
   5.8800000000000005E-002    0.77347695827484131     
   5.9100000000000000E-002     1.0286937952041626     
   5.9400000000000008E-002     1.2673588991165161     
   5.9700000000000003E-002     1.4739720821380615     
   6.0000000000000012E-002     1.6339062452316284     
   6.0300000000000006E-002     1.7349157333374023     
   6.0600000000000001E-002     1.7680964469909668     
   6.0900000000000010E-002     1.7285953760147095     
   6.1200000000000004E-002     1.6163647174835205     
   6.1500000000000013E-002     1.4359041452407837     
   6.1800000000000008E-002     1.1961872577667236     
   6.2100000000000002E-002    0.90989196300506592     
   6.2399999999999997E-002    0.59225070476531982     
   6.2700000000000006E-002    0.26023727655410767     
   6.3000000000000000E-002    -6.9062575697898865E-002
   6.3300000000000009E-002   -0.37939399480819702     
   6.3600000000000004E-002   -0.65644210577011108     
   6.3899999999999998E-002   -0.88888615369796753     
   6.4199999999999993E-002    -1.0685956478118896     
   6.4500000000000002E-002    -1.1912620067596436     
   6.4800000000000010E-002    -1.2561292648315430     
   6.5100000000000005E-002    -1.2656713724136353     
   6.5400000000000000E-002    -1.2253117561340332     
   6.5700000000000008E-002    -1.1424813270568848     
   6.5999999999999989E-002    -1.0261924266815186     
   6.6299999999999998E-002   -0.88624000549316406     
   6.6600000000000006E-002   -0.73251914978027344     
   6.6900000000000001E-002   -0.57470524311065674     
   6.7199999999999996E-002   -0.42168134450912476     
   6.7500000000000004E-002   -0.28146839141845703     
   6.7800000000000013E-002   -0.16095612943172455     
   6.8099999999999994E-002    -6.5812349319458008E-002
   6.8400000000000002E-002    -4.5710173435509205E-004
   6.8700000000000011E-002     3.2091028988361359E-002
   6.8999999999999992E-002     3.0262796208262444E-002
   6.9300000000000000E-002    -5.7873073965311050E-003
   6.9600000000000009E-002    -7.4196711182594299E-002
   6.9900000000000004E-002   -0.17112775146961212     
   7.0199999999999999E-002   -0.29072514176368713     
   7.0500000000000007E-002   -0.42525666952133179     
   7.0800000000000016E-002   -0.56509166955947876     
   7.1099999999999997E-002   -0.69938910007476807     
   7.1400000000000005E-002   -0.81642192602157593     
   7.1700000000000000E-002   -0.90435314178466797     
   7.1999999999999995E-002   -0.95225417613983154     
   7.2300000000000003E-002   -0.95063674449920654     
   7.2600000000000012E-002   -0.89265787601470947     
   7.2900000000000006E-002   -0.77457344532012939     
   7.3200000000000001E-002   -0.59627437591552734     
   7.3499999999999996E-002   -0.36178904771804810     
   7.3800000000000004E-002    -7.8915104269981384E-002
   7.4099999999999999E-002    0.24080783128738403     
   7.4400000000000008E-002    0.58287423849105835     
   7.4700000000000003E-002    0.93065434694290161     
   7.5000000000000011E-002     1.2662484645843506     
   7.5299999999999992E-002     1.5718263387680054     
   7.5600000000000001E-002     1.8306789398193359     
   7.5900000000000009E-002     2.0282440185546875     
   7.6200000000000004E-002     2.1533606052398682     
   7.6499999999999999E-002     2.1986026763916016     
   7.6800000000000007E-002     2.1610953807830811     
   7.7099999999999988E-002     2.0427381992340088     
   7.7399999999999997E-002     1.8498350381851196     
   7.7700000000000005E-002     1.5931565761566162     
   7.8000000000000014E-002     1.2868995666503906     
   7.8299999999999995E-002    0.94774365425109863     
   7.8600000000000003E-002    0.59401905536651611     
   7.8900000000000012E-002    0.24389958381652832     
   7.9199999999999993E-002    -8.5375629365444183E-002
   7.9500000000000001E-002   -0.37891885638237000     
   7.9800000000000010E-002   -0.62555575370788574     
   8.0100000000000018E-002   -0.81809872388839722     
   8.0399999999999999E-002   -0.95455449819564819     
   8.0700000000000008E-002    -1.0377795696258545     
   8.1000000000000003E-002    -1.0752481222152710     
   8.1299999999999997E-002    -1.0788894891738892     
   8.1600000000000006E-002    -1.0631333589553833     
   8.1900000000000014E-002    -1.0443327426910400     
   8.2199999999999995E-002    -1.0388380289077759     
   8.2500000000000004E-002    -1.0609124898910522     
   8.2799999999999999E-002    -1.1219630241394043     
   8.3100000000000007E-002    -1.2279926538467407     
   8.3400000000000002E-002    -1.3792017698287964     
   8.3700000000000011E-002    -1.5692918300628662     
   8.4000000000000005E-002    -1.7847839593887329     
   8.4300000000000000E-002    -2.0066659450531006     
   8.4599999999999995E-002    -2.2104868888854980     
   8.4900000000000003E-002    -2.3686902523040771     
   8.5199999999999998E-002    -2.4530403614044189     
   8.5500000000000007E-002    -2.4361877441406250     
   8.5800000000000001E-002    -2.2955517768859863     
   8.6100000000000010E-002    -2.0147700309753418     
   8.6399999999999991E-002    -1.5858749151229858     
   8.6699999999999999E-002    -1.0117462873458862     
   8.7000000000000008E-002   -0.30521479249000549     
   8.7300000000000003E-002    0.50929319858551025     
   8.7599999999999997E-002     1.3975664377212524     
   8.7900000000000006E-002     2.3175854682922363     
   8.8200000000000014E-002     3.2208375930786133     
   8.8499999999999995E-002     4.0568966865539551     
   8.8800000000000004E-002     4.7755870819091797     
   8.9100000000000013E-002     5.3307514190673828     
   8.9399999999999993E-002     5.6845078468322754     
   8.9700000000000002E-002     5.8083696365356445     
   9.0000000000000011E-002     5.6872549057006836     
   9.0299999999999991E-002     5.3198633193969727     
   9.0600000000000000E-002     4.7188549041748047     
   9.0900000000000009E-002     3.9115588665008545     
   9.1200000000000017E-002     2.9364721775054932     
   9.1499999999999998E-002     1.8422597646713257     
   9.1800000000000007E-002    0.68402427434921265     
   9.2100000000000001E-002   -0.48105460405349731     
   9.2399999999999996E-002    -1.5962636470794678     
   9.2700000000000005E-002    -2.6102106571197510     
   9.3000000000000013E-002    -3.4793844223022461     
   9.3300000000000008E-002    -4.1705017089843750     
   9.3600000000000003E-002    -4.6626358032226562     
   9.3899999999999997E-002    -4.9469475746154785     
   9.4200000000000006E-002    -5.0267834663391113     
   9.4500000000000001E-002    -4.9161195755004883     
   9.4800000000000009E-002    -4.6370644569396973     
   9.5100000000000004E-002    -4.2182478904724121     
   9.5399999999999999E-002    -3.6910192966461182     
   9.5699999999999993E-002    -3.0877912044525146     
   9.6000000000000002E-002    -2.4394161701202393     
   9.6300000000000011E-002    -1.7733778953552246     
   9.6600000000000005E-002    -1.1136232614517212     
   9.6900000000000000E-002   -0.47912514209747314     
   9.7200000000000009E-002    0.11504890024662018     
   9.7499999999999989E-002    0.65745186805725098     
   9.7799999999999998E-002     1.1397023200988770     
   9.8100000000000007E-002     1.5547729730606079     
   9.8400000000000015E-002     1.8972076177597046     
   9.8699999999999996E-002     2.1617341041564941     
   9.9000000000000005E-002     2.3434317111968994     
   9.9300000000000013E-002     2.4381630420684814     
   9.9599999999999994E-002     2.4424946308135986     
   9.9900000000000003E-002     2.3551073074340820     
  0.10020000000000001          2.1769428253173828     
  0.10049999999999999          1.9122493267059326     
  0.10080000000000000          1.5694634914398193     
  0.10110000000000001          1.1610475778579712     
  0.10140000000000000         0.70407778024673462     
  0.10170000000000000         0.21943920850753784     
  0.10200000000000001        -0.26871290802955627     
  0.10230000000000002        -0.73415184020996094     
  0.10260000000000000         -1.1504455804824829     
  0.10290000000000001         -1.4920396804809570     
  0.10320000000000000         -1.7364468574523926     
  0.10350000000000001         -1.8658986091613770     
  0.10380000000000000         -1.8687852621078491     
  0.10410000000000001         -1.7410907745361328     
  0.10440000000000001         -1.4868031740188599     
  0.10470000000000000         -1.1183822154998779     
  0.10500000000000000        -0.65620481967926025     
  0.10530000000000000        -0.12766009569168091     
  0.10560000000000000         0.43433886766433716     
  0.10590000000000001         0.99353235960006714     
  0.10620000000000000          1.5122830867767334     
  0.10650000000000001          1.9542170763015747     
  0.10679999999999999          2.2863471508026123     
  0.10710000000000000          2.4813995361328125     
  0.10740000000000001          2.5194561481475830     
  0.10770000000000000          2.3894410133361816     
  0.10800000000000000          2.0902659893035889     
  0.10830000000000001          1.6307023763656616     
  0.10859999999999999          1.0297392606735229     
  0.10890000000000000         0.31546723842620850     
  0.10920000000000001        -0.47594398260116577     
  0.10950000000000001         -1.3015938997268677     
  0.10979999999999999         -2.1145915985107422     
  0.11009999999999999         -2.8656527996063232     
  0.11040000000000001         -3.5064189434051514     
  0.11070000000000001         -3.9923644065856934     
  0.11100000000000000         -4.2851619720458984     
  0.11130000000000000         -4.3565912246704102     
  0.11160000000000002         -4.1899986267089844     
  0.11190000000000001         -3.7830007076263428     
  0.11220000000000001         -3.1487588882446289     
  0.11250000000000000         -2.3152770996093750     
  0.11280000000000000         -1.3257213830947876     
  0.11309999999999999        -0.23520357906818390     
  0.11340000000000001         0.89183700084686279     
  0.11369999999999998          1.9857659339904785     
  0.11400000000000000          2.9775567054748535     
  0.11430000000000000          3.8026194572448730     
  0.11460000000000002          4.4073653221130371     
  0.11489999999999999          4.7527065277099609     
  0.11520000000000001          4.8175749778747559     
  0.11550000000000001          4.6018104553222656     
  0.11580000000000000          4.1250724792480469     
  0.11609999999999999          3.4273071289062500     
  0.11640000000000002          2.5642607212066650     
  0.11670000000000001          1.6035305261611938     
  0.11700000000000001         0.61993044614791870     
  0.11730000000000000        -0.31237941980361938     
  0.11760000000000000         -1.1238839626312256     
  0.11789999999999999         -1.7564884424209595     
  0.11820000000000001         -2.1681990623474121     
  0.11850000000000001         -2.3350133895874023     
  0.11880000000000000         -2.2541451454162598     
  0.11910000000000000         -1.9420437812805176     
  0.11940000000000002         -1.4336148500442505     
  0.11970000000000001        -0.77889865636825562     
  0.12000000000000001         -3.7210095673799515E-002
  0.12030000000000000         0.72604602575302124     
  0.12060000000000000          1.4465839862823486     
  0.12089999999999999          2.0655539035797119     
  0.12119999999999999          2.5338542461395264     
  0.12150000000000001          2.8169627189636230     
  0.12180000000000001          2.8954584598541260     
  0.12210000000000000          2.7675006389617920     
  0.12239999999999999          2.4472484588623047     
  0.12270000000000002          1.9632374048233032     
  0.12300000000000001          1.3561766147613525     
  0.12330000000000001         0.67365384101867676     
  0.12360000000000000         -3.2538197934627533E-002
  0.12390000000000000        -0.71186810731887817     
  0.12419999999999999         -1.3192168474197388     
  0.12450000000000001         -1.8175812959671021     
  0.12480000000000001         -2.1822550296783447     
  0.12509999999999999         -2.4006602764129639     
  0.12540000000000001         -2.4740817546844482     
  0.12570000000000003         -2.4164857864379883     
  0.12600000000000000         -2.2516982555389404     
  0.12630000000000002         -2.0121908187866211     
  0.12659999999999999         -1.7333346605300903     
  0.12690000000000001         -1.4512537717819214     
  0.12719999999999998         -1.1985936164855957     
  0.12750000000000000         -1.0000840425491333     
  0.12780000000000002        -0.87215441465377808     
  0.12809999999999999        -0.81930029392242432     
  0.12840000000000001        -0.83534163236618042     
  0.12869999999999998        -0.90415817499160767     
  0.12900000000000000         -1.0010178089141846     
  0.12930000000000003         -1.0976209640502930     
  0.12959999999999999         -1.1637192964553833     
  0.12990000000000002         -1.1724487543106079     
  0.13019999999999998         -1.1036307811737061     
  0.13050000000000000        -0.94571912288665771     
  0.13080000000000003        -0.69925653934478760     
  0.13109999999999999        -0.37565299868583679     
  0.13140000000000002          2.7139540761709213E-003
  0.13169999999999998         0.40468028187751770     
  0.13200000000000001         0.79455476999282837     
  0.13229999999999997          1.1348379850387573     
  0.13260000000000000          1.3915412425994873     
  0.13290000000000002          1.5374534130096436     
  0.13319999999999999          1.5552781820297241     
  0.13350000000000001          1.4401984214782715     
  0.13380000000000003          1.1996157169342041     
  0.13410000000000000         0.85317081212997437     
  0.13440000000000002         0.43005576729774475     
  0.13469999999999999         -3.4053385257720947E-002
  0.13500000000000001        -0.50069707632064819     
  0.13529999999999998        -0.93288856744766235     
  0.13560000000000000         -1.2986352443695068     
  0.13590000000000002         -1.5741333961486816     
  0.13619999999999999         -1.7449480295181274     
  0.13650000000000001         -1.8073334693908691     
  0.13680000000000003         -1.7671623229980469     
  0.13710000000000000         -1.6381969451904297     
  0.13740000000000002         -1.4401611089706421     
  0.13769999999999999         -1.1950112581253052     
  0.13800000000000001        -0.92515909671783447     
  0.13829999999999998        -0.65054368972778320     
  0.13860000000000000        -0.38666254281997681     
  0.13890000000000002        -0.14485046267509460     
  0.13919999999999999          6.9446146488189697E-002
  0.13950000000000001         0.25453421473503113     
  0.13979999999999998         0.41192579269409180     
  0.14010000000000000         0.54556614160537720     
  0.14040000000000002         0.65880107879638672     
  0.14069999999999999         0.75547993183135986     
  0.14100000000000001         0.83761072158813477     
  0.14130000000000004         0.90603095293045044     
  0.14160000000000000         0.96159911155700684     
  0.14189999999999997          1.0039550065994263     
  0.14219999999999999          1.0348048210144043     
  0.14250000000000002          1.0573544502258301     
  0.14279999999999998          1.0765542984008789     
  0.14310000000000000          1.1010735034942627     
  0.14339999999999997          1.1403675079345703     
  0.14369999999999999          1.2060538530349731     
  0.14400000000000002          1.3095710277557373     
  0.14429999999999998          1.4597785472869873     
  0.14460000000000001          1.6633424758911133     
  0.14490000000000003          1.9210743904113770     
  0.14520000000000000          2.2287483215332031     
  0.14550000000000002          2.5759859085083008     
  0.14579999999999999          2.9458489418029785     
  0.14610000000000001          3.3177146911621094     
  0.14640000000000003          3.6668941974639893     
  0.14670000000000000          3.9677896499633789     
  0.14699999999999996          4.1961126327514648     
  0.14729999999999999          4.3298549652099609     
  0.14760000000000001          4.3525342941284180     
  0.14789999999999998          4.2532629966735840     
  0.14820000000000000          4.0274801254272461     