  -1.4999999999999999E-002     0.0000000000000000     
  -1.4700000000000000E-002     0.0000000000000000     
  -1.4400000000000000E-002     0.0000000000000000     
  -1.4100000000000000E-002     0.0000000000000000     
  -1.3800000000000000E-002     0.0000000000000000     
  -1.3500000000000000E-002     0.0000000000000000     
  -1.3200000000000000E-002     0.0000000000000000     
  -1.2899999999999998E-002     0.0000000000000000     
  -1.2600000000000000E-002     0.0000000000000000     
  -1.2299999999999998E-002     0.0000000000000000     
  -1.2000000000000000E-002     0.0000000000000000     
  -1.1699999999999999E-002     0.0000000000000000     
  -1.1399999999999999E-002     0.0000000000000000     
  -1.1099999999999999E-002     0.0000000000000000     
  -1.0799999999999999E-002     0.0000000000000000     
  -1.0499999999999999E-002     0.0000000000000000     
  -1.0199999999999999E-002     0.0000000000000000     
  -9.8999999999999991E-003     0.0000000000000000     
  -9.5999999999999992E-003     0.0000000000000000     
  -9.2999999999999992E-003     0.0000000000000000     
  -8.9999999999999993E-003     0.0000000000000000     
  -8.6999999999999994E-003     0.0000000000000000     
  -8.3999999999999995E-003     0.0000000000000000     
  -8.0999999999999996E-003     0.0000000000000000     
  -7.7999999999999988E-003     0.0000000000000000     
  -7.4999999999999997E-003     0.0000000000000000     
  -7.1999999999999998E-003     0.0000000000000000     
  -6.8999999999999981E-003     0.0000000000000000     
  -6.5999999999999982E-003     0.0000000000000000     
  -6.3000000000000000E-003     0.0000000000000000     
  -6.0000000000000001E-003     0.0000000000000000     
  -5.6999999999999985E-003     0.0000000000000000     
  -5.3999999999999986E-003     0.0000000000000000     
  -5.1000000000000004E-003     0.0000000000000000     
  -4.7999999999999987E-003     0.0000000000000000     
  -4.5000000000000005E-003     0.0000000000000000     
  -4.1999999999999989E-003     0.0000000000000000     
  -3.8999999999999990E-003     0.0000000000000000     
  -3.5999999999999990E-003     0.0000000000000000     
  -3.2999999999999991E-003     0.0000000000000000     
  -2.9999999999999992E-003     0.0000000000000000     
  -2.6999999999999993E-003     0.0000000000000000     
  -2.3999999999999994E-003     0.0000000000000000     
  -2.0999999999999977E-003     0.0000000000000000     
  -1.7999999999999995E-003     0.0000000000000000     
  -1.4999999999999979E-003     0.0000000000000000     
  -1.1999999999999997E-003     0.0000000000000000     
  -8.9999999999999976E-004     0.0000000000000000     
  -5.9999999999999810E-004     0.0000000000000000     
  -2.9999999999999992E-004     0.0000000000000000     
   0.0000000000000000          0.0000000000000000     
   3.0000000000000165E-004     0.0000000000000000     
   5.9999999999999984E-004     0.0000000000000000     
   9.0000000000000149E-004     0.0000000000000000     
   1.2000000000000031E-003     0.0000000000000000     
   1.5000000000000013E-003     0.0000000000000000     
   1.8000000000000030E-003     0.0000000000000000     
   2.1000000000000012E-003     0.0000000000000000     
   2.3999999999999994E-003     0.0000000000000000     
   2.7000000000000010E-003     0.0000000000000000     
   2.9999999999999992E-003     0.0000000000000000     
   3.3000000000000008E-003     0.0000000000000000     
   3.6000000000000025E-003     0.0000000000000000     
   3.9000000000000007E-003     0.0000000000000000     
   4.2000000000000023E-003     0.0000000000000000     
   4.5000000000000005E-003     0.0000000000000000     
   4.7999999999999987E-003     0.0000000000000000     
   5.1000000000000004E-003     0.0000000000000000     
   5.4000000000000020E-003     0.0000000000000000     
   5.7000000000000037E-003     0.0000000000000000     
   5.9999999999999984E-003     0.0000000000000000     
   6.3000000000000000E-003     0.0000000000000000     
   6.6000000000000017E-003     0.0000000000000000     
   6.9000000000000034E-003     0.0000000000000000     
   7.2000000000000015E-003     0.0000000000000000     
   7.5000000000000032E-003     1.6913374688476873E-038
   7.8000000000000014E-003     2.5467543954685322E-038
   8.0999999999999996E-003     8.2335370020901821E-037
   8.4000000000000012E-003     3.0675262646401641E-037
   8.7000000000000029E-003    -9.7239003411037395E-036
   9.0000000000000011E-003     8.4458553887926585E-036
   9.2999999999999992E-003     6.4435126503870094E-036
   9.6000000000000009E-003    -3.0401059280054163E-035
   9.8999999999999991E-003    -9.5059585540802583E-035
   1.0200000000000001E-002    -9.1403415047707089E-035
   1.0500000000000002E-002     5.8728127711218356E-034
   1.0800000000000004E-002     2.4051889388806343E-033
   1.1099999999999999E-002    -1.3522229971405235E-032
   1.1400000000000000E-002    -4.6515271525370303E-032
   1.1700000000000002E-002     7.5642138752006673E-031
   1.2000000000000004E-002    -2.8103647074679587E-030
   1.2300000000000002E-002    -8.3694399396772562E-030
   1.2600000000000000E-002     1.2838853824821832E-028
   1.2900000000000002E-002    -4.6751826873471477E-028
   1.3200000000000000E-002    -5.5580145800336079E-028
   1.3500000000000002E-002     1.2465953278229888E-026
   1.3800000000000003E-002    -5.1446147213188280E-026
   1.4100000000000001E-002     4.3649749030736630E-026
   1.4400000000000000E-002     5.6545128582591659E-025
   1.4700000000000001E-002    -3.3222722570588207E-024
   1.4999999999999999E-002     8.7528471943534986E-024
   1.5300000000000001E-002    -2.8140328802322742E-024
   1.5600000000000003E-002    -8.2252879658099143E-023
   1.5899999999999997E-002     4.1862961115271950E-022
   1.6199999999999999E-002    -1.1880164323691565E-021
   1.6500000000000001E-002     1.8245310846704704E-021
   1.6800000000000002E-002     1.4494675164693217E-021
   1.7100000000000004E-002    -2.1249057606377938E-020
   1.7400000000000006E-002     9.0278853193742775E-020
   1.7700000000000000E-002    -2.8924950630635252E-019
   1.8000000000000002E-002     8.4238428526974133E-019
   1.8300000000000004E-002    -2.4494775739445581E-018
   1.8600000000000005E-002     7.2550431615258856E-018
   1.8900000000000000E-002    -2.1114485444931004E-017
   1.9200000000000002E-002     5.8234641648551772E-017
   1.9500000000000003E-002    -1.5633064097632325E-016
   1.9799999999999998E-002     4.8429099405783152E-016
   2.0100000000000000E-002    -2.1514123700951354E-015
   2.0400000000000001E-002     1.2281179859331372E-014
   2.0700000000000003E-002    -7.0369664996089835E-014
   2.0999999999999998E-002     3.6134252787295780E-013
   2.1299999999999999E-002    -1.6001601533792170E-012
   2.1600000000000001E-002     5.9345270663959347E-012
   2.1900000000000003E-002    -1.7439183201412760E-011
   2.2200000000000004E-002     3.4640955023332088E-011
   2.2500000000000006E-002    -1.0487783734780920E-011
   2.2800000000000001E-002    -2.4417000119293837E-010
   2.3100000000000002E-002     1.0625791392133514E-009
   2.3400000000000004E-002    -2.1109512800675984E-009
   2.3699999999999999E-002    -9.8318938542556110E-012
   2.4000000000000000E-002     1.1927070656810352E-008
   2.4300000000000002E-002    -2.7370033691653197E-008
   2.4599999999999997E-002    -2.8562698025597791E-009
   2.4900000000000005E-002     1.1843987606171781E-007
   2.5200000000000000E-002    -1.2557942521829936E-007
   2.5499999999999995E-002    -3.1828380462588969E-007
   2.5800000000000003E-002     5.1277557606530106E-007
   2.6099999999999998E-002     9.1239390516441096E-007
   2.6400000000000007E-002    -1.2147852936476267E-006
   2.6700000000000002E-002    -3.3296740099925478E-006
   2.6999999999999996E-002     1.2844585927228713E-006
   2.7300000000000005E-002     1.6458761367602818E-005
   2.7600000000000000E-002     3.8986259778552804E-005
   2.7900000000000008E-002     6.5057938108143993E-005
   2.8200000000000003E-002     9.8271347387685927E-005
   2.8499999999999998E-002     1.4953569787808877E-004
   2.8800000000000006E-002     2.3438733129144476E-004
   2.9100000000000001E-002     3.7051620078842537E-004
   2.9400000000000003E-002     5.7772000788228542E-004
   2.9700000000000004E-002     8.8412166279633331E-004
   3.0000000000000006E-002     1.3315179222085777E-003
   3.0300000000000001E-002     1.9784370261980502E-003
   3.0600000000000002E-002     2.9039717680573035E-003
   3.0900000000000004E-002     4.2097526077880809E-003
   3.1199999999999999E-002     6.0219259613026876E-003
   3.1500000000000007E-002     8.4935320452901308E-003
   3.1800000000000002E-002     1.1807271061763214E-002
   3.2099999999999997E-002     1.6176752529174943E-002
   3.2400000000000005E-002     2.1837421601225593E-002
   3.2700000000000000E-002     2.9032001717531175E-002
   3.3000000000000002E-002     3.7995616325724457E-002
   3.3300000000000003E-002     4.8931425129050243E-002
   3.3599999999999998E-002     6.1974112755214694E-002
   3.3900000000000000E-002     7.7140690331365835E-002
   3.4200000000000001E-002     9.4279558081733938E-002
   3.4500000000000003E-002    0.11301994687405514     
   3.4799999999999998E-002    0.13271072675235818     
   3.5099999999999999E-002    0.15237531351955180     
   3.5400000000000001E-002    0.17066824275407910     
   3.5699999999999996E-002    0.18587529864752650     
   3.6000000000000004E-002    0.19593067997374103     
   3.6299999999999999E-002    0.19847572800139890     
   3.6600000000000008E-002    0.19097434601927077     
   3.6900000000000002E-002    0.17087591512022549     
   3.7199999999999997E-002    0.13583968925369883     
   3.7500000000000006E-002     8.3985745994740846E-002
   3.7800000000000000E-002     1.4151433364705035E-002
   3.8100000000000009E-002    -7.3797241673870140E-002
   3.8400000000000004E-002   -0.17875366238663304     
   3.8699999999999998E-002   -0.29816033118756025     
   3.9000000000000007E-002   -0.42791108454349747     
   3.9300000000000002E-002   -0.56239693644319289     
   3.9600000000000003E-002   -0.69463575639797170     
   3.9900000000000005E-002   -0.81661360156591911     
   4.0200000000000000E-002   -0.91971385151910923     
   4.0500000000000001E-002   -0.99529988493365096     
   4.0800000000000003E-002    -1.0353769558042885     
   4.1100000000000005E-002    -1.0332481723486779     
   4.1399999999999999E-002   -0.98415889921398048     
   4.1700000000000008E-002   -0.88586711944820351     
   4.2000000000000003E-002   -0.73900765176512451     
   4.2299999999999997E-002   -0.54730138354518409     
   4.2600000000000006E-002   -0.31749849083160786     
   4.2900000000000001E-002    -5.9082984525978599E-002
   4.3200000000000002E-002    0.21620691520410151     
   4.3500000000000004E-002    0.49517653634200798     
   4.3799999999999999E-002    0.76395087195357192     
   4.4100000000000000E-002     1.0089372004360051     
   4.4400000000000002E-002     1.2177326329224130     
   4.4700000000000004E-002     1.3799344244880984     
   4.4999999999999998E-002     1.4878822792655697     
   4.5300000000000000E-002     1.5370013453842475     
   4.5600000000000002E-002     1.5261428652263902     
   4.5899999999999996E-002     1.4575304900298818     
   4.6200000000000005E-002     1.3364289803503837     
   4.6500000000000000E-002     1.1708006186973066     
   4.6799999999999994E-002    0.97053934643949447     
   4.7100000000000003E-002    0.74683042392169696     
   4.7399999999999998E-002    0.51136709652628731     
   4.7700000000000006E-002    0.27555407276709820     
   4.8000000000000001E-002     4.9949983031415623E-002
   4.8300000000000010E-002   -0.15642414899741208     
   4.8600000000000004E-002   -0.33637162713066537     
   4.8899999999999999E-002   -0.48478414270268821     
   4.9200000000000008E-002   -0.59874182100209339     
   4.9500000000000002E-002   -0.67739017826313486     
   4.9800000000000011E-002   -0.72170839053212532     
   5.0100000000000006E-002   -0.73434452661962268     
   5.0400000000000000E-002   -0.71911147879121629     
   5.0700000000000009E-002   -0.68069748478633230     
   5.1000000000000004E-002   -0.62431314842173435     
   5.1299999999999998E-002   -0.55521220529343829     
   5.1600000000000007E-002   -0.47855949747278714     
   5.1900000000000002E-002   -0.39908664621843926     
   5.2200000000000010E-002   -0.32087184117916223     
   5.2500000000000005E-002   -0.24734808346106085     
   5.2800000000000000E-002   -0.18105783451584401     
   5.3099999999999994E-002   -0.12376846219736315     
   5.3400000000000003E-002    -7.6489752034021308E-002
   5.3699999999999998E-002    -3.9426062383180138E-002
   5.4000000000000006E-002    -1.2261616952686960E-002
   5.4300000000000001E-002     5.8464497416413908E-003
   5.4599999999999996E-002     1.6044696219671306E-002
   5.4900000000000004E-002     1.9490836726152649E-002
   5.5199999999999999E-002     1.7337425213129608E-002
   5.5499999999999994E-002     1.0391064762683422E-002
   5.5800000000000002E-002    -1.0039374355692160E-003
   5.6099999999999997E-002    -1.6904517863027768E-002
   5.6400000000000006E-002    -3.8016844706975084E-002
   5.6700000000000000E-002    -6.5390059196626549E-002
   5.6999999999999995E-002   -0.10031923364142736     
   5.7300000000000004E-002   -0.14412826523537792     
   5.7599999999999998E-002   -0.19754615598357450     
   5.7900000000000007E-002   -0.26067829594503245     
   5.8200000000000002E-002   -0.33235635789541007     
   5.8499999999999996E-002   -0.40991442182418858     
   5.8800000000000005E-002   -0.48922179010693689     
   5.9100000000000000E-002   -0.56435435150829605     
   5.9400000000000008E-002   -0.62820765313487215     
   5.9700000000000003E-002   -0.67272017326006051     
   6.0000000000000012E-002   -0.68956448301129569     
   6.0300000000000006E-002   -0.67115145215999306     
   6.0600000000000001E-002   -0.61117451114703414     
   6.0900000000000010E-002   -0.50580986532012417     
   6.1200000000000004E-002   -0.35417492611489010     
   6.1500000000000013E-002   -0.15885019820047219     
   6.1800000000000008E-002     7.3730745162206901E-002
   6.2100000000000002E-002    0.33379640313000891     
   6.2399999999999997E-002    0.60835036772951767     
   6.2700000000000006E-002    0.88238094233807374     
   6.3000000000000000E-002     1.1398036944073482     
   6.3300000000000009E-002     1.3646805133655207     
   6.3600000000000004E-002     1.5426748790512619     
   6.3899999999999998E-002     1.6620283834162990     
   6.4199999999999993E-002     1.7146839972173140     
   6.4500000000000002E-002     1.6968528338818345     
   6.4800000000000010E-002     1.6092700170766747     
   6.5100000000000005E-002     1.4571753888575785     
   6.5400000000000000E-002     1.2496770304743237     
   6.5700000000000008E-002    0.99902593878130830     
   6.5999999999999989E-002    0.71943151200001232     
   6.6299999999999998E-002    0.42599805117529499     
   6.6600000000000006E-002    0.13350771278526530     
   6.6900000000000001E-002   -0.14462742834511921     
   6.7199999999999996E-002   -0.39715656753428341     
   6.7500000000000004E-002   -0.61572032413457833     
   6.7800000000000013E-002   -0.79489936901565628     
   6.8099999999999994E-002   -0.93235270912456869     
   6.8400000000000002E-002    -1.0284747465825461     
   6.8700000000000011E-002    -1.0856987847420285     
   6.8999999999999992E-002    -1.1082123391777969     
   6.9300000000000000E-002    -1.1009202239555904     
   6.9600000000000009E-002    -1.0690693610967728     
   6.9900000000000004E-002    -1.0176382552864105     
   7.0199999999999999E-002   -0.95098762667672787     
   7.0500000000000007E-002   -0.87280992034497018     
   7.0800000000000016E-002   -0.78606716201190707     
   7.1099999999999997E-002   -0.69321004413157539     
   7.1400000000000005E-002   -0.59645792593232017     
   7.1700000000000000E-002   -0.49807328863762734     
   7.1999999999999995E-002   -0.40050515142575804     
   7.2300000000000003E-002   -0.30673251162936221     
   7.2600000000000012E-002   -0.21998593888444296     
   7.2900000000000006E-002   -0.14380910305259142     
   7.3200000000000001E-002    -8.1709029675959277E-002
   7.3499999999999996E-002    -3.6478730303722562E-002
   7.3800000000000004E-002    -1.0214070925875118E-002
   7.4099999999999999E-002    -3.3638839687939320E-003
   7.4400000000000008E-002    -1.4795075003491143E-002
   7.4700000000000003E-002    -4.1542652448817385E-002
   7.5000000000000011E-002    -7.8558107738169181E-002
   7.5299999999999992E-002   -0.11962601716164789     
   7.5600000000000001E-002   -0.15703871774996436     
   7.5900000000000009E-002   -0.18284979763288778     
   7.6200000000000004E-002   -0.18947854224233485     
   7.6499999999999999E-002   -0.17017338796824522     
   7.6800000000000007E-002   -0.12033476949212396     
   7.7099999999999988E-002    -3.7494608838787968E-002
   7.7399999999999997E-002     7.7823881367632630E-002
   7.7700000000000005E-002    0.22211337625255112     
   7.8000000000000014E-002    0.38907440957948047     
   7.8299999999999995E-002    0.56967772776797787     
   7.8600000000000003E-002    0.75311620828113135     
   7.8900000000000012E-002    0.92729466292261620     
   7.9199999999999993E-002     1.0798261269504223     
   7.9500000000000001E-002     1.1989812325039253     
   7.9800000000000010E-002     1.2746278887953224     
   8.0100000000000018E-002     1.2990116578497393     
   8.0399999999999999E-002     1.2674942429761558     
   8.0700000000000008E-002     1.1790018336223085     
   8.1000000000000003E-002     1.0361005583788483     
   8.1299999999999997E-002    0.84522737407306892     
   8.1600000000000006E-002    0.61584792500689467     
   8.1900000000000014E-002    0.36025920438832859     
   8.2199999999999995E-002     9.2622078168783872E-002
   8.2500000000000004E-002   -0.17229986031107458     
   8.2799999999999999E-002   -0.41958335350935982     
   8.3100000000000007E-002   -0.63590535517642621     
   8.3400000000000002E-002   -0.81001033240005071     
   8.3700000000000011E-002   -0.93356255082568040     
   8.4000000000000005E-002    -1.0019784817424195     
   8.4300000000000000E-002    -1.0142090463058331     
   8.4599999999999995E-002   -0.97316202516315542     
   8.4900000000000003E-002   -0.88511261010994602     
   8.5199999999999998E-002   -0.75921669402238479     
   8.5500000000000007E-002   -0.60690931270888093     
   8.5800000000000001E-002   -0.44089077962716772     
   8.6100000000000010E-002   -0.27428035560949038     
   8.6399999999999991E-002   -0.11984685189810862     
   8.6699999999999999E-002     1.0839061417523888E-002
   8.7000000000000008E-002    0.10809185892613193     
   8.7300000000000003E-002    0.16440721358792532     
   8.7599999999999997E-002    0.17525385361452273     
   8.7900000000000006E-002    0.13875640727321681     
   8.8200000000000014E-002     5.6063404817841445E-002
   8.8499999999999995E-002    -6.8615591893864902E-002
   8.8800000000000004E-002   -0.22875883926613128     
   8.9100000000000013E-002   -0.41474481445136391     
   8.9399999999999993E-002   -0.61516680792561473     
   8.9700000000000002E-002   -0.81669904186775355     
   9.0000000000000011E-002    -1.0044291192860051     
   9.0299999999999991E-002    -1.1633575706464114     
   9.0600000000000000E-002    -1.2778068287462716     
   9.0900000000000009E-002    -1.3334850853598752     
   9.1200000000000017E-002    -1.3177166945356618     
   9.1499999999999998E-002    -1.2202361520707825     
   9.1800000000000007E-002    -1.0351676323818104     
   9.2100000000000001E-002   -0.76056468533685440     
   9.2399999999999996E-002   -0.40029462529866944     
   9.2700000000000005E-002     3.5990273890221136E-002
   9.3000000000000013E-002    0.53306230562822599     
   9.3300000000000008E-002     1.0695528684545650     
   9.3600000000000003E-002     1.6198566015670153     
   9.3899999999999997E-002     2.1544912500255435     
   9.4200000000000006E-002     2.6421850253081516     
   9.4500000000000001E-002     3.0522172239537895     
   9.4800000000000009E-002     3.3559799447207581     
   9.5100000000000004E-002     3.5299397444655654     
   9.5399999999999999E-002     3.5574132518648867     
   9.5699999999999993E-002     3.4300154582148537     
   9.6000000000000002E-002     3.1493371849875444     
   9.6300000000000011E-002     2.7267444035467605     
   9.6600000000000005E-002     2.1831631588220048     
   9.6900000000000000E-002     1.5479664032678713     
   9.7200000000000009E-002    0.85639789968051261     
   9.7499999999999989E-002    0.14736559308366814     
   9.7799999999999998E-002   -0.53972465984746876     
   9.8100000000000007E-002    -1.1684495034548306     
   9.8400000000000015E-002    -1.7077498299194716     
   9.8699999999999996E-002    -2.1351302079961840     
   9.9000000000000005E-002    -2.4378584078181404     
   9.9300000000000013E-002    -2.6139152632588036     
   9.9599999999999994E-002    -2.6719926279347845     
   9.9900000000000003E-002    -2.6295912398641548     
  0.10020000000000001         -2.5115751817669718     
  0.10049999999999999         -2.3466085878654326     
  0.10080000000000000         -2.1641606605997197     
  0.10110000000000001         -1.9914075982811568     
  0.10140000000000000         -1.8494660051295639     
  0.10170000000000000         -1.7519488132089904     
  0.10200000000000001         -1.7028481256331958     
  0.10230000000000002         -1.6963702370507860     
  0.10260000000000000         -1.7178553757654456     
  0.10290000000000001         -1.7450476013015574     
  0.10320000000000000         -1.7512240804956249     
  0.10350000000000001         -1.7080810700229208     
  0.10380000000000000         -1.5891421553415626     
  0.10410000000000001         -1.3731614017267475     
  0.10440000000000001         -1.0467949486317867     
  0.10470000000000000        -0.60653397174461077     
  0.10500000000000000         -6.0031767279378201E-002
  0.10530000000000000         0.57401637060174160     
  0.10560000000000000          1.2669289380820103     
  0.10590000000000001          1.9816950260134263     
  0.10620000000000000          2.6762794897235267     
  0.10650000000000001          3.3062413740438075     
  0.10679999999999999          3.8286453516974319     
  0.10710000000000000          4.2055484924539996     
  0.10740000000000001          4.4063835627008530     
  0.10770000000000000          4.4115954713351329     
  0.10800000000000000          4.2131492371201773     
  0.10830000000000001          3.8159697909461840     
  0.10859999999999999          3.2378079863772484     
  0.10890000000000000          2.5072365135735240     
  0.10920000000000001          1.6628583998145405     
  0.10950000000000001         0.74954764099408777     
  0.10979999999999999        -0.18411004343141846     
  0.11009999999999999         -1.0890458439158870     
  0.11040000000000001         -1.9194810353975171     
  0.11070000000000001         -2.6349189827789701     
  0.11100000000000000         -3.2033450477133556     
  0.11130000000000000         -3.6024639890210324     
  0.11160000000000002         -3.8202575655411266     
  0.11190000000000001         -3.8556737734368483     
  0.11220000000000001         -3.7174442674378270     
  0.11250000000000000         -3.4228319310383739     
  0.11280000000000000         -2.9962034310446199     
  0.11309999999999999         -2.4668434656509390     
  0.11340000000000001         -1.8668189246526516     
  0.11369999999999998         -1.2294340098725831     
  0.11400000000000000        -0.58706076088526515     
  0.11430000000000000          2.9841709230512770E-002
  0.11460000000000002         0.59378857445411093     
  0.11489999999999999          1.0814108018866975     
  0.11520000000000001          1.4730566776042693     
  0.11550000000000001          1.7540404578551971     
  0.11580000000000000          1.9143532352582113     
  0.11609999999999999          1.9486839459020047     
  0.11640000000000002          1.8574253576147655     
  0.11670000000000001          1.6457447575049500     
  0.11700000000000001          1.3247761053838332     
  0.11730000000000000         0.91127449016310891     
  0.11760000000000000         0.42711737730580879     
  0.11789999999999999        -0.10008737868524031     
  0.11820000000000001        -0.63904043149225309     
  0.11850000000000001         -1.1553785812146273     
  0.11880000000000000         -1.6134712473965465     
  0.11910000000000000         -1.9792699041275696     
  0.11940000000000002         -2.2215633608036001     
  0.11970000000000001         -2.3154362739845169     
  0.12000000000000001         -2.2441610826505283     
  0.12030000000000000         -2.0005595099225673     
  0.12060000000000000         -1.5893994274641088     
  0.12089999999999999         -1.0265015061235125     
  0.12119999999999999        -0.33896770982640589     
  0.12150000000000001         0.43607410037851579     
  0.12180000000000001          1.2549470089054253     
  0.12210000000000000          2.0687892973615689     
  0.12239999999999999          2.8280049685594690     
  0.12270000000000002          3.4854102873338775     
  0.12300000000000001          3.9988144770806997     
  0.12330000000000001          4.3351067482271048     
  0.12360000000000000          4.4708941516992127     
  0.12390000000000000          4.3947210057270070     
  0.12419999999999999          4.1075919497219360     
  0.12450000000000001          3.6216761854983588     
  0.12480000000000001          2.9606554704734407     
  0.12509999999999999          2.1569982179728555     
  0.12540000000000001          1.2503234439320785     
  0.12570000000000003         0.28596135879474005     
  0.12600000000000000        -0.68833927301586861     
  0.12630000000000002         -1.6237540158604347     
  0.12659999999999999         -2.4729518003376825     
  0.12690000000000001         -3.1925436566845491     
  0.12719999999999998         -3.7440982392830904     
  0.12750000000000000         -4.0972472139496006     
  0.12780000000000002         -4.2307318788997890     
  0.12809999999999999         -4.1341504551175063     
  0.12840000000000001         -3.8095757764043441     
  0.12869999999999998         -3.2716849877702856     
  0.12900000000000000         -2.5483131141657225     
  0.12930000000000003         -1.6796716514030905     
  0.12959999999999999        -0.71650898142820552     
  0.12990000000000002         0.28212099663447465     
  0.13019999999999998          1.2524776727032396     
  0.13050000000000000          2.1304049339685349     
  0.13080000000000003          2.8557021661271591     
  0.13109999999999999          3.3768158418159402     
  0.13140000000000002          3.6552586840794703     
  0.13169999999999998          3.6689029248870071     
  0.13200000000000001          3.4146496179755843     
  0.13229999999999997          2.9091717344618857     
  0.13260000000000000          2.1882214871597796     
  0.13290000000000002          1.3045197477165758     
  0.13319999999999999         0.32331557240792463     
  0.13350000000000001        -0.68186472895608219     
  0.13380000000000003         -1.6354983439229187     
  0.13410000000000000         -2.4664789124137343     
  0.13440000000000002         -3.1128142415301028     
  0.13469999999999999         -3.5280323173344357     
  0.13500000000000001         -3.6839689860735518     
  0.13529999999999998         -3.5731322373838594     
  0.13560000000000000         -3.2096588521554068     
  0.13590000000000002         -2.6267261068330470     
  0.13619999999999999         -1.8748684000911227     
  0.13650000000000001         -1.0165813389375913     
  0.13680000000000003        -0.12109469044789734     
  0.13710000000000000         0.74047262946618986     
  0.13740000000000002          1.5026522767347714     
  0.13769999999999999          2.1096140752197954     
  0.13800000000000001          2.5196518759676962     
  0.13829999999999998          2.7089542696270996     
  0.13860000000000000          2.6717545911542118     
  0.13890000000000002          2.4214613576665514     
  0.13919999999999999          1.9878902169770996     
  0.13950000000000001          1.4142252800828312     
  0.13979999999999998         0.75369973623158160     
  0.14010000000000000          6.3239325022042436E-002
  0.14040000000000002        -0.60073473617493356     
  0.14069999999999999         -1.1875789236745788     
  0.14100000000000001         -1.6571352163094488     
  0.14130000000000004         -1.9817958794148325     
  0.14160000000000000         -2.1494919088060342     
  0.14189999999999997         -2.1634915133188670     
  0.14219999999999999         -2.0411183475861208     
  0.14250000000000002         -1.8121108589131225     
  0.14279999999999998         -1.5138308696006249     
  0.14310000000000000         -1.1878986604387087     
  0.14339999999999997        -0.87514729661765500     
  0.14369999999999999        -0.61106059008484870     
  0.14400000000000002        -0.42294634376625950     
  0.14429999999999998        -0.32599109706283258     
  0.14460000000000001        -0.32289635212407042     
  0.14490000000000003        -0.40345200453622887     
  0.14520000000000000        -0.54566986601362721     
  0.14550000000000002        -0.71954196591378050     
  0.14579999999999999        -0.88957520441075388     
  0.14610000000000001         -1.0198368949561782     
  0.14640000000000003         -1.0778084532124836     
  0.14670000000000000         -1.0382860677644388     
  0.14699999999999996        -0.88694950500678793     
  0.14729999999999999        -0.62117069756171972     
  0.14760000000000001        -0.25143245857526431     
  0.14789999999999998         0.20012283520942109     
  0.14820000000000000         0.70207177331948856     