  -1.4999999999999999E-002     0.0000000000000000     
  -1.4700000000000000E-002     0.0000000000000000     
  -1.4400000000000000E-002     0.0000000000000000     
  -1.4100000000000000E-002     0.0000000000000000     
  -1.3800000000000000E-002     0.0000000000000000     
  -1.3500000000000000E-002     0.0000000000000000     
  -1.3200000000000000E-002    -1.6252725941368156E-037
  -1.2899999999999998E-002     1.8043192566789752E-035
  -1.2600000000000000E-002    -1.1127106465318922E-033
  -1.2299999999999998E-002     7.6403775297709152E-033
  -1.2000000000000000E-002    -1.3177482690549852E-033
  -1.1699999999999999E-002     4.1682361999367048E-031
  -1.1399999999999999E-002     1.2242874850367843E-029
  -1.1099999999999999E-002    -2.8829977190911401E-028
  -1.0799999999999999E-002     1.2182566159718680E-029
  -1.0499999999999999E-002     5.2297749415780749E-026
  -1.0199999999999999E-002    -7.5983693758089403E-025
  -9.8999999999999991E-003     5.8588928200427061E-024
  -9.5999999999999992E-003    -2.7916872357121551E-023
  -9.2999999999999992E-003     7.9267659386512963E-023
  -8.9999999999999993E-003    -7.3302583522044793E-023
  -8.6999999999999994E-003    -5.1695405649002642E-022
  -8.3999999999999995E-003     3.5497987467444354E-021
  -8.0999999999999996E-003    -1.4038980442083877E-020
  -7.7999999999999988E-003     4.1207094351231585E-020
  -7.4999999999999997E-003    -9.2598927542704750E-020
  -7.1999999999999998E-003     1.6688757891639175E-019
  -6.8999999999999981E-003    -3.2519869074789228E-019
  -6.5999999999999982E-003     1.0794233432916325E-018
  -6.3000000000000000E-003    -4.0509127363671524E-018
  -6.0000000000000001E-003     9.8688445613670198E-018
  -5.6999999999999985E-003    -4.0506203280206149E-018
  -5.3999999999999986E-003    -7.3675183832530160E-017
  -5.1000000000000004E-003     3.4200215206901417E-016
  -4.7999999999999987E-003    -8.8156637463473976E-016
  -4.5000000000000005E-003     1.4342402320042386E-015
  -4.1999999999999989E-003    -9.3096226562417676E-016
  -3.8999999999999990E-003    -2.7356411339235324E-015
  -3.5999999999999990E-003     1.1720564297747205E-014
  -3.2999999999999991E-003    -2.5167161513432387E-014
  -2.9999999999999992E-003     3.4931276214665921E-014
  -2.6999999999999993E-003    -2.3999089526641551E-014
  -2.3999999999999994E-003    -2.5291516114484686E-014
  -2.0999999999999977E-003     1.0921192877995367E-013
  -1.7999999999999995E-003    -1.8359818602497330E-013
  -1.4999999999999979E-003     1.8980864514676898E-013
  -1.1999999999999997E-003    -1.3811530857801152E-013
  -8.9999999999999976E-004     1.4358270974089427E-013
  -5.9999999999999810E-004    -2.3965519239249611E-013
  -2.9999999999999992E-004     6.1259550492194503E-014
   0.0000000000000000          9.8529897348681450E-013
   3.0000000000000165E-004    -2.6410618483851955E-012
   5.9999999999999984E-004     2.9778714216721625E-012
   9.0000000000000149E-004    -1.2095500382530711E-013
   1.2000000000000031E-003    -3.9946869596907408E-012
   1.5000000000000013E-003     4.1195259009585428E-012
   1.8000000000000030E-003    -3.0479945824224419E-012
   2.1000000000000012E-003     2.5241232715078610E-011
   2.3999999999999994E-003    -9.0506484251573482E-011
   2.7000000000000010E-003     6.8450814461051834E-011
   2.9999999999999992E-003     5.6829985162210050E-010
   3.3000000000000008E-003    -2.3718882413703568E-009
   3.6000000000000025E-003     3.0321900545970948E-009
   3.9000000000000007E-003     6.7725727248557632E-009
   4.2000000000000023E-003    -3.1448159631963790E-008
   4.5000000000000005E-003     2.3450830610727280E-008
   4.7999999999999987E-003     1.0611969258889076E-007
   5.1000000000000004E-003    -2.1047085851932934E-007
   5.4000000000000020E-003    -2.7551459425012581E-007
   5.7000000000000037E-003     7.8107836998242419E-007
   5.9999999999999984E-003     9.9504109130066354E-007
   6.3000000000000000E-003    -2.2069782517064596E-006
   6.6000000000000017E-003    -4.5367833081400022E-006
   6.9000000000000034E-003     7.1624476731813047E-006
   7.2000000000000015E-003     4.4189662730786949E-005
   7.5000000000000032E-003     1.0905119415838271E-004
   7.8000000000000014E-003     2.0580904674716294E-004
   8.0999999999999996E-003     3.4884610795415938E-004
   8.4000000000000012E-003     5.6410138495266438E-004
   8.7000000000000029E-003     8.9034135453402996E-004
   9.0000000000000011E-003     1.3794392580166459E-003
   9.2999999999999992E-003     2.1089024376124144E-003
   9.6000000000000009E-003     3.1994658056646585E-003
   9.8999999999999991E-003     4.8187179490923882E-003
   1.0200000000000001E-002     7.1881636977195740E-003
   1.0500000000000002E-002     1.0597259737551212E-002
   1.0800000000000004E-002     1.5415556728839874E-002
   1.1099999999999999E-002     2.2108012810349464E-002
   1.1400000000000000E-002     3.1250864267349243E-002
   1.1700000000000002E-002     4.3546352535486221E-002
   1.2000000000000004E-002     5.9805296361446381E-002
   1.2300000000000002E-002     8.0904230475425720E-002
   1.2600000000000000E-002    0.10775005072355270     
   1.2900000000000002E-002    0.14120329916477203     
   1.3200000000000000E-002    0.18196368217468262     
   1.3500000000000002E-002    0.23043017089366913     
   1.3800000000000003E-002    0.28649970889091492     
   1.4100000000000001E-002    0.34934654831886292     
   1.4400000000000000E-002    0.41715690493583679     
   1.4700000000000001E-002    0.48689004778862000     
   1.4999999999999999E-002    0.55404925346374512     
   1.5300000000000001E-002    0.61253231763839722     
   1.5600000000000003E-002    0.65456694364547729     
   1.5899999999999997E-002    0.67081111669540405     
   1.6199999999999999E-002    0.65065085887908936     
   1.6500000000000001E-002    0.58271867036819458     
   1.6800000000000002E-002    0.45569539070129395     
   1.7100000000000004E-002    0.25938186049461365     
   1.7400000000000006E-002    -1.4121179468929768E-002
   1.7700000000000000E-002   -0.36903589963912964     
   1.8000000000000002E-002   -0.80450814962387085     
   1.8300000000000004E-002    -1.3133343458175659     
   1.8600000000000005E-002    -1.8808777332305908     
   1.8900000000000000E-002    -2.4846572875976562     
   1.9200000000000002E-002    -3.0943758487701416     
   1.9500000000000003E-002    -3.6729950904846191     
   1.9799999999999998E-002    -4.1782579421997070     
   2.0100000000000000E-002    -4.5651488304138184     
   2.0400000000000001E-002    -4.7890968322753906     
   2.0700000000000003E-002    -4.8095369338989258     
   2.0999999999999998E-002    -4.5936665534973145     
   2.1299999999999999E-002    -4.1202301979064941     
   2.1600000000000001E-002    -3.3824656009674072     
   2.1900000000000003E-002    -2.3903660774230957     
   2.2200000000000004E-002    -1.1716021299362183     
   2.2500000000000006E-002    0.22921574115753174     
   2.2800000000000001E-002     1.7516046762466431     
   2.3100000000000002E-002     3.3237748146057129     
   2.3400000000000004E-002     4.8660778999328613     
   2.3699999999999999E-002     6.2966775894165039     
   2.4000000000000000E-002     7.5375032424926758     
   2.4300000000000002E-002     8.5187425613403320     
   2.4599999999999997E-002     9.1850423812866211     
   2.4900000000000005E-002     9.4978046417236328     
   2.5200000000000000E-002     9.4384984970092773     
   2.5499999999999995E-002     9.0091285705566406     
   2.5800000000000003E-002     8.2307262420654297     
   2.6099999999999998E-002     7.1427483558654785     
   2.6400000000000007E-002     5.7981500625610352     
   2.6700000000000002E-002     4.2601814270019531     
   2.6999999999999996E-002     2.5980782508850098     
   2.7300000000000005E-002    0.88251578807830811     
   2.7600000000000000E-002   -0.81754148006439209     
   2.7900000000000008E-002    -2.4386768341064453     
   2.8200000000000003E-002    -3.9242637157440186     
   2.8499999999999998E-002    -5.2265686988830566     
   2.8800000000000006E-002    -6.3065452575683594     
   2.9100000000000001E-002    -7.1349620819091797     
   2.9400000000000003E-002    -7.6905550956726074     
   2.9700000000000004E-002    -7.9611582756042480     
   3.0000000000000006E-002    -7.9429287910461426     
   3.0300000000000001E-002    -7.6399822235107422     
   3.0600000000000002E-002    -7.0657196044921875     
   3.0900000000000004E-002    -6.2416782379150391     
   3.1199999999999999E-002    -5.1997189521789551     
   3.1500000000000007E-002    -3.9804787635803223     
   3.1800000000000002E-002    -2.6342790126800537     
   3.2099999999999997E-002    -1.2194739580154419     
   3.2400000000000005E-002    0.20024907588958740     
   3.2700000000000000E-002     1.5571656227111816     
   3.3000000000000002E-002     2.7849056720733643     
   3.3300000000000003E-002     3.8210911750793457     
   3.3599999999999998E-002     4.6129555702209473     
   3.3900000000000000E-002     5.1205272674560547     
   3.4200000000000001E-002     5.3199939727783203     
   3.4500000000000003E-002     5.2069621086120605     
   3.4799999999999998E-002     4.7953200340270996     
   3.5099999999999999E-002     4.1183066368103027     
   3.5400000000000001E-002     3.2246394157409668     
   3.5699999999999996E-002     2.1754899024963379     
   3.6000000000000004E-002     1.0391618013381958     
   3.6299999999999999E-002   -0.11513063311576843     
   3.6600000000000008E-002    -1.2211129665374756     
   3.6900000000000002E-002    -2.2234022617340088     
   3.7199999999999997E-002    -3.0789732933044434     
   3.7500000000000006E-002    -3.7615721225738525     
   3.7800000000000000E-002    -4.2622756958007812     
   3.8100000000000009E-002    -4.5878052711486816     
   3.8400000000000004E-002    -4.7598223686218262     
   3.8699999999999998E-002    -4.8083753585815430     
   3.9000000000000007E-002    -4.7698688507080078     
   3.9300000000000002E-002    -4.6796607971191406     
   3.9600000000000003E-002    -4.5679082870483398     
   3.9900000000000005E-002    -4.4558625221252441     
   4.0200000000000000E-002    -4.3511581420898438     
   4.0500000000000001E-002    -4.2486844062805176     
   4.0800000000000003E-002    -4.1287865638732910     
   4.1100000000000005E-002    -3.9617328643798828     
   4.1399999999999999E-002    -3.7091898918151855     
   4.1700000000000008E-002    -3.3298077583312988     
   4.2000000000000003E-002    -2.7857248783111572     
   4.2299999999999997E-002    -2.0450158119201660     
   4.2600000000000006E-002    -1.0896279811859131     
   4.2900000000000001E-002     8.3687745034694672E-002
   4.3200000000000002E-002     1.4596569538116455     
   4.3500000000000004E-002     3.0054526329040527     
   4.3799999999999999E-002     4.6716694831848145     
   4.4100000000000000E-002     6.3931446075439453     
   4.4400000000000002E-002     8.0969963073730469     
   4.4700000000000004E-002     9.7028656005859375     
   4.4999999999999998E-002     11.131588935852051     
   4.5300000000000000E-002     12.307870864868164     
   4.5600000000000002E-002     13.164599418640137     
   4.5899999999999996E-002     13.648636817932129     
   4.6200000000000005E-002     13.718541145324707     
   4.6500000000000000E-002     13.352483749389648     
   4.6799999999999994E-002     12.543306350708008     
   4.7100000000000003E-002     11.300410270690918     
   4.7399999999999998E-002     9.6507587432861328     
   4.7700000000000006E-002     7.6349434852600098     
   4.8000000000000001E-002     5.3090720176696777     
   4.8300000000000010E-002     2.7403979301452637     
   4.8600000000000004E-002     9.2919021844863892E-003
   4.8899999999999999E-002    -2.7960834503173828     
   4.9200000000000008E-002    -5.5795302391052246     
   4.9500000000000002E-002    -8.2399168014526367     
   4.9800000000000011E-002    -10.676403999328613     
   5.0100000000000006E-002    -12.789295196533203     
   5.0400000000000000E-002    -14.487163543701172     
   5.0700000000000009E-002    -15.690095901489258     
   5.1000000000000004E-002    -16.336511611938477     
   5.1299999999999998E-002    -16.386940002441406     
   5.1600000000000007E-002    -15.827524185180664     
   5.1900000000000002E-002    -14.675544738769531     
   5.2200000000000010E-002    -12.977687835693359     
   5.2500000000000005E-002    -10.811705589294434     
   5.2800000000000000E-002    -8.2840576171875000     
   5.3099999999999994E-002    -5.5231490135192871     
   5.3400000000000003E-002    -2.6747696399688721     
   5.3699999999999998E-002    0.10915817320346832     
   5.4000000000000006E-002     2.6780419349670410     
   5.4300000000000001E-002     4.8943476676940918     
   5.4599999999999996E-002     6.6444172859191895     
   5.4900000000000004E-002     7.8443083763122559     
   5.5199999999999999E-002     8.4499368667602539     
   5.5499999999999994E-002     8.4576721191406250     
   5.5800000000000002E-002     7.9074592590332031     
   5.6099999999999997E-002     6.8792052268981934     
   5.6400000000000006E-002     5.4856176376342773     
   5.6700000000000000E-002     3.8645524978637695     
   5.6999999999999995E-002     2.1657664775848389     
   5.7300000000000004E-002    0.54103469848632812     
   5.7599999999999998E-002   -0.87089908123016357     
   5.7900000000000007E-002    -1.9545204639434814     
   5.8200000000000002E-002    -2.6267864704132080     
   5.8499999999999996E-002    -2.8446524143218994     
   5.8800000000000005E-002    -2.6062042713165283     
   5.9100000000000000E-002    -1.9506779909133911     
   5.9400000000000008E-002   -0.95146620273590088     
   5.9700000000000003E-002    0.28963381052017212     
   6.0000000000000012E-002     1.6556209325790405     
   6.0300000000000006E-002     3.0246562957763672     
   6.0600000000000001E-002     4.2815251350402832     
   6.0900000000000010E-002     5.3307080268859863     
   6.1200000000000004E-002     6.1003360748291016     
   6.1500000000000013E-002     6.5521025657653809     
   6.1800000000000008E-002     6.6777296066284180     
   6.2100000000000002E-002     6.5004005432128906     
   6.2399999999999997E-002     6.0693187713623047     
   6.2700000000000006E-002     5.4481039047241211     
   6.3000000000000000E-002     4.7128300666809082     
   6.3300000000000009E-002     3.9359064102172852     
   6.3600000000000004E-002     3.1830980777740479     
   6.3899999999999998E-002     2.5060772895812988     
   6.4199999999999993E-002     1.9369802474975586     
   6.4500000000000002E-002     1.4909094572067261     
   6.4800000000000010E-002     1.1620565652847290     
   6.5100000000000005E-002    0.93280053138732910     
   6.5400000000000000E-002    0.77342927455902100     
   6.5700000000000008E-002    0.64825236797332764     
   6.5999999999999989E-002    0.52217251062393188     
   6.6299999999999998E-002    0.36031422019004822     
   6.6600000000000006E-002    0.13367436826229095     
   6.6900000000000001E-002   -0.18144218623638153     
   6.7199999999999996E-002   -0.60032248497009277     
   6.7500000000000004E-002    -1.1337815523147583     
   6.7800000000000013E-002    -1.7867796421051025     
   6.8099999999999994E-002    -2.5568637847900391     
   6.8400000000000002E-002    -3.4366734027862549     
   6.8700000000000011E-002    -4.4105286598205566     
   6.8999999999999992E-002    -5.4568381309509277     
   6.9300000000000000E-002    -6.5455222129821777     
   6.9600000000000009E-002    -7.6407742500305176     
   6.9900000000000004E-002    -8.7020339965820312     
   7.0199999999999999E-002    -9.6862831115722656     
   7.0500000000000007E-002    -10.556641578674316     
   7.0800000000000016E-002    -11.283034324645996     
   7.1099999999999997E-002    -11.848269462585449     
   7.1400000000000005E-002    -12.251407623291016     
   7.1700000000000000E-002    -12.506965637207031     
   7.1999999999999995E-002    -12.644027709960938     
   7.2300000000000003E-002    -12.696364402770996     
   7.2600000000000012E-002    -12.696716308593750     
   7.2900000000000006E-002    -12.663193702697754     
   7.3200000000000001E-002    -12.586668968200684     
   7.3499999999999996E-002    -12.424306869506836     
   7.3800000000000004E-002    -12.090274810791016     
   7.4099999999999999E-002    -11.457047462463379     
   7.4400000000000008E-002    -10.364377975463867     
   7.4700000000000003E-002    -8.6316556930541992     
   7.5000000000000011E-002    -6.0815753936767578     
   7.5299999999999992E-002    -2.5648863315582275     
   7.5600000000000001E-002     2.0092611312866211     
   7.5900000000000009E-002     7.6481714248657227     
   7.6200000000000004E-002     14.253189086914062     
   7.6499999999999999E-002     21.607288360595703     
   7.6800000000000007E-002     29.374732971191406     
   7.7099999999999988E-002     37.112003326416016     
   7.7399999999999997E-002     44.296890258789062     
   7.7700000000000005E-002     50.360656738281250     
   7.8000000000000014E-002     54.741588592529297     
   7.8299999999999995E-002     56.930122375488281     
   7.8600000000000003E-002     56.521972656250000     
   7.8900000000000012E-002     53.265399932861328     
   7.9199999999999993E-002     47.090156555175781     
   7.9500000000000001E-002     38.134464263916016     
   7.9800000000000010E-002     26.740385055541992     
   8.0100000000000018E-002     13.442627906799316     
   8.0399999999999999E-002    -1.0671451091766357     
   8.0700000000000008E-002    -15.988522529602051     
   8.1000000000000003E-002    -30.467517852783203     
   8.1299999999999997E-002    -43.665027618408203     
   8.1600000000000006E-002    -54.817302703857422     
   8.1900000000000014E-002    -63.293880462646484     
   8.2199999999999995E-002    -68.638290405273438     
   8.2500000000000004E-002    -70.607330322265625     
   8.2799999999999999E-002    -69.172454833984375     
   8.3100000000000007E-002    -64.524047851562500     
   8.3400000000000002E-002    -57.045398712158203     
   8.3700000000000011E-002    -47.271976470947266     
   8.4000000000000005E-002    -35.857410430908203     
   8.4300000000000000E-002    -23.507213592529297     
   8.4599999999999995E-002    -10.937805175781250     
   8.4900000000000003E-002     1.1747813224792480     
   8.5199999999999998E-002     12.243904113769531     
   8.5500000000000007E-002     21.787055969238281     
   8.5800000000000001E-002     29.463844299316406     
   8.6100000000000010E-002     35.070701599121094     
   8.6399999999999991E-002     38.542133331298828     
   8.6699999999999999E-002     39.942436218261719     
   8.7000000000000008E-002     39.437889099121094     
   8.7300000000000003E-002     37.285053253173828     
   8.7599999999999997E-002     33.791305541992188     
   8.7900000000000006E-002     29.299961090087891     
   8.8200000000000014E-002     24.161706924438477     
   8.8499999999999995E-002     18.714138031005859     
   8.8800000000000004E-002     13.264630317687988     
   8.9100000000000013E-002     8.0762119293212891     
   8.9399999999999993E-002     3.3629548549652100     
   8.9700000000000002E-002   -0.72228348255157471     
   9.0000000000000011E-002    -4.0778918266296387     
   9.0299999999999991E-002    -6.6621422767639160     
   9.0600000000000000E-002    -8.4808673858642578     
   9.0900000000000009E-002    -9.5810489654541016     
   9.1200000000000017E-002    -10.044815063476562     
   9.1499999999999998E-002    -9.9727535247802734     
   9.1800000000000007E-002    -9.4849815368652344     
   9.2100000000000001E-002    -8.6968078613281250     
   9.2399999999999996E-002    -7.7203078269958496     
   9.2700000000000005E-002    -6.6583251953125000     
   9.3000000000000013E-002    -5.5884847640991211     
   9.3300000000000008E-002    -4.5766663551330566     
   9.3600000000000003E-002    -3.6608765125274658     
   9.3899999999999997E-002    -2.8658645153045654     
   9.4200000000000006E-002    -2.2001464366912842     
   9.4500000000000001E-002    -1.6563134193420410     
   9.4800000000000009E-002    -1.2267924547195435     
   9.5100000000000004E-002   -0.89246958494186401     
   9.5399999999999999E-002   -0.63989078998565674     
   9.5699999999999993E-002   -0.45415559411048889     
   9.6000000000000002E-002   -0.32076275348663330     
   9.6300000000000011E-002   -0.23051032423973083     
   9.6600000000000005E-002   -0.17133700847625732     
   9.6900000000000000E-002   -0.13863913714885712     
   9.7200000000000009E-002   -0.12056312710046768     
   9.7499999999999989E-002   -0.11089380830526352     
   9.7799999999999998E-002   -0.10092221200466156     
   9.8100000000000007E-002    -8.3169311285018921E-002
   9.8400000000000015E-002    -5.3161866962909698E-002
   9.8699999999999996E-002    -5.0511294975876808E-003
   9.9000000000000005E-002     5.6677736341953278E-002
   9.9300000000000013E-002    0.13266640901565552     
   9.9599999999999994E-002    0.21357823908329010     
   9.9900000000000003E-002    0.29252499341964722     
  0.10020000000000001         0.36329728364944458     
  0.10049999999999999         0.41342002153396606     
  0.10080000000000000         0.44260478019714355     
  0.10110000000000001         0.44452598690986633     
  0.10140000000000000         0.42561298608779907     
  0.10170000000000000         0.39013975858688354     
  0.10200000000000001         0.34388166666030884     
  0.10230000000000002         0.30055487155914307     
  0.10260000000000000         0.26433017849922180     
  0.10290000000000001         0.24609133601188660     
  0.10320000000000000         0.24801376461982727     
  0.10350000000000001         0.26943108439445496     
  0.10380000000000000         0.30954506993293762     
  0.10410000000000001         0.35797038674354553     
  0.10440000000000001         0.40985614061355591     
  0.10470000000000000         0.45371061563491821     
  0.10500000000000000         0.48351591825485229     
  0.10530000000000000         0.49427309632301331     
  0.10560000000000000         0.48192062973976135     
  0.10590000000000001         0.45002394914627075     
  0.10620000000000000         0.40052133798599243     
  0.10650000000000001         0.34180745482444763     
  0.10679999999999999         0.27905100584030151     
  0.10710000000000000         0.21932022273540497     
  0.10740000000000001         0.16915647685527802     
  0.10770000000000000         0.13042065501213074     
  0.10800000000000000         0.10552584379911423     
  0.10830000000000001          8.9891672134399414E-002
  0.10859999999999999          8.2972109317779541E-002
  0.10890000000000000          7.8370742499828339E-002
  0.10920000000000001          7.3315270245075226E-002
  0.10950000000000001          6.4529433846473694E-002
  0.10979999999999999          4.8792928457260132E-002
  0.11009999999999999          2.9895419254899025E-002
  0.11040000000000001          7.0087281055748463E-003
  0.11070000000000001         -1.2760045006871223E-002
  0.11100000000000000         -2.7573695406317711E-002
  0.11130000000000000         -3.2561957836151123E-002
  0.11160000000000002         -2.2642761468887329E-002
  0.11190000000000001         -2.4507683701813221E-003
  0.11220000000000001          3.0923768877983093E-002
  0.11250000000000000          6.8076319992542267E-002
  0.11280000000000000         0.10502952337265015     
  0.11309999999999999         0.13365514576435089     
  0.11340000000000001         0.14343200623989105     
  0.11369999999999998         0.13403469324111938     
  0.11400000000000000          9.5611639320850372E-002
  0.11430000000000000          3.4700967371463776E-002
  0.11460000000000002         -4.6321563422679901E-002
  0.11489999999999999        -0.14060504734516144     
  0.11520000000000001        -0.23229852318763733     
  0.11550000000000001        -0.31510725617408752     
  0.11580000000000000        -0.37161245942115784     
  0.11609999999999999        -0.39703348278999329     
  0.11640000000000002        -0.38513910770416260     
  0.11670000000000001        -0.33466380834579468     
  0.11700000000000001        -0.25563579797744751     
  0.11730000000000000        -0.15426830947399139     
  0.11760000000000000         -4.8199266195297241E-002
  0.11789999999999999          4.8250950872898102E-002
  0.11820000000000001         0.11837358772754669     
  0.11850000000000001         0.15048560500144958     
  0.11880000000000000         0.13939067721366882     
  0.11910000000000000          8.3722665905952454E-002
  0.11940000000000002         -7.8155826777219772E-003
  0.11970000000000001        -0.12373416125774384     
  0.12000000000000001        -0.24331608414649963     
  0.12030000000000000        -0.34820374846458435     
  0.12060000000000000        -0.41684845089912415     
  0.12089999999999999        -0.43467476963996887     
  0.12119999999999999        -0.39519456028938293     
  0.12150000000000001        -0.29449138045310974     
  0.12180000000000001        -0.14779518544673920     
  0.12210000000000000          3.0048299580812454E-002
  0.12239999999999999         0.21109983325004578     
  0.12270000000000002         0.36545893549919128     
  0.12300000000000001         0.46907064318656921     
  0.12330000000000001         0.49269223213195801     
  0.12360000000000000         0.42863973975181580     
  0.12390000000000000         0.27187725901603699     
  0.12419999999999999          3.4797087311744690E-002
  0.12450000000000001        -0.25331866741180420     
  0.12480000000000001        -0.56068706512451172     
  0.12509999999999999        -0.83686912059783936     
  0.12540000000000001         -1.0407198667526245     
  0.12570000000000003         -1.1297857761383057     
  0.12600000000000000         -1.0733151435852051     
  0.12630000000000002        -0.85880297422409058     
  0.12659999999999999        -0.48609086871147156     
  0.12690000000000001          1.6400972381234169E-002
  0.12719999999999998         0.60903847217559814     
  0.12750000000000000          1.2326310873031616     
  0.12780000000000002          1.8226505517959595     
  0.12809999999999999          2.3132078647613525     
  0.12840000000000001          2.6417846679687500     
  0.12869999999999998          2.7644782066345215     
  0.12900000000000000          2.6494634151458740     
  0.12930000000000003          2.2964901924133301     
  0.12959999999999999          1.7208702564239502     
  0.12990000000000002         0.96533167362213135     
  0.13019999999999998          9.1425135731697083E-002
  0.13050000000000000        -0.83382534980773926     
  0.13080000000000003         -1.7280123233795166     
  0.13109999999999999         -2.5228145122528076     
  0.13140000000000002         -3.1490132808685303     
  0.13169999999999998         -3.5583000183105469     
  0.13200000000000001         -3.7234637737274170     
  0.13229999999999997         -3.6297297477722168     
  0.13260000000000000         -3.2961034774780273     
  0.13290000000000002         -2.7483913898468018     
  0.13319999999999999         -2.0355455875396729     
  0.13350000000000001         -1.2143388986587524     
  0.13380000000000003        -0.34294071793556213     
  0.13410000000000000         0.51362937688827515     
  0.13440000000000002          1.3033075332641602     
  0.13469999999999999          1.9754846096038818     
  0.13500000000000001          2.4963743686676025     
  0.13529999999999998          2.8437061309814453     
  0.13560000000000000          3.0071434974670410     
  0.13590000000000002          2.9915843009948730     
  0.13619999999999999          2.8091232776641846     
  0.13650000000000001          2.4855916500091553     
  0.13680000000000003          2.0481162071228027     
  0.13710000000000000          1.5337877273559570     
  0.13740000000000002         0.97655117511749268     
  0.13769999999999999         0.41215339303016663     
  0.13800000000000001        -0.12430417537689209     
  0.13829999999999998        -0.60936522483825684     
  0.13860000000000000         -1.0142911672592163     
  0.13890000000000002         -1.3272639513015747     
  0.13919999999999999         -1.5358488559722900     
  0.13950000000000001         -1.6367564201354980     
  0.13979999999999998         -1.6389777660369873     
  0.14010000000000000         -1.5464125871658325     
  0.14040000000000002         -1.3814078569412231     
  0.14069999999999999         -1.1573573350906372     
  0.14100000000000001        -0.89598995447158813     
  0.14130000000000004        -0.62086093425750732     
  0.14160000000000000        -0.34589213132858276     
  0.14189999999999997         -9.4238460063934326E-002
  0.14219999999999999         0.12674205005168915     
  0.14250000000000002         0.30493655800819397     
  0.14279999999999998         0.43735104799270630     
  0.14310000000000000         0.52605062723159790     
  0.14339999999999997         0.56957894563674927     
  0.14369999999999999         0.57901120185852051     
  0.14400000000000002         0.55677437782287598     
  0.14429999999999998         0.51401978731155396     
  0.14460000000000001         0.45599931478500366     
  0.14490000000000003         0.38849037885665894     
  0.14520000000000000         0.31931045651435852     
  0.14550000000000002         0.24709728360176086     
  0.14579999999999999         0.17924274504184723     
  0.14610000000000001         0.11224264651536942     
  0.14640000000000003          5.0141267478466034E-002
  0.14670000000000000         -5.9207631275057793E-003
  0.14699999999999996         -5.6712031364440918E-002
  0.14729999999999999         -9.6290670335292816E-002
  0.14760000000000001        -0.12918551266193390     
  0.14789999999999998        -0.14806152880191803     
  0.14820000000000000        -0.15589332580566406     