  -1.4999999999999999E-002     0.0000000000000000     
  -1.4700000000000000E-002     0.0000000000000000     
  -1.4400000000000000E-002     0.0000000000000000     
  -1.4100000000000000E-002     0.0000000000000000     
  -1.3800000000000000E-002     0.0000000000000000     
  -1.3500000000000000E-002     0.0000000000000000     
  -1.3200000000000000E-002     0.0000000000000000     
  -1.2899999999999998E-002     0.0000000000000000     
  -1.2600000000000000E-002     0.0000000000000000     
  -1.2299999999999998E-002     0.0000000000000000     
  -1.2000000000000000E-002     0.0000000000000000     
  -1.1699999999999999E-002     0.0000000000000000     
  -1.1399999999999999E-002     0.0000000000000000     
  -1.1099999999999999E-002     0.0000000000000000     
  -1.0799999999999999E-002     0.0000000000000000     
  -1.0499999999999999E-002     0.0000000000000000     
  -1.0199999999999999E-002     0.0000000000000000     
  -9.8999999999999991E-003     0.0000000000000000     
  -9.5999999999999992E-003     0.0000000000000000     
  -9.2999999999999992E-003     0.0000000000000000     
  -8.9999999999999993E-003     0.0000000000000000     
  -8.6999999999999994E-003     0.0000000000000000     
  -8.3999999999999995E-003     0.0000000000000000     
  -8.0999999999999996E-003     0.0000000000000000     
  -7.7999999999999988E-003     0.0000000000000000     
  -7.4999999999999997E-003     0.0000000000000000     
  -7.1999999999999998E-003     0.0000000000000000     
  -6.8999999999999981E-003     0.0000000000000000     
  -6.5999999999999982E-003     0.0000000000000000     
  -6.3000000000000000E-003     0.0000000000000000     
  -6.0000000000000001E-003     0.0000000000000000     
  -5.6999999999999985E-003     0.0000000000000000     
  -5.3999999999999986E-003     0.0000000000000000     
  -5.1000000000000004E-003     0.0000000000000000     
  -4.7999999999999987E-003     0.0000000000000000     
  -4.5000000000000005E-003     0.0000000000000000     
  -4.1999999999999989E-003     0.0000000000000000     
  -3.8999999999999990E-003     0.0000000000000000     
  -3.5999999999999990E-003     0.0000000000000000     
  -3.2999999999999991E-003     0.0000000000000000     
  -2.9999999999999992E-003     0.0000000000000000     
  -2.6999999999999993E-003     0.0000000000000000     
  -2.3999999999999994E-003     0.0000000000000000     
  -2.0999999999999977E-003     0.0000000000000000     
  -1.7999999999999995E-003     0.0000000000000000     
  -1.4999999999999979E-003     0.0000000000000000     
  -1.1999999999999997E-003     0.0000000000000000     
  -8.9999999999999976E-004     0.0000000000000000     
  -5.9999999999999810E-004     0.0000000000000000     
  -2.9999999999999992E-004     0.0000000000000000     
   0.0000000000000000          0.0000000000000000     
   3.0000000000000165E-004     0.0000000000000000     
   5.9999999999999984E-004     0.0000000000000000     
   9.0000000000000149E-004     0.0000000000000000     
   1.2000000000000031E-003     0.0000000000000000     
   1.5000000000000013E-003     0.0000000000000000     
   1.8000000000000030E-003     0.0000000000000000     
   2.1000000000000012E-003     0.0000000000000000     
   2.3999999999999994E-003     0.0000000000000000     
   2.7000000000000010E-003     0.0000000000000000     
   2.9999999999999992E-003    -8.1930275643535959E-039
   3.3000000000000008E-003     1.9187956695897125E-037
   3.6000000000000025E-003     5.5187662490798715E-036
   3.9000000000000007E-003     5.1426548307763016E-036
   4.2000000000000023E-003    -3.9220001169945568E-035
   4.5000000000000005E-003    -2.6476269407374892E-036
   4.7999999999999987E-003     4.6508215598848827E-034
   5.1000000000000004E-003     3.9360456330651041E-034
   5.4000000000000020E-003    -5.0947375195629702E-033
   5.7000000000000037E-003    -3.5470140310977118E-033
   5.9999999999999984E-003     4.6175868141035196E-032
   6.3000000000000000E-003     3.4632461212922649E-032
   6.6000000000000017E-003    -3.1968116741808045E-031
   6.9000000000000034E-003    -2.0904207835149800E-031
   7.2000000000000015E-003     1.6526514381420730E-030
   7.5000000000000032E-003     5.8168372668947684E-031
   7.8000000000000014E-003    -5.9123259020775093E-030
   8.0999999999999996E-003     1.5081232658064494E-030
   8.4000000000000012E-003    -3.0888025964340024E-030
   8.7000000000000029E-003     3.0553510641408616E-029
   9.0000000000000011E-003     3.5163569788114656E-028
   9.2999999999999992E-003    -2.8637061588046444E-027
   9.6000000000000009E-003     6.1372971852483546E-027
   9.8999999999999991E-003     2.9400875790727987E-026
   1.0200000000000001E-002    -2.6161252677544591E-025
   1.0500000000000002E-002     7.6485925459819065E-025
   1.0800000000000004E-002     3.4376956382982063E-025
   1.1099999999999999E-002    -1.1710457510792849E-023
   1.1400000000000000E-002     4.7143069872137534E-023
   1.1700000000000002E-002    -7.6601652810132769E-023
   1.2000000000000004E-002    -1.2302644499542202E-022
   1.2300000000000002E-002     1.0775786172840089E-021
   1.2600000000000000E-002    -2.9210050031066166E-021
   1.2900000000000002E-002     2.5934117745714240E-021
   1.3200000000000000E-002     1.0031191761505208E-020
   1.3500000000000002E-002    -4.5286742778586794E-020
   1.3800000000000003E-002     6.0282244812046413E-020
   1.4100000000000001E-002     2.1529669183503479E-019
   1.4400000000000000E-002    -1.7268403610741699E-018
   1.4700000000000001E-002     7.3005074697053939E-018
   1.4999999999999999E-002    -2.5693325402249725E-017
   1.5300000000000001E-002     8.7497892288380446E-017
   1.5600000000000003E-002    -3.0954715193865071E-016
   1.5899999999999997E-002     1.1495135792683703E-015
   1.6199999999999999E-002    -4.3673829229521469E-015
   1.6500000000000001E-002     1.6387987198521008E-014
   1.6800000000000002E-002    -5.8488040628063826E-014
   1.7100000000000004E-002     1.8918269456553460E-013
   1.7400000000000006E-002    -5.0968349216125676E-013
   1.7700000000000000E-002     8.9499673923044473E-013
   1.8000000000000002E-002     6.6094189700870659E-013
   1.8300000000000004E-002    -1.3842281301140833E-011
   1.8600000000000005E-002     6.6478618266223353E-011
   1.8900000000000000E-002    -1.9208113475323880E-010
   1.9200000000000002E-002     2.8009666040740951E-010
   1.9500000000000003E-002     3.4648381448573061E-010
   1.9799999999999998E-002    -3.0096845786719822E-009
   2.0100000000000000E-002     6.6352784265016250E-009
   2.0400000000000001E-002    -6.8444031855208728E-011
   2.0700000000000003E-002    -3.2447563432349231E-008
   2.0999999999999998E-002     5.4449590495881314E-008
   2.1299999999999999E-002     6.1323419980517595E-008
   2.1600000000000001E-002    -2.6111426231134664E-007
   2.1900000000000003E-002    -7.9504105355647541E-008
   2.2200000000000004E-002     8.3556317122357648E-007
   2.2500000000000006E-002     3.5931429601246353E-007
   2.2800000000000001E-002    -2.3494179769477586E-006
   2.3100000000000002E-002    -2.6576050654399021E-006
   2.3400000000000004E-002     6.6437205264397928E-006
   2.3699999999999999E-002     2.7747698859236381E-005
   2.4000000000000000E-002     5.6629117876278714E-005
   2.4300000000000002E-002     9.1296708663070325E-005
   2.4599999999999997E-002     1.3815446101846270E-004
   2.4900000000000005E-002     2.1158471675898193E-004
   2.5200000000000000E-002     3.3119727374065003E-004
   2.5499999999999995E-002     5.1908360856828435E-004
   2.5800000000000003E-002     8.0219937048299494E-004
   2.6099999999999998E-002     1.2193047834917620E-003
   2.6400000000000007E-002     1.8260357326418952E-003
   2.6700000000000002E-002     2.6991382856915991E-003
   2.6999999999999996E-002     3.9403680903778993E-003
   2.7300000000000005E-002     5.6787593453103968E-003
   2.7600000000000000E-002     8.0726105981788754E-003
   2.7900000000000008E-002     1.1311774783378858E-002
   2.8200000000000003E-002     1.5620051688331693E-002
   2.8499999999999998E-002     2.1252590930483040E-002
   2.8800000000000006E-002     2.8482400247201833E-002
   2.9100000000000001E-002     3.7581003798453527E-002
   2.9400000000000003E-002     4.8793419467112464E-002
   2.9700000000000004E-002     6.2304936123205534E-002
   3.0000000000000006E-002     7.8193791019883108E-002
   3.0300000000000001E-002     9.6373111533113232E-002
   3.0600000000000002E-002    0.11652759203614371     
   3.0900000000000004E-002    0.13804356301647136     
   3.1199999999999999E-002    0.15995118056219404     
   3.1500000000000007E-002    0.18086647377178622     
   3.1800000000000002E-002    0.19897876947887205     
   3.2099999999999997E-002    0.21205997170610669     
   3.2400000000000005E-002    0.21750421932769282     
   3.2700000000000000E-002    0.21243843173209154     
   3.3000000000000002E-002    0.19389233679466855     
   3.3300000000000003E-002    0.15903008372177130     
   3.3599999999999998E-002    0.10545489892631554     
   3.3900000000000000E-002     3.1500493969540355E-002
   3.4200000000000001E-002    -6.3403554816972019E-002
   3.4500000000000003E-002   -0.17845787169179994     
   3.4799999999999998E-002   -0.31120128743155018     
   3.5099999999999999E-002   -0.45735322733251138     
   3.5400000000000001E-002   -0.61080120861880971     
   3.5699999999999996E-002   -0.76372797529625203     
   3.6000000000000004E-002   -0.90692813374111481     
   3.6299999999999999E-002    -1.0303122540526530     
   3.6600000000000008E-002    -1.1235451524387656     
   3.6900000000000002E-002    -1.1768563665141158     
   3.7199999999999997E-002    -1.1818306291752592     
   3.7500000000000006E-002    -1.1322470351971887     
   3.7800000000000000E-002    -1.0248045696242869     
   3.8100000000000009E-002   -0.85964685239523675     
   3.8400000000000004E-002   -0.64068964626040525     
   3.8699999999999998E-002   -0.37562014287766310     
   3.9000000000000007E-002    -7.5565766250825339E-002
   3.9300000000000002E-002    0.24538981710429086     
   3.9600000000000003E-002    0.57128065050292598     
   3.9900000000000005E-002    0.88511455008725903     
   4.0200000000000000E-002     1.1702006045919227     
   4.0500000000000001E-002     1.4113147712025054     
   4.0800000000000003E-002     1.5956766182111366     
   4.1100000000000005E-002     1.7140330320510699     
   4.1399999999999999E-002     1.7610954158104519     
   4.1700000000000008E-002     1.7359847221403513     
   4.2000000000000003E-002     1.6421950272444619     
   4.2299999999999997E-002     1.4870643556763383     
   4.2600000000000006E-002     1.2813804969229281     
   4.2900000000000001E-002     1.0382615267668811     
   4.3200000000000002E-002    0.77230640192733446     
   4.3500000000000004E-002    0.49855370820200662     
   4.3799999999999999E-002    0.23125856073828643     
   4.4100000000000000E-002    -1.6691979609176233E-002
   4.4400000000000002E-002   -0.23483950132163622     
   4.4700000000000004E-002   -0.41544033861828389     
   4.4999999999999998E-002   -0.55375697072745567     
   4.5300000000000000E-002   -0.64818497154146115     
   4.5600000000000002E-002   -0.69980897469725534     
   4.5899999999999996E-002   -0.71228320676774715     
   4.6200000000000005E-002   -0.69117179833185816     
   4.6500000000000000E-002   -0.64335635179589090     
   4.6799999999999994E-002   -0.57651569937829095     
   4.7100000000000003E-002   -0.49843085340158311     
   4.7399999999999998E-002   -0.41651199804443628     
   4.7700000000000006E-002   -0.33734815841798671     
   4.8000000000000001E-002   -0.26634755411625299     
   4.8300000000000010E-002   -0.20760474179689847     
   4.8600000000000004E-002   -0.16367444221782357     
   4.8899999999999999E-002   -0.13567783926073229     
   4.9200000000000008E-002   -0.12342373498562420     
   4.9500000000000002E-002   -0.12547024160294962     
   4.9800000000000011E-002   -0.13957264942827496     
   5.0100000000000006E-002   -0.16282149574861382     
   5.0400000000000000E-002   -0.19199233815741668     
   5.0700000000000009E-002   -0.22401339222262973     
   5.1000000000000004E-002   -0.25602965100570607     
   5.1299999999999998E-002   -0.28596532160200105     
   5.1600000000000007E-002   -0.31248672223710905     
   5.1900000000000002E-002   -0.33508378936266503     
   5.2200000000000010E-002   -0.35430745894628757     
   5.2500000000000005E-002   -0.37117185052187729     
   5.2800000000000000E-002   -0.38732472335950519     
   5.3099999999999994E-002   -0.40441389009908946     
   5.3400000000000003E-002   -0.42365020202350578     
   5.3699999999999998E-002   -0.44567138660476857     
   5.4000000000000006E-002   -0.46966762285588537     
   5.4300000000000001E-002   -0.49357074217120811     
   5.4599999999999996E-002   -0.51369807780434407     
   5.4900000000000004E-002   -0.52484333878343392     
   5.5199999999999999E-002   -0.52091416692639925     
   5.5499999999999994E-002   -0.49507936915461492     
   5.5800000000000002E-002   -0.44090395051917142     
   5.6099999999999997E-002   -0.35301098565433620     
   5.6400000000000006E-002   -0.22781480625575057     
   5.6700000000000000E-002    -6.4632096519731119E-002
   5.6999999999999995E-002    0.13413766186117648     
   5.7300000000000004E-002    0.36255784238514543     
   5.7599999999999998E-002    0.61113537480247437     
   5.7900000000000007E-002    0.86762731179139863     
   5.8200000000000002E-002     1.1174147408232571     
   5.8499999999999996E-002     1.3448067291160726     
   5.8800000000000005E-002     1.5344073605422395     
   5.9100000000000000E-002     1.6720999218732260     
   5.9400000000000008E-002     1.7466688028072284     
   5.9700000000000003E-002     1.7506619403004251     
   6.0000000000000012E-002     1.6809574493609389     
   6.0300000000000006E-002     1.5394916635188665     
   6.0600000000000001E-002     1.3328556331824615     
   6.0900000000000010E-002     1.0719070132371229     
   6.1200000000000004E-002    0.77113459834577114     
   6.1500000000000013E-002    0.44710262365284237     
   6.1800000000000008E-002    0.11761027690197601     
   6.2100000000000002E-002   -0.19977342717817503     
   6.2399999999999997E-002   -0.48929111949194759     
   6.2700000000000006E-002   -0.73733768737096028     
   6.3000000000000000E-002   -0.93405779019121837     
   6.3300000000000009E-002    -1.0733448157172703     
   6.3600000000000004E-002    -1.1529552205144000     
   6.3899999999999998E-002    -1.1747985374451204     
   6.4199999999999993E-002    -1.1437293860764441     
   6.4500000000000002E-002    -1.0676978060573816     
   6.4800000000000010E-002   -0.95643873364989318     
   6.5100000000000005E-002   -0.82073724244294155     
   6.5400000000000000E-002   -0.67205981286585015     
   6.5700000000000008E-002   -0.52117967268065080     
   6.5999999999999989E-002   -0.37827498631316381     
   6.6299999999999998E-002   -0.25231599882421563     
   6.6600000000000006E-002   -0.15062908229495608     
   6.6900000000000001E-002    -7.9145217917957922E-002
   6.7199999999999996E-002    -4.2011121980019661E-002
   6.7500000000000004E-002    -4.1626989822764360E-002
   6.7800000000000013E-002    -7.8722399538170396E-002
   6.8099999999999994E-002   -0.15203649992750301     
   6.8400000000000002E-002   -0.25842898786439772     
   6.8700000000000011E-002   -0.39285843254786990     
   6.8999999999999992E-002   -0.54797942616668038     
   6.9300000000000000E-002   -0.71472503751684613     
   6.9600000000000009E-002   -0.88210565354587800     
   6.9900000000000004E-002    -1.0376162088099932     
   7.0199999999999999E-002    -1.1682848246894721     
   7.0500000000000007E-002    -1.2605794337123513     
   7.0800000000000016E-002    -1.3021215353853961     
   7.1099999999999997E-002    -1.2822325561760906     
   7.1400000000000005E-002    -1.1927423300912068     
   7.1700000000000000E-002    -1.0295608438796719     
   7.1999999999999995E-002   -0.79236164465269354     
   7.2300000000000003E-002   -0.48586723369382057     
   7.2600000000000012E-002   -0.11954881529893591     
   7.2900000000000006E-002    0.29291052547691532     
   7.3200000000000001E-002    0.73351151137997661     
   7.3499999999999996E-002     1.1816424164551549     
   7.3800000000000004E-002     1.6149015363479791     
   7.4099999999999999E-002     2.0103067657861047     
   7.4400000000000008E-002     2.3465374761822133     
   7.4700000000000003E-002     2.6044247891108796     
   7.5000000000000011E-002     2.7689465379542213     
   7.5299999999999992E-002     2.8301708668780776     
   7.5600000000000001E-002     2.7836216149272417     
   7.5900000000000009E-002     2.6313471385266496     
   7.6200000000000004E-002     2.3812889617454260     
   7.6499999999999999E-002     2.0470117846028302     
   7.6800000000000007E-002     1.6470076040274719     
   7.7099999999999988E-002     1.2028498688466556     
   7.7399999999999997E-002    0.73822880081301179     
   7.7700000000000005E-002    0.27704117541044138     
   7.8000000000000014E-002   -0.15871350409813534     
   7.8299999999999995E-002   -0.54974342260291120     
   7.8600000000000003E-002   -0.88190055427796921     
   7.8900000000000012E-002    -1.1465452221293475     
   7.9199999999999993E-002    -1.3412314249334187     
   7.9500000000000001E-002    -1.4701320662354860     
   7.9800000000000010E-002    -1.5427230598864767     
   8.0100000000000018E-002    -1.5735573597272250     
   8.0399999999999999E-002    -1.5800157342065333     
   8.0700000000000008E-002    -1.5805515777238597     
   8.1000000000000003E-002    -1.5929061571422736     
   8.1299999999999997E-002    -1.6312869102949463     
   8.1600000000000006E-002    -1.7050918749251593     
   8.1900000000000014E-002    -1.8171595793595827     
   8.2199999999999995E-002    -1.9626895649223570     
   8.2500000000000004E-002    -2.1296249286522908     
   8.2799999999999999E-002    -2.2986683960401066     
   8.3100000000000007E-002    -2.4450340103968529     
   8.3400000000000002E-002    -2.5404817182936057     
   8.3700000000000011E-002    -2.5557336229110348     
   8.4000000000000005E-002    -2.4636396590709779     
   8.4300000000000000E-002    -2.2418748402828186     
   8.4599999999999995E-002    -1.8755535693231451     
   8.4900000000000003E-002    -1.3597513264372694     
   8.5199999999999998E-002   -0.70048676788566766     
   8.5500000000000007E-002     8.4377548787896828E-002
   8.5800000000000001E-002    0.96566595696756607     
   8.6100000000000010E-002     1.9044717591764275     
   8.6399999999999991E-002     2.8539862392864919     
   8.6699999999999999E-002     3.7628228823299423     
   8.7000000000000008E-002     4.5783773359211466     
   8.7300000000000003E-002     5.2503079264014332     
   8.7599999999999997E-002     5.7344229292972955     
   8.7900000000000006E-002     5.9957057246692216     
   8.8200000000000014E-002     6.0109086248274934     
   8.8499999999999995E-002     5.7707357471002467     
   8.8800000000000004E-002     5.2802546050298247     
   8.9100000000000013E-002     4.5589992117679685     
   8.9399999999999993E-002     3.6400464573532361     
   8.9700000000000002E-002     2.5672861710269927     
   9.0000000000000011E-002     1.3934699589314263     
   9.0299999999999991E-002    0.17596174516487229     
   9.0600000000000000E-002    -1.0265486257188137     
   9.0900000000000009E-002    -2.1571574031713041     
   9.1200000000000017E-002    -3.1653289034943413     
   9.1499999999999998E-002    -4.0084433534538420     
   9.1800000000000007E-002    -4.6546518371143577     
   9.2100000000000001E-002    -5.0841049692886884     
   9.2399999999999996E-002    -5.2885789180687084     
   9.2700000000000005E-002    -5.2723711872829142     
   9.3000000000000013E-002    -5.0496265995851672     
   9.3300000000000008E-002    -4.6434762104693448     
   9.3600000000000003E-002    -4.0840140912958134     
   9.3899999999999997E-002    -3.4050592430804301     
   9.4200000000000006E-002    -2.6434445851878650     
   9.4500000000000001E-002    -1.8359378493973679     
   9.4800000000000009E-002    -1.0178320094863338     
   9.5100000000000004E-002   -0.22244304226913103     
   9.5399999999999999E-002    0.52097587807988077     
   9.5699999999999993E-002     1.1867640999955134     
   9.6000000000000002E-002     1.7534143388717141     
   9.6300000000000011E-002     2.2041224169961637     
   9.6600000000000005E-002     2.5259035358810280     
   9.6900000000000000E-002     2.7106788952424807     
   9.7200000000000009E-002     2.7551054541398230     
   9.7499999999999989E-002     2.6601271375866844     
   9.7799999999999998E-002     2.4324451526313453     
   9.8100000000000007E-002     2.0834452698126356     
   9.8400000000000015E-002     1.6298634884392769     
   9.8699999999999996E-002     1.0940541084757669     
   9.9000000000000005E-002    0.50247704014221206     
   9.9300000000000013E-002   -0.11393035226584480     
   9.9599999999999994E-002   -0.72168466169442524     
   9.9900000000000003E-002    -1.2863193552183061     
  0.10020000000000001         -1.7734482075726135     
  0.10049999999999999         -2.1521174328220525     
  0.10080000000000000         -2.3959061612516805     
  0.10110000000000001         -2.4851436384105980     
  0.10140000000000000         -2.4093848888418279     
  0.10170000000000000         -2.1673619825504602     
  0.10200000000000001         -1.7686714581304699     
  0.10230000000000002         -1.2333774696426119     
  0.10260000000000000        -0.59062725691440576     
  0.10290000000000001         0.12187983587366880     
  0.10320000000000000         0.86122648619222275     
  0.10350000000000001          1.5814690600657442     
  0.10380000000000000          2.2359928608443909     
  0.10410000000000001          2.7818197773863673     
  0.10440000000000001          3.1808844931371709     
  0.10470000000000000          3.4033866039917484     
  0.10500000000000000          3.4299325874561788     
  0.10530000000000000          3.2514007857472649     
  0.10560000000000000          2.8715753957261825     
  0.10590000000000001          2.3053819174393340     
  0.10620000000000000          1.5788259864042971     
  0.10650000000000001         0.72835654145386641     
  0.10679999999999999        -0.20255434191397015     
  0.10710000000000000         -1.1633741366514236     
  0.10740000000000001         -2.1006630232926362     
  0.10770000000000000         -2.9606394520510690     
  0.10800000000000000         -3.6910091796308535     
  0.10830000000000001         -4.2459381080585104     
  0.10859999999999999         -4.5872316541223199     
  0.10890000000000000         -4.6877736763555617     
  0.10920000000000001         -4.5344299698938926     
  0.10950000000000001         -4.1281480022065011     
  0.10979999999999999         -3.4865875001056423     
  0.11009999999999999         -2.6425464806415420     
  0.11040000000000001         -1.6428533618482248     
  0.11070000000000001        -0.54682876148172443     
  0.11100000000000000         0.57877245064783978     
  0.11130000000000000          1.6630986332201445     
  0.11160000000000002          2.6365082318601303     
  0.11190000000000001          3.4364691048599241     
  0.11220000000000001          4.0115377828849716     
  0.11250000000000000          4.3263884019402639     
  0.11280000000000000          4.3648617594534471     
  0.11309999999999999          4.1308901693099216     
  0.11340000000000001          3.6498502985634360     
  0.11369999999999998          2.9655687200879441     
  0.11400000000000000          2.1371327275617418     
  0.11430000000000000          1.2347584532775038     
  0.11460000000000002         0.33265054280071649     
  0.11489999999999999        -0.49609485536257836     
  0.11520000000000001         -1.1860722961206918     
  0.11550000000000001         -1.6852905877922346     
  0.11580000000000000         -1.9584866775280574     
  0.11609999999999999         -1.9910371329294989     
  0.11640000000000002         -1.7889234364807081     
  0.11670000000000001         -1.3775821615158819     
  0.11700000000000001        -0.80003164472027422     
  0.11730000000000000        -0.11148826064569395     
  0.11760000000000000         0.62505858560152205     
  0.11789999999999999          1.3446964724194483     
  0.11820000000000001          1.9870373300277553     
  0.11850000000000001          2.5002813863866038     
  0.11880000000000000          2.8461163190147047     
  0.11910000000000000          3.0022636757202150     
  0.11940000000000002          2.9630175250862294     
  0.11970000000000001          2.7398572540246420     
  0.12000000000000001          2.3584785481424575     
  0.12030000000000000          1.8558588954316946     
  0.12060000000000000          1.2766251710689858     
  0.12089999999999999         0.66742830626859373     
  0.12119999999999999          7.3505379637485380E-002
  0.12150000000000001        -0.46624444525224007     
  0.12180000000000001        -0.92232860318811893     
  0.12210000000000000         -1.2760624618753766     
  0.12239999999999999         -1.5218991663920249     
  0.12270000000000002         -1.6654254800972552     
  0.12300000000000001         -1.7221994346326426     
  0.12330000000000001         -1.7154805430811919     
  0.12360000000000000         -1.6719194694977730     
  0.12390000000000000         -1.6188859645753695     
  0.12419999999999999         -1.5801486905975679     
  0.12450000000000001         -1.5730282033955802     
  0.12480000000000001         -1.6069625442360618     
  0.12509999999999999         -1.6813215001609905     
  0.12540000000000001         -1.7866492885147167     
  0.12570000000000003         -1.9054917058404826     
  0.12600000000000000         -2.0144888872856370     
  0.12630000000000002         -2.0883047195071711     
  0.12659999999999999         -2.1022671804203981     
  0.12690000000000001         -2.0361645100021093     
  0.12719999999999998         -1.8774125434201423     
  0.12750000000000000         -1.6227059418416374     
  0.12780000000000002         -1.2793514112232600     
  0.12809999999999999        -0.86491820343808357     
  0.12840000000000001        -0.40579577042198167     
  0.12869999999999998          6.5144983538623968E-002
  0.12900000000000000         0.51247938360026879     
  0.12930000000000003         0.90151374287103270     
  0.12959999999999999          1.2017835272325552     
  0.12990000000000002          1.3907933624453399     
  0.13019999999999998          1.4557458833638535     
  0.13050000000000000          1.3949717618807753     
  0.13080000000000003          1.2179858502599004     
  0.13109999999999999         0.94347028184710879     
  0.13140000000000002         0.59789107818873077     
  0.13169999999999998         0.21173216466813205     
  0.13200000000000001        -0.18367723646697165     
  0.13229999999999997        -0.55890845339115458     
  0.13260000000000000        -0.88982814868988769     
  0.13290000000000002         -1.1584559538816066     
  0.13319999999999999         -1.3547524552512122     
  0.13350000000000001         -1.4762148212571162     
  0.13380000000000003         -1.5264192049296952     
  0.13410000000000000         -1.5142458527666847     
  0.13440000000000002         -1.4510021500966559     
  0.13469999999999999         -1.3490646560147397     
  0.13500000000000001         -1.2198781758515977     
  0.13529999999999998         -1.0727827535473935     
  0.13560000000000000        -0.91458372161744705     
  0.13590000000000002        -0.74897569114334672     
  0.13619999999999999        -0.57778879365326574     
  0.13650000000000001        -0.40124127761252204     
  0.13680000000000003        -0.21897030804164608     
  0.13710000000000000         -3.1059990818523175E-002
  0.13740000000000002         0.16165648087187812     
  0.13769999999999999         0.35724947899551096     
  0.13800000000000001         0.55313502622698074     
  0.13829999999999998         0.74626567964715029     
  0.13860000000000000         0.93431036082018259     
  0.13890000000000002          1.1165979882239938     
  0.13919999999999999          1.2939993525867166     
  0.13950000000000001          1.4701174074108252     
  0.13979999999999998          1.6507651464100377     
  0.14010000000000000          1.8433369743516650     
  0.14040000000000002          2.0561791571084385     
  0.14069999999999999          2.2968122103546094     
  0.14100000000000001          2.5706830442557802     
  0.14130000000000004          2.8795003625378612     
  0.14160000000000000          3.2204211067062829     
  0.14189999999999997          3.5851301009700620     
  0.14219999999999999          3.9597851573566487     
  0.14250000000000002          4.3256014786138905     
  0.14279999999999998          4.6598922862089012     
  0.14310000000000000          4.9377347904186308     
  0.14339999999999997          5.1337855051629901     
  0.14369999999999999          5.2248773254106027     
  0.14400000000000002          5.1910058167143802     
  0.14429999999999998          5.0173913564552493     
  0.14460000000000001          4.6958472830561675     
  0.14490000000000003          4.2239912722672130     
  0.14520000000000000          3.6066124159978159     
  0.14550000000000002          2.8539439823629635     
  0.14579999999999999          1.9808677958919318     
  0.14610000000000001          1.0060480960766682     
  0.14640000000000003         -5.0422149995089427E-002
  0.14670000000000000         -1.1659521417552270     
  0.14699999999999996         -2.3188434232348030     
  0.14729999999999999         -3.4863870751722761     
  0.14760000000000001         -4.6457427728812455     
  0.14789999999999998         -5.7748739264683095     
  0.14820000000000000         -6.8498617995858524     