  -1.4999999999999999E-002     0.0000000000000000     
  -1.4700000000000000E-002     0.0000000000000000     
  -1.4400000000000000E-002     0.0000000000000000     
  -1.4100000000000000E-002     0.0000000000000000     
  -1.3800000000000000E-002     0.0000000000000000     
  -1.3500000000000000E-002     0.0000000000000000     
  -1.3200000000000000E-002     0.0000000000000000     
  -1.2899999999999998E-002     0.0000000000000000     
  -1.2600000000000000E-002     0.0000000000000000     
  -1.2299999999999998E-002     0.0000000000000000     
  -1.2000000000000000E-002     0.0000000000000000     
  -1.1699999999999999E-002     0.0000000000000000     
  -1.1399999999999999E-002     0.0000000000000000     
  -1.1099999999999999E-002     0.0000000000000000     
  -1.0799999999999999E-002    -1.9857129315982571E-037
  -1.0499999999999999E-002     1.9596217687707542E-036
  -1.0199999999999999E-002     2.5559577643995853E-035
  -9.8999999999999991E-003    -2.1642253387252385E-033
  -9.5999999999999992E-003     4.0948044367688237E-032
  -9.2999999999999992E-003    -4.7018975697843265E-031
  -8.9999999999999993E-003     3.9010588978460432E-030
  -8.6999999999999994E-003    -2.5478937772912345E-029
  -8.3999999999999995E-003     1.3044437382274176E-028
  -8.0999999999999996E-003    -4.8248552485464526E-028
  -7.7999999999999988E-003     1.1658761905776339E-027
  -7.4999999999999997E-003    -1.7904202137451436E-027
  -7.1999999999999998E-003     2.4143392755581677E-027
  -6.8999999999999981E-003     3.1935035671854128E-027
  -6.5999999999999982E-003    -8.6746695177283134E-026
  -6.3000000000000000E-003     4.2401215201792340E-025
  -6.0000000000000001E-003    -6.1007196595097147E-025
  -5.6999999999999985E-003    -2.8697174894751872E-024
  -5.3999999999999986E-003     2.1715224753992425E-023
  -5.1000000000000004E-003    -9.4032854946332326E-023
  -4.7999999999999987E-003     3.6733809354149925E-022
  -4.5000000000000005E-003    -1.3296814393231403E-021
  -4.1999999999999989E-003     4.1639688684586535E-021
  -3.8999999999999990E-003    -1.1034939950992558E-020
  -3.5999999999999990E-003     2.5433681275738701E-020
  -3.2999999999999991E-003    -5.3378452170805125E-020
  -2.9999999999999992E-003     1.0502060813067577E-019
  -2.6999999999999993E-003    -1.9147795360486692E-019
  -2.3999999999999994E-003     3.0862050047522441E-019
  -2.0999999999999977E-003    -4.0549989184839467E-019
  -1.7999999999999995E-003     3.4864382651308564E-019
  -1.4999999999999979E-003     7.7545782357066144E-020
  -1.1999999999999997E-003    -9.9743602755502152E-019
  -8.9999999999999976E-004     1.7742484555633631E-018
  -5.9999999999999810E-004     5.1757548891063392E-019
  -2.9999999999999992E-004    -1.3110279929759786E-017
   0.0000000000000000          4.7692298041969059E-017
   3.0000000000000165E-004    -1.1402941665062726E-016
   5.9999999999999984E-004     2.0331047264516861E-016
   9.0000000000000149E-004    -2.6541425908476804E-016
   1.2000000000000031E-003     1.9450352466094488E-016
   1.5000000000000013E-003     1.7411426686271912E-016
   1.8000000000000030E-003    -1.1156239599041785E-015
   2.1000000000000012E-003     3.2291424332220272E-015
   2.3999999999999994E-003    -7.5842352368648132E-015
   2.7000000000000010E-003     1.3910228975010607E-014
   2.9999999999999992E-003    -1.1367452396434877E-014
   3.3000000000000008E-003    -4.4572737444657857E-014
   3.6000000000000025E-003     2.5366763775485525E-013
   3.9000000000000007E-003    -6.8864587467272177E-013
   4.2000000000000023E-003     9.4824126886218004E-013
   4.5000000000000005E-003     8.7449621051523969E-013
   4.7999999999999987E-003    -8.6886447338033891E-012
   5.1000000000000004E-003     2.2283941065651897E-011
   5.4000000000000020E-003    -9.8730300105134575E-012
   5.7000000000000037E-003    -1.4510015523161307E-010
   5.9999999999999984E-003     6.0535178427693679E-010
   6.3000000000000000E-003    -9.9655783594598411E-010
   6.6000000000000017E-003    -1.1071175975165745E-009
   6.9000000000000034E-003     9.9751028700101596E-009
   7.2000000000000015E-003    -2.0345775669436151E-008
   7.5000000000000032E-003    -5.0466442513414210E-009
   7.8000000000000014E-003     1.0612215142174543E-007
   8.0999999999999996E-003    -1.5817020826633888E-007
   8.4000000000000012E-003    -1.8320295853575356E-007
   8.7000000000000029E-003     6.5948623050741214E-007
   9.0000000000000011E-003     2.2774178838477226E-008
   9.2999999999999992E-003    -1.4577108356080418E-006
   9.6000000000000009E-003     9.0782151051693776E-008
   9.8999999999999991E-003     2.9065047116941019E-006
   1.0200000000000001E-002     9.4996811038892563E-006
   1.0500000000000002E-002     3.9419161609440277E-005
   1.0800000000000004E-002     1.1459742856011678E-004
   1.1099999999999999E-002     2.3497358783194141E-004
   1.1400000000000000E-002     3.8341440829185378E-004
   1.1700000000000002E-002     5.6687742754922901E-004
   1.2000000000000004E-002     8.3615225704114504E-004
   1.2300000000000002E-002     1.2680331417917155E-003
   1.2600000000000000E-002     1.9567767383651818E-003
   1.2900000000000002E-002     3.0056247377101969E-003
   1.3200000000000000E-002     4.5335452184174369E-003
   1.3500000000000002E-002     6.7167821972227981E-003
   1.3800000000000003E-002     9.8059673539903636E-003
   1.4100000000000001E-002     1.4124157128636683E-002
   1.4400000000000000E-002     2.0072256690138846E-002
   1.4700000000000001E-002     2.8130717169461028E-002
   1.4999999999999999E-002     3.8855239775488326E-002
   1.5300000000000001E-002     5.2852476073718568E-002
   1.5600000000000003E-002     7.0762464483794529E-002
   1.5899999999999997E-002     9.3224457496838387E-002
   1.6199999999999999E-002    0.12077115150764506     
   1.6500000000000001E-002    0.15372936286978645     
   1.6800000000000002E-002    0.19212671270421122     
   1.7100000000000004E-002    0.23552273568307047     
   1.7400000000000006E-002    0.28280133693093390     
   1.7700000000000000E-002    0.33198585961928373     
   1.8000000000000002E-002    0.38009356519149762     
   1.8300000000000004E-002    0.42305061931850929     
   1.8600000000000005E-002    0.45559421873332617     
   1.8900000000000000E-002    0.47133652543568871     
   1.9200000000000002E-002    0.46296914428460134     
   1.9500000000000003E-002    0.42257547504708981     
   1.9799999999999998E-002    0.34220292204410363     
   2.0100000000000000E-002    0.21451841144019301     
   2.0400000000000001E-002     3.3707983804423358E-002
   2.0700000000000003E-002   -0.20355769901711396     
   2.0999999999999998E-002   -0.49712604281447081     
   2.1299999999999999E-002   -0.84255805580898979     
   2.1600000000000001E-002    -1.2303766097174851     
   2.1900000000000003E-002    -1.6457090617797476     
   2.2200000000000004E-002    -2.0683850549272407     
   2.2500000000000006E-002    -2.4733608007092798     
   2.2800000000000001E-002    -2.8320935415304689     
   2.3100000000000002E-002    -3.1141692598926056     
   2.3400000000000004E-002    -3.2893936115199267     
   2.3699999999999999E-002    -3.3302892245054494     
   2.4000000000000000E-002    -3.2145329254531561     
   2.4300000000000002E-002    -2.9275584772581453     
   2.4599999999999997E-002    -2.4645218960399973     
   2.4900000000000005E-002    -1.8317471225036357     
   2.5200000000000000E-002    -1.0474650941701356     
   2.5499999999999995E-002   -0.14115309288977240     
   2.5800000000000003E-002    0.84794826652829780     
   2.6099999999999998E-002     1.8727930878373229     
   2.6400000000000007E-002     2.8819573382994790     
   2.6700000000000002E-002     3.8230530678856383     
   2.6999999999999996E-002     4.6463510627812639     
   2.7300000000000005E-002     5.3089099278507206     
   2.7600000000000000E-002     5.7769696944174598     
   2.7900000000000008E-002     6.0289794283073661     
   2.8200000000000003E-002     6.0564155290127246     
   2.8499999999999998E-002     5.8641865107021829     
   2.8800000000000006E-002     5.4701151016068366     
   2.9100000000000001E-002     4.9022613564901860     
   2.9400000000000003E-002     4.1971278047280123     
   2.9700000000000004E-002     3.3958064597544677     
   3.0000000000000006E-002     2.5409001487634271     
   3.0300000000000001E-002     1.6732409212337984     
   3.0600000000000002E-002    0.82824624888753107     
   3.0900000000000004E-002     3.4846667311027701E-002
   3.1199999999999999E-002   -0.68748313061026423     
   3.1500000000000007E-002    -1.3282810147228936     
   3.1800000000000002E-002    -1.8860798306808348     
   3.2099999999999997E-002    -2.3678479326520758     
   3.2400000000000005E-002    -2.7852686664287205     
   3.2700000000000000E-002    -3.1544994099442647     
   3.3000000000000002E-002    -3.4913978840504569     
   3.3300000000000003E-002    -3.8092194967568389     
   3.3599999999999998E-002    -4.1170422036769452     
   3.3900000000000000E-002    -4.4154092951348645     
   3.4200000000000001E-002    -4.6976591957720757     
   3.4500000000000003E-002    -4.9475824749326591     
   3.4799999999999998E-002    -5.1409447690725187     
   3.5099999999999999E-002    -5.2478631003310738     
   3.5400000000000001E-002    -5.2340189922224454     
   3.5699999999999996E-002    -5.0662160888618928     
   3.6000000000000004E-002    -4.7148344758130634     
   3.6299999999999999E-002    -4.1584994927509911     
   3.6600000000000008E-002    -3.3882359896797993     
   3.6900000000000002E-002    -2.4091853257569653     
   3.7199999999999997E-002    -1.2435884152720149     
   3.7500000000000006E-002     6.9579589404680675E-002
   3.7800000000000000E-002     1.4755890071620748     
   3.8100000000000009E-002     2.9066849339985517     
   3.8400000000000004E-002     4.2866380496674807     
   3.8699999999999998E-002     5.5353719863782089     
   3.9000000000000007E-002     6.5753686359759911     
   3.9300000000000002E-002     7.3374586135188054     
   3.9600000000000003E-002     7.7663248244692511     
   3.9900000000000005E-002     7.8254778554509130     
   4.0200000000000000E-002     7.5005085093538924     
   4.0500000000000001E-002     6.8005996882544935     
   4.0800000000000003E-002     5.7590102544837407     
   4.1100000000000005E-002     4.4306700629152829     
   4.1399999999999999E-002     2.8890904394707775     
   4.1700000000000008E-002     1.2214186735369204     
   4.2000000000000003E-002   -0.47761132060062650     
   4.2299999999999997E-002    -2.1116952287437982     
   4.2600000000000006E-002    -3.5900662390400662     
   4.2900000000000001E-002    -4.8330843184134835     
   4.3200000000000002E-002    -5.7780184081711212     
   4.3500000000000004E-002    -6.3827519419039049     
   4.3799999999999999E-002    -6.6284074074797275     
   4.4100000000000000E-002    -6.5208332739013315     
   4.4400000000000002E-002    -6.0885444914034395     
   4.4700000000000004E-002    -5.3820297636617909     
   4.4999999999999998E-002    -4.4681428346014513     
   4.5300000000000000E-002    -3.4254075683250136     
   4.5600000000000002E-002    -2.3389036946985584     
   4.5899999999999996E-002    -1.2912727100881156     
   4.6200000000000005E-002   -0.35951262081702851     
   4.6500000000000000E-002    0.39328281880825955     
   4.6799999999999994E-002    0.92152418231236144     
   4.7100000000000003E-002     1.1997328527679691     
   4.7399999999999998E-002     1.2269232244343726     
   4.7700000000000006E-002     1.0217554840307344     
   4.8000000000000001E-002    0.62463313176892399     
   4.8300000000000010E-002     9.1525076173009090E-002
   4.8600000000000004E-002   -0.51180787696527830     
   4.8899999999999999E-002    -1.1131133307654402     
   4.9200000000000008E-002    -1.6444094972794558     
   4.9500000000000002E-002    -2.0436874135628784     
   4.9800000000000011E-002    -2.2633874612799403     
   5.0100000000000006E-002    -2.2737525788883701     
   5.0400000000000000E-002    -2.0630056659217075     
   5.0700000000000009E-002    -1.6408813669264788     
   5.1000000000000004E-002    -1.0334841307509635     
   5.1299999999999998E-002   -0.28211774120678967     
   5.1600000000000007E-002    0.56247420160764250     
   5.1900000000000002E-002     1.4467413053331413     
   5.2200000000000010E-002     2.3181536738166653     
   5.2500000000000005E-002     3.1324085135159336     
   5.2800000000000000E-002     3.8565235744597572     
   5.3099999999999994E-002     4.4715865333125038     
   5.3400000000000003E-002     4.9735534721401962     
   5.3699999999999998E-002     5.3716725202956752     
   5.4000000000000006E-002     5.6851874936260458     
   5.4300000000000001E-002     5.9394508737558169     
   5.4599999999999996E-002     6.1607247676055579     
   5.4900000000000004E-002     6.3703149427937831     
   5.5199999999999999E-002     6.5816775866325372     
   5.5499999999999994E-002     6.7951363575949131     
   5.5800000000000002E-002     6.9980667639647436     
   5.6099999999999997E-002     7.1646241063042453     
   5.6400000000000006E-002     7.2567886553705705     
   5.6700000000000000E-002     7.2303809788608930     
   5.6999999999999995E-002     7.0366929483062961     
   5.7300000000000004E-002     6.6308098955071841     
   5.7599999999999998E-002     5.9749418441929549     
   5.7900000000000007E-002     5.0428772970568616     
   5.8200000000000002E-002     3.8252505238087195     
   5.8499999999999996E-002     2.3292641828352529     
   5.8800000000000005E-002    0.58067770624161597     
   5.9100000000000000E-002    -1.3773832806000428     
   5.9400000000000008E-002    -3.4876305335597948     
   5.9700000000000003E-002    -5.6804945990009230     
   6.0000000000000012E-002    -7.8787623149973705     
   6.0300000000000006E-002    -10.001829313698082     
   6.0600000000000001E-002    -11.968746341870087     
   6.0900000000000010E-002    -13.701899992320648     
   6.1200000000000004E-002    -15.131431730372071     
   6.1500000000000013E-002    -16.195964499653201     
   6.1800000000000008E-002    -16.845726993212622     
   6.2100000000000002E-002    -17.043551227244336     
   6.2399999999999997E-002    -16.765724043972000     
   6.2700000000000006E-002    -16.004664905496043     
   6.3000000000000000E-002    -14.766623365827911     
   6.3300000000000009E-002    -13.074891753376505     
   6.3600000000000004E-002    -10.969237375539933     
   6.3899999999999998E-002    -8.5045330886958652     
   6.4199999999999993E-002    -5.7532278317360976     
   6.4500000000000002E-002    -2.7998096586109540     
   6.4800000000000010E-002    0.25733248243640361     
   6.5100000000000005E-002     3.3106932013824064     
   6.5400000000000000E-002     6.2491191529249761     
   6.5700000000000008E-002     8.9580331871463414     
   6.5999999999999989E-002     11.330466547920334     
   6.6299999999999998E-002     13.268571787651254     
   6.6600000000000006E-002     14.690953568486094     
   6.6900000000000001E-002     15.539346576029402     
   6.7199999999999996E-002     15.780129800825705     
   6.7500000000000004E-002     15.410745160179260     
   6.7800000000000013E-002     14.458746037853530     
   6.8099999999999994E-002     12.982637290066123     
   6.8400000000000002E-002     11.069277913053782     
   6.8700000000000011E-002     8.8286975829238088     
   6.8999999999999992E-002     6.3895893366418761     
   6.9300000000000000E-002     3.8911049120724073     
   6.9600000000000009E-002     1.4732346793808606     
   6.9900000000000004E-002   -0.73011165054916916     
   7.0199999999999999E-002    -2.6006122599450805     
   7.0500000000000007E-002    -4.0436273672003722     
   7.0800000000000016E-002    -4.9926674814437888     
   7.1099999999999997E-002    -5.4169815956444296     
   7.1400000000000005E-002    -5.3206524982048791     
   7.1700000000000000E-002    -4.7435056000818463     
   7.1999999999999995E-002    -3.7593983458319542     
   7.2300000000000003E-002    -2.4676817003363780     
   7.2600000000000012E-002   -0.99026379164465261     
   7.2900000000000006E-002    0.54164525906720939     
   7.3200000000000001E-002     1.9953632514692856     
   7.3499999999999996E-002     3.2463078886304402     
   7.3800000000000004E-002     4.1913606292267502     
   7.4099999999999999E-002     4.7516274516763346     
   7.4400000000000008E-002     4.8829252555680220     
   7.4700000000000003E-002     4.5773557510537159     
   7.5000000000000011E-002     3.8628338387229348     
   7.5299999999999992E-002     2.8025499754721039     
   7.5600000000000001E-002     1.4856891476461485     
   7.5900000000000009E-002     2.2028742649332855E-002
   7.6200000000000004E-002    -1.4697223935694268     
   7.6499999999999999E-002    -2.8730424922820106     
   7.6800000000000007E-002    -4.0828051875622151     
   7.7099999999999988E-002    -5.0162166207758752     
   7.7399999999999997E-002    -5.6183204332403847     
   7.7700000000000005E-002    -5.8677212301043653     
   7.8000000000000014E-002    -5.7762514307207056     
   7.8299999999999995E-002    -5.3863849219676752     
   7.8600000000000003E-002    -4.7659223188300928     
   7.8900000000000012E-002    -3.9994666203766087     
   7.9199999999999993E-002    -3.1794125807929561     
   7.9500000000000001E-002    -2.3949179781936252     
   7.9800000000000010E-002    -1.7242206649746450     
   8.0100000000000018E-002    -1.2255093691661543     
   8.0399999999999999E-002   -0.93310722760609011     
   8.0700000000000008E-002   -0.85527070862051602     
   8.1000000000000003E-002   -0.97463582732105891     
   8.1299999999999997E-002    -1.2536109879678889     
   8.1600000000000006E-002    -1.6379904767611357     
   8.1900000000000014E-002    -2.0667805147665153     
   8.2199999999999995E-002    -2.4783508849662788     
   8.2500000000000004E-002    -2.8172377923569467     
   8.2799999999999999E-002    -3.0410095653308318     
   8.3100000000000007E-002    -3.1221539491423158     
   8.3400000000000002E-002    -3.0512725530673777     
   8.3700000000000011E-002    -2.8354244531979873     
   8.4000000000000005E-002    -2.4955945529474519     
   8.4300000000000000E-002    -2.0629403439633549     
   8.4599999999999995E-002    -1.5737512799764630     
   8.4900000000000003E-002    -1.0655911817794426     
   8.5199999999999998E-002   -0.57119939188458879     
   8.5500000000000007E-002   -0.11713976762294376     
   8.5800000000000001E-002    0.28024664651150744     
   8.6100000000000010E-002    0.61462185697443772     
   8.6399999999999991E-002    0.88956153981679975     
   8.6699999999999999E-002     1.1173832148435006     
   8.7000000000000008E-002     1.3148367381523638     
   8.7300000000000003E-002     1.5029747572723089     
   8.7599999999999997E-002     1.7007974764506670     
   8.7900000000000006E-002     1.9247478827875071     
   8.8200000000000014E-002     2.1860472834627416     
   8.8499999999999995E-002     2.4875960713931349     
   8.8800000000000004E-002     2.8265686015522888     
   8.9100000000000013E-002     3.1924444871379407     
   8.9399999999999993E-002     3.5715930484290226     
   8.9700000000000002E-002     3.9482294378491076     
   9.0000000000000011E-002     4.3075716274283735     
   9.0299999999999991E-002     4.6404254916597552     
   9.0600000000000000E-002     4.9417460118678775     
   9.0900000000000009E-002     5.2146243300229003     
   9.1200000000000017E-002     5.4679632560204112     
   9.1499999999999998E-002     5.7139487817214558     
   9.1800000000000007E-002     5.9657285508360474     
   9.2100000000000001E-002     6.2314505745644624     
   9.2399999999999996E-002     6.5120224901941697     
   9.2700000000000005E-002     6.7961284724177062     
   9.3000000000000013E-002     7.0606862474047318     
   9.3300000000000008E-002     7.2704490331297791     
   9.3600000000000003E-002     7.3813686728671541     
   9.3899999999999997E-002     7.3467935171244676     
   9.4200000000000006E-002     7.1234505548282812     
   9.4500000000000001E-002     6.6795958628957806     
   9.4800000000000009E-002     5.9995323735783188     
   9.5100000000000004E-002     5.0900419178387324     
   9.5399999999999999E-002     3.9786378652789836     
   9.5699999999999993E-002     2.7104538538503462     
   9.6000000000000002E-002     1.3437745046887013     
   9.6300000000000011E-002    -6.3548277523992169E-002
   9.6600000000000005E-002    -1.4611318754986655     
   9.6900000000000000E-002    -2.8201306991707469     
   9.7200000000000009E-002    -4.1400109978198429     
   9.7499999999999989E-002    -5.4518575094778896     
   9.7799999999999998E-002    -6.8204965042388785     
   9.8100000000000007E-002    -8.3317778550450328     
   9.8400000000000015E-002    -10.083671186613216     
   9.8699999999999996E-002    -12.166518585702562     
   9.9000000000000005E-002    -14.641014810033852     
   9.9300000000000013E-002    -17.521218600494791     
   9.9599999999999994E-002    -20.753548392694597     
   9.9900000000000003E-002    -24.207510477625192     
  0.10020000000000001         -27.672580824239674     
  0.10049999999999999         -30.862895933079471     
  0.10080000000000000         -33.436670330594779     
  0.10110000000000001         -35.020588816303928     
  0.10140000000000000         -35.244909955190678     
  0.10170000000000000         -33.783040515232528     
  0.10200000000000001         -30.388798266444610     
  0.10230000000000002         -24.933479878091475     
  0.10260000000000000         -17.435143569554896     
  0.10290000000000001         -8.0742571042203934     
  0.10320000000000000          2.8027742809843517     
  0.10350000000000001          14.695463173738176     
  0.10380000000000000          26.977920720699899     
  0.10410000000000001          38.937585402514060     
  0.10440000000000001          49.831378213907328     
  0.10470000000000000          58.936929221600735     
  0.10500000000000000          65.614343734710133     
  0.10530000000000000          69.362125754849529     
  0.10560000000000000          69.851344231153462     
  0.10590000000000001          66.966244275501936     
  0.10620000000000000          60.808009239119883     
  0.10650000000000001          51.691151189104858     
  0.10679999999999999          40.126547642479409     
  0.10710000000000000          26.770076670914307     
  0.10740000000000001          12.386983388726151     
  0.10770000000000000         -2.2150270846464082     
  0.10800000000000000         -16.240171109393486     
  0.10830000000000001         -28.956008710211790     
  0.10859999999999999         -39.746947805520449     
  0.10890000000000000         -48.143158612031357     
  0.10920000000000001         -53.845372596425932     
  0.10950000000000001         -56.731889810852692     
  0.10979999999999999         -56.853037507809233     
  0.11009999999999999         -54.412758368179539     
  0.11040000000000001         -49.743584259497084     
  0.11070000000000001         -43.273179554160379     
  0.11100000000000000         -35.488422177942425     
  0.11130000000000000         -26.902557225782061     
  0.11160000000000002         -18.018341213640781     
  0.11190000000000001         -9.3031650945996915     
  0.11220000000000001         -1.1646883298290618     
  0.11250000000000000          6.0664594021828293     
  0.11280000000000000          12.145101265730887     
  0.11309999999999999          16.917704916527555     
  0.11340000000000001          20.317452779240625     
  0.11369999999999998          22.360515480280810     
  0.11400000000000000          23.134775282415234     
  0.11430000000000000          22.783609232814158     
  0.11460000000000002          21.493951486540595     
  0.11489999999999999          19.476968884583584     
  0.11520000000000001          16.953432684251823     
  0.11550000000000001          14.137669908832663     
  0.11580000000000000          11.226194350740400     
  0.11609999999999999          8.3867437059258805     
  0.11640000000000002          5.7526544110598792     
  0.11670000000000001          3.4201655980036421     
  0.11700000000000001          1.4470270657139999     
  0.11730000000000000        -0.14007795756885599     
  0.11760000000000000         -1.3473265303014443     
  0.11789999999999999         -2.1992574312084230     
  0.11820000000000001         -2.7373190834595107     
  0.11850000000000001         -3.0132640871941305     
  0.11880000000000000         -3.0776651667125776     
  0.11910000000000000         -2.9853707377560981     
  0.11940000000000002         -2.7818538529629393     
  0.11970000000000001         -2.5089860793663661     
  0.12000000000000001         -2.2027732611998019     
  0.12030000000000000         -1.8882170351299976     
  0.12060000000000000         -1.5896114245174999     
  0.12089999999999999         -1.3206778083614665     
  0.12119999999999999         -1.0918578877549940     
  0.12150000000000001        -0.90999858032092718     
  0.12180000000000001        -0.77445281018896495     
  0.12210000000000000        -0.68488429703210230     
  0.12239999999999999        -0.63487360886603739     
  0.12270000000000002        -0.61686887914860478     
  0.12300000000000001        -0.62200623325002979     
  0.12330000000000001        -0.64048275753922113     
  0.12360000000000000        -0.66435108646174257     
  0.12390000000000000        -0.68552162592380483     
  0.12419999999999999        -0.69969448750949326     
  0.12450000000000001        -0.70295806480250889     
  0.12480000000000001        -0.69631498742398890     
  0.12509999999999999        -0.67982602654900504     
  0.12540000000000001        -0.65591393212670823     
  0.12570000000000003        -0.62743337944172239     
  0.12600000000000000        -0.59438482308818763     
  0.12630000000000002        -0.56041405796369403     
  0.12659999999999999        -0.52319024375899836     
  0.12690000000000001        -0.48223444675819671     
  0.12719999999999998        -0.43584804120422405     
  0.12750000000000000        -0.38019559613100640     
  0.12780000000000002        -0.31648303296964642     
  0.12809999999999999        -0.24196182140725409     
  0.12840000000000001        -0.15838316983437473     
  0.12869999999999998         -6.9078126226111980E-002
  0.12900000000000000          2.4180738981725014E-002
  0.12930000000000003         0.11478815511265861     
  0.12959999999999999         0.19922821309734839     
  0.12990000000000002         0.27298129103857827     
  0.13019999999999998         0.33118993061401580     
  0.13050000000000000         0.37366244934496073     
  0.13080000000000003         0.39768314030747121     
  0.13109999999999999         0.40475449294856514     
  0.13140000000000002         0.39755174316333974     
  0.13169999999999998         0.37734947052861223     
  0.13200000000000001         0.34954167817623194     
  0.13229999999999997         0.31672723652141066     
  0.13260000000000000         0.28163559149999884     
  0.13290000000000002         0.24833899525678849     
  0.13319999999999999         0.21651401725632180     
  0.13350000000000001         0.18828849470744125     
  0.13380000000000003         0.16325324684844755     
  0.13410000000000000         0.13903403794386548     
  0.13440000000000002         0.11620735099820045     
  0.13469999999999999          9.0703889339869281E-002
  0.13500000000000001          6.2718836793212995E-002
  0.13529999999999998          3.1950329890326257E-002
  0.13560000000000000         -2.8826361711031812E-003
  0.13590000000000002         -3.7239457117537178E-002
  0.13619999999999999         -7.1246170687782495E-002
  0.13650000000000001         -9.9509067212764535E-002
  0.13680000000000003        -0.11756571707152874     
  0.13710000000000000        -0.12360935508486381     
  0.13740000000000002        -0.11193937127880860     
  0.13769999999999999         -8.4725379063524064E-002
  0.13800000000000001         -4.1264518268418648E-002
  0.13829999999999998          1.3824458614174667E-002
  0.13860000000000000          7.2609325526765245E-002
  0.13890000000000002         0.12929341375851466     
  0.13919999999999999         0.17186596603214177     
  0.13950000000000001         0.19395134017745352     
  0.13979999999999998         0.18847298024757464     
  0.14010000000000000         0.15144549439442034     
  0.14040000000000002          8.6168479249627367E-002
  0.14069999999999999         -3.6044898352125543E-003
  0.14100000000000001        -0.10561649491981662     
  0.14130000000000004        -0.20679285179036633     
  0.14160000000000000        -0.29183806441673266     
  0.14189999999999997        -0.34505311292497876     
  0.14219999999999999        -0.35687686053682999     
  0.14250000000000002        -0.31941672240937002     
  0.14279999999999998        -0.23413406058824382     
  0.14310000000000000        -0.10914259582558583     
  0.14339999999999997          4.1863303728556955E-002
  0.14369999999999999         0.19752514922345199     
  0.14400000000000002         0.33657145176730552     
  0.14429999999999998         0.43753339194181606     
  0.14460000000000001         0.48303228373510798     
  0.14490000000000003         0.46475360704735991     
  0.14520000000000000         0.38153575417863728     
  0.14550000000000002         0.24366238001500945     
  0.14579999999999999          7.1534548374025064E-002
  0.14610000000000001        -0.11018675926413302     
  0.14640000000000003        -0.27057791658715225     
  0.14670000000000000        -0.38307694206623744     
  0.14699999999999996        -0.42607548537109530     
  0.14729999999999999        -0.38636994028260752     
  0.14760000000000001        -0.26646886667808123     
  0.14789999999999998         -7.8844368847001078E-002
  0.14820000000000000         0.14973526389752534     