  -1.4999999999999999E-002     0.0000000000000000     
  -1.4700000000000000E-002     0.0000000000000000     
  -1.4400000000000000E-002     0.0000000000000000     
  -1.4100000000000000E-002     0.0000000000000000     
  -1.3800000000000000E-002     0.0000000000000000     
  -1.3500000000000000E-002     0.0000000000000000     
  -1.3200000000000000E-002     0.0000000000000000     
  -1.2899999999999998E-002     0.0000000000000000     
  -1.2600000000000000E-002     0.0000000000000000     
  -1.2299999999999998E-002     0.0000000000000000     
  -1.2000000000000000E-002     0.0000000000000000     
  -1.1699999999999999E-002     0.0000000000000000     
  -1.1399999999999999E-002     0.0000000000000000     
  -1.1099999999999999E-002     0.0000000000000000     
  -1.0799999999999999E-002     0.0000000000000000     
  -1.0499999999999999E-002     0.0000000000000000     
  -1.0199999999999999E-002     0.0000000000000000     
  -9.8999999999999991E-003     0.0000000000000000     
  -9.5999999999999992E-003     0.0000000000000000     
  -9.2999999999999992E-003     0.0000000000000000     
  -8.9999999999999993E-003     0.0000000000000000     
  -8.6999999999999994E-003     0.0000000000000000     
  -8.3999999999999995E-003     0.0000000000000000     
  -8.0999999999999996E-003     0.0000000000000000     
  -7.7999999999999988E-003     0.0000000000000000     
  -7.4999999999999997E-003     0.0000000000000000     
  -7.1999999999999998E-003     0.0000000000000000     
  -6.8999999999999981E-003     0.0000000000000000     
  -6.5999999999999982E-003     0.0000000000000000     
  -6.3000000000000000E-003     0.0000000000000000     
  -6.0000000000000001E-003     0.0000000000000000     
  -5.6999999999999985E-003     0.0000000000000000     
  -5.3999999999999986E-003     0.0000000000000000     
  -5.1000000000000004E-003     0.0000000000000000     
  -4.7999999999999987E-003     0.0000000000000000     
  -4.5000000000000005E-003     0.0000000000000000     
  -4.1999999999999989E-003     0.0000000000000000     
  -3.8999999999999990E-003     0.0000000000000000     
  -3.5999999999999990E-003     0.0000000000000000     
  -3.2999999999999991E-003     0.0000000000000000     
  -2.9999999999999992E-003     0.0000000000000000     
  -2.6999999999999993E-003     0.0000000000000000     
  -2.3999999999999994E-003     0.0000000000000000     
  -2.0999999999999977E-003     0.0000000000000000     
  -1.7999999999999995E-003     0.0000000000000000     
  -1.4999999999999979E-003     0.0000000000000000     
  -1.1999999999999997E-003     0.0000000000000000     
  -8.9999999999999976E-004     0.0000000000000000     
  -5.9999999999999810E-004     0.0000000000000000     
  -2.9999999999999992E-004     0.0000000000000000     
   0.0000000000000000          0.0000000000000000     
   3.0000000000000165E-004     1.4078941183574765E-036
   5.9999999999999984E-004     6.8553806000201795E-036
   9.0000000000000149E-004    -1.3263235347825448E-035
   1.2000000000000031E-003    -2.0055009822248826E-035
   1.5000000000000013E-003     2.0497285553942755E-034
   1.8000000000000030E-003     7.8876772966129388E-034
   2.1000000000000012E-003    -1.2064988408446908E-033
   2.3999999999999994E-003    -9.0140389223067317E-033
   2.7000000000000010E-003     6.2845366315935645E-033
   2.9999999999999992E-003     6.2959577347061539E-032
   3.3000000000000008E-003    -1.1282638694270111E-032
   3.6000000000000025E-003    -3.3692221268296746E-031
   3.9000000000000007E-003    -5.9869737548679369E-031
   4.2000000000000023E-003     2.7644215376536376E-030
   4.5000000000000005E-003     7.6101376378449524E-030
   4.7999999999999987E-003    -3.3542390125233591E-029
   5.1000000000000004E-003    -2.6088580822827659E-029
   5.4000000000000020E-003     2.7611949279120429E-028
   5.7000000000000037E-003    -2.1625504195783808E-028
   5.9999999999999984E-003    -1.1395589776948251E-027
   6.3000000000000000E-003     2.4479311076190357E-027
   6.6000000000000017E-003     1.2150168166194198E-027
   6.9000000000000034E-003    -1.0169477870512211E-026
   7.2000000000000015E-003     1.0818993122024939E-026
   7.5000000000000032E-003     3.4518913860902814E-026
   7.8000000000000014E-003    -2.4929557674891127E-025
   8.0999999999999996E-003     7.4889617638257724E-025
   8.4000000000000012E-003    -1.1860671621417641E-025
   8.7000000000000029E-003    -9.4744916287166530E-024
   9.0000000000000011E-003     4.6942323057541551E-023
   9.2999999999999992E-003    -1.2153601313505623E-022
   9.6000000000000009E-003     1.2508858826829026E-022
   9.8999999999999991E-003     4.2688153967865679E-022
   1.0200000000000001E-002    -2.7276494764231328E-021
   1.0500000000000002E-002     8.6962507539658482E-021
   1.0800000000000004E-002    -2.0360121815390788E-020
   1.1099999999999999E-002     4.1014341881461123E-020
   1.1400000000000000E-002    -9.3099992198758747E-020
   1.1700000000000002E-002     3.1247047492162671E-019
   1.2000000000000004E-002    -1.3283693456989071E-018
   1.2300000000000002E-002     5.6366721509614287E-018
   1.2600000000000000E-002    -2.2386245343512479E-017
   1.2900000000000002E-002     8.4283206088261303E-017
   1.3200000000000000E-002    -3.1025331903289366E-016
   1.3500000000000002E-002     1.1516491826138778E-015
   1.3800000000000003E-002    -4.3931393455497441E-015
   1.4100000000000001E-002     1.7158537841976441E-014
   1.4400000000000000E-002    -6.6726477316626787E-014
   1.4700000000000001E-002     2.4701546147073983E-013
   1.4999999999999999E-002    -8.2122140034404656E-013
   1.5300000000000001E-002     2.2430915631865833E-012
   1.5600000000000003E-002    -3.9903891822790083E-012
   1.5899999999999997E-002    -1.9059046875435914E-012
   1.6199999999999999E-002     4.9487518249957674E-011
   1.6500000000000001E-002    -2.1447395248674894E-010
   1.6800000000000002E-002     4.9801829327122960E-010
   1.7100000000000004E-002    -2.8301153087717523E-010
   1.7400000000000006E-002    -2.3622805933598556E-009
   1.7700000000000000E-002     8.3571389808412277E-009
   1.8000000000000002E-002    -7.3369283981605804E-009
   1.8300000000000004E-002    -2.6043831979905008E-008
   1.8600000000000005E-002     7.3895250807254342E-008
   1.8900000000000000E-002     1.4172293560932303E-008
   1.9200000000000002E-002    -2.8658786277446779E-007
   1.9500000000000003E-002     6.9973637550901913E-008
   1.9799999999999998E-002     8.8694952182777342E-007
   2.0100000000000000E-002    -1.0595712751637620E-008
   2.0400000000000001E-002    -2.6947211608785437E-006
   2.0700000000000003E-002    -1.8397240637568757E-006
   2.0999999999999998E-002     9.6772737379069440E-006
   2.1299999999999999E-002     3.3731936127878726E-005
   2.1600000000000001E-002     6.6840446379501373E-005
   2.1900000000000003E-002     1.0803349869092926E-004
   2.2200000000000004E-002     1.6444771608803421E-004
   2.2500000000000006E-002     2.5172182358801365E-004
   2.2800000000000001E-002     3.9192795520648360E-004
   2.3100000000000002E-002     6.1090168310329318E-004
   2.3400000000000004E-002     9.4073230866342783E-004
   2.3699999999999999E-002     1.4268432278186083E-003
   2.4000000000000000E-002     2.1333924960345030E-003
   2.4300000000000002E-002     3.1473389826714993E-003
   2.4599999999999997E-002     4.5836307108402252E-003
   2.4900000000000005E-002     6.5895435400307178E-003
   2.5200000000000000E-002     9.3446485698223114E-003
   2.5499999999999995E-002     1.3060624711215496E-002
   2.5800000000000003E-002     1.7984222620725632E-002
   2.6099999999999998E-002     2.4394622072577477E-002
   2.6400000000000007E-002     3.2588064670562744E-002
   2.6700000000000002E-002     4.2853649705648422E-002
   2.6999999999999996E-002     5.5443253368139267E-002
   2.7300000000000005E-002     7.0528194308280945E-002
   2.7600000000000000E-002     8.8142089545726776E-002
   2.7900000000000008E-002    0.10812145471572876     
   2.8200000000000003E-002    0.13003949820995331     
   2.8499999999999998E-002    0.15312619507312775     
   2.8800000000000006E-002    0.17620453238487244     
   2.9100000000000001E-002    0.19762876629829407     
   2.9400000000000003E-002    0.21528178453445435     
   2.9700000000000004E-002    0.22659157216548920     
   3.0000000000000006E-002    0.22859840095043182     
   3.0300000000000001E-002    0.21810935437679291     
   3.0600000000000002E-002    0.19187550246715546     
   3.0900000000000004E-002    0.14689780771732330     
   3.1199999999999999E-002     8.0754786729812622E-002
   3.1500000000000007E-002    -8.0413538962602615E-003
   3.1800000000000002E-002   -0.11965933442115784     
   3.2099999999999997E-002   -0.25264498591423035     
   3.2400000000000005E-002   -0.40361431241035461     
   3.2700000000000000E-002   -0.56712317466735840     
   3.3000000000000002E-002   -0.73572707176208496     
   3.3300000000000003E-002   -0.90012645721435547     
   3.3599999999999998E-002    -1.0496658086776733     
   3.3900000000000000E-002    -1.1729180812835693     
   3.4200000000000001E-002    -1.2584829330444336     
   3.4500000000000003E-002    -1.2959218025207520     
   3.4799999999999998E-002    -1.2766542434692383     
   3.5099999999999999E-002    -1.1949131488800049     
   3.5400000000000001E-002    -1.0484786033630371     
   3.5699999999999996E-002   -0.83920836448669434     
   3.6000000000000004E-002   -0.57330709695816040     
   3.6299999999999999E-002   -0.26110705733299255     
   3.6600000000000008E-002     8.3299502730369568E-002
   3.6900000000000002E-002    0.44302925467491150     
   3.7199999999999997E-002    0.79942721128463745     
   3.7500000000000006E-002     1.1333622932434082     
   3.7800000000000000E-002     1.4267834424972534     
   3.8100000000000009E-002     1.6637904644012451     
   3.8400000000000004E-002     1.8320047855377197     
   3.8699999999999998E-002     1.9234167337417603     
   3.9000000000000007E-002     1.9348186254501343     
   3.9300000000000002E-002     1.8681204319000244     
   3.9600000000000003E-002     1.7298872470855713     
   3.9900000000000005E-002     1.5307736396789551     
   4.0200000000000000E-002     1.2846568822860718     
   4.0500000000000001E-002     1.0073071718215942     
   4.0800000000000003E-002    0.71533745527267456     
   4.1100000000000005E-002    0.42487549781799316     
   4.1399999999999999E-002    0.15043558180332184     
   4.1700000000000008E-002    -9.5950409770011902E-002
   4.2000000000000003E-002   -0.30530300736427307     
   4.2299999999999997E-002   -0.47211983799934387     
   4.2600000000000006E-002   -0.59419757127761841     
   4.2900000000000001E-002   -0.67254376411437988     
   4.3200000000000002E-002   -0.71082961559295654     
   4.3500000000000004E-002   -0.71467536687850952     
   4.3799999999999999E-002   -0.69109690189361572     
   4.4100000000000000E-002   -0.64753705263137817     
   4.4400000000000002E-002   -0.59140211343765259     
   4.4700000000000004E-002   -0.52943772077560425     
   4.4999999999999998E-002   -0.46717581152915955     
   4.5300000000000000E-002   -0.40895697474479675     
   4.5600000000000002E-002   -0.35759764909744263     
   4.5899999999999996E-002   -0.31460717320442200     
   4.6200000000000005E-002   -0.28045666217803955     
   4.6500000000000000E-002   -0.25457453727722168     
   4.6799999999999994E-002   -0.23603035509586334     
   4.7100000000000003E-002   -0.22362728416919708     
   4.7399999999999998E-002   -0.21621184051036835     
   4.7700000000000006E-002   -0.21315331757068634     
   4.8000000000000001E-002   -0.21411867439746857     
   4.8300000000000010E-002   -0.21954388916492462     
   4.8600000000000004E-002   -0.23035195469856262     
   4.8899999999999999E-002   -0.24776569008827209     
   4.9200000000000008E-002   -0.27333965897560120     
   4.9500000000000002E-002   -0.30824497342109680     
   4.9800000000000011E-002   -0.35329204797744751     
   5.0100000000000006E-002   -0.40840288996696472     
   5.0400000000000000E-002   -0.47215351462364197     
   5.0700000000000009E-002   -0.54189801216125488     
   5.1000000000000004E-002   -0.61322277784347534     
   5.1299999999999998E-002   -0.68027061223983765     
   5.1600000000000007E-002   -0.73595917224884033     
   5.1900000000000002E-002   -0.77216118574142456     
   5.2200000000000010E-002   -0.78074890375137329     
   5.2500000000000005E-002   -0.75387895107269287     
   5.2800000000000000E-002   -0.68505096435546875     
   5.3099999999999994E-002   -0.57005357742309570     
   5.3400000000000003E-002   -0.40729248523712158     
   5.3699999999999998E-002   -0.19885626435279846     
   5.4000000000000006E-002     4.9627788364887238E-002
   5.4300000000000001E-002    0.32890230417251587     
   5.4599999999999996E-002    0.62626546621322632     
   5.4900000000000004E-002    0.92670637369155884     
   5.5199999999999999E-002     1.2135545015335083     
   5.5499999999999994E-002     1.4699186086654663     
   5.5800000000000002E-002     1.6800785064697266     
   5.6099999999999997E-002     1.8305163383483887     
   5.6400000000000006E-002     1.9113972187042236     
   5.6700000000000000E-002     1.9172697067260742     
   5.6999999999999995E-002     1.8475077152252197     
   5.7300000000000004E-002     1.7066081762313843     
   5.7599999999999998E-002     1.5035506486892700     
   5.7900000000000007E-002     1.2513028383255005     
   5.8200000000000002E-002    0.96571165323257446     
   5.8499999999999996E-002    0.66396415233612061     
   5.8800000000000005E-002    0.36358186602592468     
   5.9100000000000000E-002     8.0785445868968964E-002
   5.9400000000000008E-002   -0.17062912881374359     
   5.9700000000000003E-002   -0.38008281588554382     
   6.0000000000000012E-002   -0.54103034734725952     
   6.0300000000000006E-002   -0.65106505155563354     
   6.0600000000000001E-002   -0.71185690164566040     
   6.0900000000000010E-002   -0.72889786958694458     
   6.1200000000000004E-002   -0.71058857440948486     
   6.1500000000000013E-002   -0.66770535707473755     
   6.1800000000000008E-002   -0.61231130361557007     
   6.2100000000000002E-002   -0.55689859390258789     
   6.2399999999999997E-002   -0.51373207569122314     
   6.2700000000000006E-002   -0.49370852112770081     
   6.3000000000000000E-002   -0.50613695383071899     
   6.3300000000000009E-002   -0.55795389413833618     
   6.3600000000000004E-002   -0.65328192710876465     
   6.3899999999999998E-002   -0.79330718517303467     
   6.4199999999999993E-002   -0.97568207979202271     
   6.4500000000000002E-002    -1.1946257352828979     
   6.4800000000000010E-002    -1.4407733678817749     
   6.5100000000000005E-002    -1.7012249231338501     
   6.5400000000000000E-002    -1.9599124193191528     
   6.5700000000000008E-002    -2.1979684829711914     
   6.5999999999999989E-002    -2.3946921825408936     
   6.6299999999999998E-002    -2.5286171436309814     
   6.6600000000000006E-002    -2.5788235664367676     
   6.6900000000000001E-002    -2.5265970230102539     
   6.7199999999999996E-002    -2.3570382595062256     
   6.7500000000000004E-002    -2.0606503486633301     
   6.7800000000000013E-002    -1.6347974538803101     
   6.8099999999999994E-002    -1.0847295522689819     
   6.8400000000000002E-002   -0.42435604333877563     
   6.8700000000000011E-002    0.32402691245079041     
   6.8999999999999992E-002     1.1302495002746582     
   6.9300000000000000E-002     1.9578491449356079     
   6.9600000000000009E-002     2.7660975456237793     
   6.9900000000000004E-002     3.5124223232269287     
   7.0199999999999999E-002     4.1552762985229492     
   7.0500000000000007E-002     4.6570768356323242     
   7.0800000000000016E-002     4.9869074821472168     
   7.1099999999999997E-002     5.1229166984558105     
   7.1400000000000005E-002     5.0541749000549316     
   7.1700000000000000E-002     4.7815685272216797     
   7.1999999999999995E-002     4.3179440498352051     
   7.2300000000000003E-002     3.6872224807739258     
   7.2600000000000012E-002     2.9226844310760498     
   7.2900000000000006E-002     2.0646932125091553     
   7.3200000000000001E-002     1.1573491096496582     
   7.3499999999999996E-002    0.24580565094947815     
   7.3800000000000004E-002   -0.62760841846466064     
   7.4099999999999999E-002    -1.4257838726043701     
   7.4400000000000008E-002    -2.1196439266204834     
   7.4700000000000003E-002    -2.6896343231201172     
   7.5000000000000011E-002    -3.1262974739074707     
   7.5299999999999992E-002    -3.4302487373352051     
   7.5600000000000001E-002    -3.6107943058013916     
   7.5900000000000009E-002    -3.6838059425354004     
   7.6200000000000004E-002    -3.6694374084472656     
   7.6499999999999999E-002    -3.5889647006988525     
   7.6800000000000007E-002    -3.4619596004486084     
   7.7099999999999988E-002    -3.3042407035827637     
   7.7399999999999997E-002    -3.1255321502685547     
   7.7700000000000005E-002    -2.9291596412658691     
   7.8000000000000014E-002    -2.7117424011230469     
   7.8299999999999995E-002    -2.4639306068420410     
   7.8600000000000003E-002    -2.1730954647064209     
   7.8900000000000012E-002    -1.8248195648193359     
   7.9199999999999993E-002    -1.4061728715896606     
   7.9500000000000001E-002   -0.90873736143112183     
   7.9800000000000010E-002   -0.32992243766784668     
   8.0100000000000018E-002    0.32405340671539307     
   8.0399999999999999E-002     1.0385090112686157     
   8.0700000000000008E-002     1.7899758815765381     
   8.1000000000000003E-002     2.5468318462371826     
   8.1299999999999997E-002     3.2725050449371338     
   8.1600000000000006E-002     3.9267697334289551     
   8.1900000000000014E-002     4.4697952270507812     
   8.2199999999999995E-002     4.8651595115661621     
   8.2500000000000004E-002     5.0821032524108887     
   8.2799999999999999E-002     5.0997066497802734     
   8.3100000000000007E-002     4.9070191383361816     
   8.3400000000000002E-002     4.5054264068603516     
   8.3700000000000011E-002     3.9089069366455078     
   8.4000000000000005E-002     3.1425106525421143     
   8.4300000000000000E-002     2.2427434921264648     
   8.4599999999999995E-002     1.2538508176803589     
   8.4900000000000003E-002    0.22604359686374664     
   8.5199999999999998E-002   -0.78702449798583984     
   8.5500000000000007E-002    -1.7328864336013794     
   8.5800000000000001E-002    -2.5617287158966064     
   8.6100000000000010E-002    -3.2306628227233887     
   8.6399999999999991E-002    -3.7062184810638428     
   8.6699999999999999E-002    -3.9655835628509521     
   8.7000000000000008E-002    -3.9994266033172607     
   8.7300000000000003E-002    -3.8112063407897949     
   8.7599999999999997E-002    -3.4176790714263916     
   8.7900000000000006E-002    -2.8479645252227783     
   8.8200000000000014E-002    -2.1410298347473145     
   8.8499999999999995E-002    -1.3442952632904053     
   8.8800000000000004E-002   -0.50968182086944580     
   8.9100000000000013E-002    0.30913874506950378     
   8.9399999999999993E-002     1.0596208572387695     
   8.9700000000000002E-002     1.6940648555755615     
   9.0000000000000011E-002     2.1719052791595459     
   9.0299999999999991E-002     2.4620859622955322     
   9.0600000000000000E-002     2.5450015068054199     
   9.0900000000000009E-002     2.4133884906768799     
   9.1200000000000017E-002     2.0730414390563965     
   9.1499999999999998E-002     1.5426325798034668     
   9.1800000000000007E-002    0.85268586874008179     
   9.2100000000000001E-002     4.4601850211620331E-002
   9.2399999999999996E-002   -0.83145684003829956     
   9.2700000000000005E-002    -1.7194795608520508     
   9.3000000000000013E-002    -2.5599303245544434     
   9.3300000000000008E-002    -3.2939784526824951     
   9.3600000000000003E-002    -3.8671057224273682     
   9.3899999999999997E-002    -4.2323803901672363     
   9.4200000000000006E-002    -4.3554582595825195     
   9.4500000000000001E-002    -4.2164402008056641     
   9.4800000000000009E-002    -3.8129842281341553     
   9.5100000000000004E-002    -3.1616377830505371     
   9.5399999999999999E-002    -2.2965328693389893     
   9.5699999999999993E-002    -1.2695962190628052     
   9.6000000000000002E-002   -0.14567951858043671     
   9.6300000000000011E-002     1.0010093450546265     
   9.6600000000000005E-002     2.0918924808502197     
   9.6900000000000000E-002     3.0518066883087158     
   9.7200000000000009E-002     3.8129127025604248     
   9.7499999999999989E-002     4.3219861984252930     
   9.7799999999999998E-002     4.5443754196166992     
   9.8100000000000007E-002     4.4660501480102539     
   9.8400000000000015E-002     4.0969471931457520     
   9.8699999999999996E-002     3.4678392410278320     
   9.9000000000000005E-002     2.6293647289276123     
   9.9300000000000013E-002     1.6474398374557495     
   9.9599999999999994E-002    0.59641379117965698     
   9.9900000000000003E-002   -0.44468423724174500     
  0.10020000000000001         -1.4013636112213135     
  0.10049999999999999         -2.2078902721405029     
  0.10080000000000000         -2.8121247291564941     
  0.10110000000000001         -3.1812553405761719     
  0.10140000000000000         -3.3007948398590088     
  0.10170000000000000         -3.1773788928985596     
  0.10200000000000001         -2.8359749317169189     
  0.10230000000000002         -2.3163309097290039     
  0.10260000000000000         -1.6709426641464233     
  0.10290000000000001        -0.95743459463119507     
  0.10320000000000000        -0.23539771139621735     
  0.10350000000000001         0.43906480073928833     
  0.10380000000000000          1.0189449787139893     
  0.10410000000000001          1.4673802852630615     
  0.10440000000000001          1.7623399496078491     
  0.10470000000000000          1.8958759307861328     
  0.10500000000000000          1.8737391233444214     
  0.10530000000000000          1.7154790163040161     
  0.10560000000000000          1.4491294622421265     
  0.10590000000000001          1.1103789806365967     
  0.10620000000000000         0.73781877756118774     
  0.10650000000000001         0.36882093548774719     
  0.10679999999999999          3.7894584238529205E-002
  0.10710000000000000        -0.22818790376186371     
  0.10740000000000001        -0.41060379147529602     
  0.10770000000000000        -0.50010120868682861     
  0.10800000000000000        -0.49764558672904968     
  0.10830000000000001        -0.41178089380264282     
  0.10859999999999999        -0.25860488414764404     
  0.10890000000000000         -5.8702725917100906E-002
  0.10920000000000001         0.16594213247299194     
  0.10950000000000001         0.39346241950988770     
  0.10979999999999999         0.60576593875885010     
  0.11009999999999999         0.78966814279556274     
  0.11040000000000001         0.93804895877838135     
  0.11070000000000001          1.0507512092590332     
  0.11100000000000000          1.1332497596740723     
  0.11130000000000000          1.1958173513412476     
  0.11160000000000002          1.2514953613281250     
  0.11190000000000001          1.3132269382476807     
  0.11220000000000001          1.3920012712478638     
  0.11250000000000000          1.4943344593048096     
  0.11280000000000000          1.6203624010086060     
  0.11309999999999999          1.7637604475021362     
  0.11340000000000001          1.9109591245651245     
  0.11369999999999998          2.0426537990570068     
  0.11400000000000000          2.1362922191619873     
  0.11430000000000000          2.1677210330963135     
  0.11460000000000002          2.1155831813812256     
  0.11489999999999999          1.9635481834411621     
  0.11520000000000001          1.7028720378875732     
  0.11550000000000001          1.3352248668670654     
  0.11580000000000000         0.87188684940338135     
  0.11609999999999999         0.33488330245018005     
  0.11640000000000002        -0.24572633206844330     
  0.11670000000000001        -0.83515685796737671     
  0.11700000000000001         -1.3955717086791992     
  0.11730000000000000         -1.8924427032470703     
  0.11760000000000000         -2.2963287830352783     
  0.11789999999999999         -2.5864660739898682     
  0.11820000000000001         -2.7541801929473877     
  0.11850000000000001         -2.8010351657867432     
  0.11880000000000000         -2.7412633895874023     
  0.11910000000000000         -2.5981953144073486     
  0.11940000000000002         -2.4010593891143799     
  0.11970000000000001         -2.1839542388916016     
  0.12000000000000001         -1.9788668155670166     
  0.12030000000000000         -1.8152573108673096     
  0.12060000000000000         -1.7160170078277588     
  0.12089999999999999         -1.6950230598449707     
  0.12119999999999999         -1.7587480545043945     
  0.12150000000000001         -1.9033466577529907     
  0.12180000000000001         -2.1185033321380615     
  0.12210000000000000         -2.3882348537445068     
  0.12239999999999999         -2.6917839050292969     
  0.12270000000000002         -3.0082156658172607     
  0.12300000000000001         -3.3152980804443359     
  0.12330000000000001         -3.5927667617797852     
  0.12360000000000000         -3.8227076530456543     
  0.12390000000000000         -3.9884111881256104     
  0.12419999999999999         -4.0771818161010742     
  0.12450000000000001         -4.0772905349731445     
  0.12480000000000001         -3.9794316291809082     
  0.12509999999999999         -3.7761349678039551     
  0.12540000000000001         -3.4613645076751709     
  0.12570000000000003         -3.0322189331054688     
  0.12600000000000000         -2.4874861240386963     
  0.12630000000000002         -1.8300129175186157     
  0.12659999999999999         -1.0661269426345825     
  0.12690000000000001        -0.20622873306274414     
  0.12719999999999998         0.73525631427764893     
  0.12750000000000000          1.7402629852294922     
  0.12780000000000002          2.7875506877899170     
  0.12809999999999999          3.8537061214447021     
  0.12840000000000001          4.9141645431518555     
  0.12869999999999998          5.9437799453735352     
  0.12900000000000000          6.9186539649963379     
  0.12930000000000003          7.8151907920837402     
  0.12959999999999999          8.6117620468139648     
  0.12990000000000002          9.2880458831787109     
  0.13019999999999998          9.8239288330078125     
  0.13050000000000000          10.201108932495117     
  0.13080000000000003          10.400866508483887     
  0.13109999999999999          10.405067443847656     
  0.13140000000000002          10.196940422058105     
  0.13169999999999998          9.7604026794433594     
  0.13200000000000001          9.0834598541259766     
  0.13229999999999997          8.1583414077758789     
  0.13260000000000000          6.9840021133422852     
  0.13290000000000002          5.5685753822326660     
  0.13319999999999999          3.9299809932708740     
  0.13350000000000001          2.0983483791351318     
  0.13380000000000003         0.11520088464021683     
  0.13410000000000000         -1.9668819904327393     
  0.13440000000000002         -4.0844182968139648     
  0.13469999999999999         -6.1677446365356445     
  0.13500000000000001         -8.1428012847900391     
  0.13529999999999998         -9.9344949722290039     
  0.13560000000000000         -11.472713470458984     
  0.13590000000000002         -12.694392204284668     
  0.13619999999999999         -13.547994613647461     
  0.13650000000000001         -13.996285438537598     
  0.13680000000000003         -14.017523765563965     
  0.13710000000000000         -13.608145713806152     
  0.13740000000000002         -12.781189918518066     
  0.13769999999999999         -11.565385818481445     
  0.13800000000000001         -10.005346298217773     
  0.13829999999999998         -8.1565685272216797     
  0.13860000000000000         -6.0846328735351562     
  0.13890000000000002         -3.8622820377349854     
  0.13919999999999999         -1.5650728940963745     
  0.13950000000000001         0.72811967134475708     
  0.13979999999999998          2.9413547515869141     
  0.14010000000000000          5.0010204315185547     
  0.14040000000000002          6.8382244110107422     
  0.14069999999999999          8.3934526443481445     
  0.14100000000000001          9.6139411926269531     
  0.14130000000000004          10.459686279296875     
  0.14160000000000000          10.903413772583008     
  0.14189999999999997          10.930566787719727     
  0.14219999999999999          10.544959068298340     
  0.14250000000000002          9.7644777297973633     
  0.14279999999999998          8.6244325637817383     
  0.14310000000000000          7.1772713661193848     
  0.14339999999999997          5.4876489639282227     
  0.14369999999999999          3.6347503662109375     
  0.14400000000000002          1.7049385309219360     
  0.14429999999999998        -0.21048063039779663     
  0.14460000000000001         -2.0186896324157715     
  0.14490000000000003         -3.6339230537414551     
  0.14520000000000000         -4.9778513908386230     
  0.14550000000000002         -5.9873166084289551     
  0.14579999999999999         -6.6168951988220215     
  0.14610000000000001         -6.8404555320739746     
  0.14640000000000003         -6.6560945510864258     
  0.14670000000000000         -6.0826640129089355     
  0.14699999999999996         -5.1616544723510742     
  0.14729999999999999         -3.9547827243804932     
  0.14760000000000001         -2.5386226177215576     
  0.14789999999999998         -1.0028500556945801     
  0.14820000000000000         0.55659848451614380     