  -1.4999999999999999E-002     0.0000000000000000     
  -1.4700000000000000E-002     0.0000000000000000     
  -1.4400000000000000E-002     0.0000000000000000     
  -1.4100000000000000E-002     0.0000000000000000     
  -1.3800000000000000E-002     0.0000000000000000     
  -1.3500000000000000E-002     0.0000000000000000     
  -1.3200000000000000E-002     0.0000000000000000     
  -1.2899999999999998E-002     0.0000000000000000     
  -1.2600000000000000E-002     0.0000000000000000     
  -1.2299999999999998E-002     0.0000000000000000     
  -1.2000000000000000E-002     0.0000000000000000     
  -1.1699999999999999E-002     0.0000000000000000     
  -1.1399999999999999E-002     0.0000000000000000     
  -1.1099999999999999E-002     0.0000000000000000     
  -1.0799999999999999E-002     0.0000000000000000     
  -1.0499999999999999E-002     0.0000000000000000     
  -1.0199999999999999E-002     0.0000000000000000     
  -9.8999999999999991E-003     0.0000000000000000     
  -9.5999999999999992E-003     0.0000000000000000     
  -9.2999999999999992E-003     0.0000000000000000     
  -8.9999999999999993E-003     0.0000000000000000     
  -8.6999999999999994E-003     0.0000000000000000     
  -8.3999999999999995E-003     0.0000000000000000     
  -8.0999999999999996E-003     0.0000000000000000     
  -7.7999999999999988E-003     0.0000000000000000     
  -7.4999999999999997E-003     0.0000000000000000     
  -7.1999999999999998E-003     0.0000000000000000     
  -6.8999999999999981E-003     0.0000000000000000     
  -6.5999999999999982E-003     0.0000000000000000     
  -6.3000000000000000E-003     0.0000000000000000     
  -6.0000000000000001E-003     0.0000000000000000     
  -5.6999999999999985E-003     0.0000000000000000     
  -5.3999999999999986E-003     0.0000000000000000     
  -5.1000000000000004E-003     0.0000000000000000     
  -4.7999999999999987E-003     0.0000000000000000     
  -4.5000000000000005E-003     0.0000000000000000     
  -4.1999999999999989E-003     0.0000000000000000     
  -3.8999999999999990E-003     0.0000000000000000     
  -3.5999999999999990E-003     0.0000000000000000     
  -3.2999999999999991E-003     0.0000000000000000     
  -2.9999999999999992E-003     0.0000000000000000     
  -2.6999999999999993E-003     0.0000000000000000     
  -2.3999999999999994E-003     0.0000000000000000     
  -2.0999999999999977E-003     0.0000000000000000     
  -1.7999999999999995E-003     0.0000000000000000     
  -1.4999999999999979E-003     0.0000000000000000     
  -1.1999999999999997E-003     0.0000000000000000     
  -8.9999999999999976E-004     0.0000000000000000     
  -5.9999999999999810E-004     0.0000000000000000     
  -2.9999999999999992E-004     0.0000000000000000     
   0.0000000000000000          0.0000000000000000     
   3.0000000000000165E-004     0.0000000000000000     
   5.9999999999999984E-004     0.0000000000000000     
   9.0000000000000149E-004     0.0000000000000000     
   1.2000000000000031E-003     0.0000000000000000     
   1.5000000000000013E-003     0.0000000000000000     
   1.8000000000000030E-003     0.0000000000000000     
   2.1000000000000012E-003     0.0000000000000000     
   2.3999999999999994E-003     0.0000000000000000     
   2.7000000000000010E-003     0.0000000000000000     
   2.9999999999999992E-003     0.0000000000000000     
   3.3000000000000008E-003     0.0000000000000000     
   3.6000000000000025E-003     0.0000000000000000     
   3.9000000000000007E-003     0.0000000000000000     
   4.2000000000000023E-003     0.0000000000000000     
   4.5000000000000005E-003     0.0000000000000000     
   4.7999999999999987E-003     0.0000000000000000     
   5.1000000000000004E-003     0.0000000000000000     
   5.4000000000000020E-003     0.0000000000000000     
   5.7000000000000037E-003     0.0000000000000000     
   5.9999999999999984E-003     0.0000000000000000     
   6.3000000000000000E-003     3.1448654798594350E-038
   6.6000000000000017E-003     1.2854951817796621E-037
   6.9000000000000034E-003     6.4775432076793234E-037
   7.2000000000000015E-003    -1.1146543216689330E-035
   7.5000000000000032E-003    -8.4585716033856101E-037
   7.8000000000000014E-003     2.9503477806779024E-035
   8.0999999999999996E-003     3.7911095999750911E-035
   8.4000000000000012E-003    -1.2979065255770760E-034
   8.7000000000000029E-003    -3.0245502429282106E-034
   9.0000000000000011E-003     8.8223219860427621E-034
   9.2999999999999992E-003     9.6869813475578814E-034
   9.6000000000000009E-003    -2.4219222952303398E-034
   9.8999999999999991E-003    -1.4059661619245243E-032
   1.0200000000000001E-002     2.8360733977507430E-032
   1.0500000000000002E-002     7.2786081930785106E-032
   1.0800000000000004E-002    -1.5518315994412588E-030
   1.1099999999999999E-002     8.4538156791717364E-030
   1.1400000000000000E-002    -6.7217025149149148E-031
   1.1700000000000002E-002    -2.3882731549749644E-028
   1.2000000000000004E-002     1.3121884544839682E-027
   1.2300000000000002E-002    -1.6021508321947880E-027
   1.2600000000000000E-002    -1.7526666907474147E-026
   1.2900000000000002E-002     1.1613723709918383E-025
   1.3200000000000000E-002    -3.0019727263222563E-025
   1.3500000000000002E-002    -1.8543307823005893E-025
   1.3800000000000003E-002     4.8574803964671607E-024
   1.4100000000000001E-002    -2.1523268679132841E-023
   1.4400000000000000E-002     5.0063459440733789E-023
   1.4700000000000001E-002    -1.5312922289395992E-023
   1.4999999999999999E-002    -4.2389517745713289E-022
   1.5300000000000001E-002     2.1783110593354251E-021
   1.5600000000000003E-002    -6.6747729497775562E-021
   1.5899999999999997E-002     1.3829506434139243E-020
   1.6199999999999999E-002    -1.4625463226900479E-020
   1.6500000000000001E-002    -2.8585870851922790E-020
   1.6800000000000002E-002     2.4088223578750580E-019
   1.7100000000000004E-002    -1.0818833709718996E-018
   1.7400000000000006E-002     4.5228185061308449E-018
   1.7700000000000000E-002    -1.9368900927118894E-017
   1.8000000000000002E-002     8.3630147915222768E-017
   1.8300000000000004E-002    -3.5405905974383423E-016
   1.8600000000000005E-002     1.4536974599076429E-015
   1.8900000000000000E-002    -5.7752055391852174E-015
   1.9200000000000002E-002     2.2061211883558090E-014
   1.9500000000000003E-002    -7.9543875211838711E-014
   1.9799999999999998E-002     2.6086075541873639E-013
   2.0100000000000000E-002    -7.2434456498902395E-013
   2.0400000000000001E-002     1.4077389249939811E-012
   2.0700000000000003E-002    -2.2967339119963285E-014
   2.0999999999999998E-002    -1.5277454821284639E-011
   2.1299999999999999E-002     8.0175315528656446E-011
   2.1600000000000001E-002    -2.4367297327946346E-010
   2.1900000000000003E-002     3.9172330299803733E-010
   2.2200000000000004E-002     2.8708223948418036E-010
   2.2500000000000006E-002    -3.5259892318866789E-009
   2.2800000000000001E-002     8.5189869274963397E-009
   2.3100000000000002E-002    -2.1946796656567113E-009
   2.3400000000000004E-002    -3.6871115142224091E-008
   2.3699999999999999E-002     7.2052189789942516E-008
   2.4000000000000000E-002     5.2377821544585891E-008
   2.4300000000000002E-002    -3.1436926296033334E-007
   2.4599999999999997E-002    -6.9628903311407070E-009
   2.4900000000000005E-002     9.6043726672696478E-007
   2.5200000000000000E-002     1.4340251355174740E-007
   2.5499999999999995E-002    -2.7194750924276642E-006
   2.5800000000000003E-002    -2.2711716180788305E-006
   2.6099999999999998E-002     8.0268116671060655E-006
   2.6400000000000007E-002     2.8526360168892070E-005
   2.6700000000000002E-002     5.4379688650992583E-005
   2.6999999999999996E-002     8.4857140762609282E-005
   2.7300000000000005E-002     1.2776790596223664E-004
   2.7600000000000000E-002     1.9725533777786939E-004
   2.7900000000000008E-002     3.1111946388780523E-004
   2.8200000000000003E-002     4.8872192361357897E-004
   2.8499999999999998E-002     7.5440909842084194E-004
   2.8800000000000006E-002     1.1445146315923610E-003
   2.9100000000000001E-002     1.7112297554988734E-003
   2.9400000000000003E-002     2.5262874217141656E-003
   2.9700000000000004E-002     3.6841823931740847E-003
   3.0000000000000006E-002     5.3039306082049154E-003
   3.0300000000000001E-002     7.5313977374364682E-003
   3.0600000000000002E-002     1.0541457225042405E-002
   3.0900000000000004E-002     1.4541105534696230E-002
   3.1199999999999999E-002     1.9766006423346694E-002
   3.1500000000000007E-002     2.6466065467586786E-002
   3.1800000000000002E-002     3.4890117614134075E-002
   3.2099999999999997E-002     4.5266320748242883E-002
   3.2400000000000005E-002     5.7770054656952619E-002
   3.2700000000000000E-002     7.2477141492548469E-002
   3.3000000000000002E-002     8.9311258973905350E-002
   3.3300000000000003E-002    0.10799192059061014     
   3.3599999999999998E-002    0.12797379156488820     
   3.3900000000000000E-002    0.14838761453880700     
   3.4200000000000001E-002    0.16799800083379601     
   3.4500000000000003E-002    0.18518370350979296     
   3.4799999999999998E-002    0.19794565370785744     
   3.5099999999999999E-002    0.20394188637926103     
   3.5400000000000001E-002    0.20058323731784089     
   3.5699999999999996E-002    0.18519305438735056     
   3.6000000000000004E-002    0.15520805189423292     
   3.6299999999999999E-002    0.10843703669626858     
   3.6600000000000008E-002     4.3330383029633990E-002
   3.6900000000000002E-002    -4.0724676123227388E-002
   3.7199999999999997E-002   -0.14312654417772741     
   3.7500000000000006E-002   -0.26181887921017921     
   3.7800000000000000E-002   -0.39316233186278282     
   3.8100000000000009E-002   -0.53187444482455604     
   3.8400000000000004E-002   -0.67117489359672078     
   3.8699999999999998E-002   -0.80302724859720698     
   3.9000000000000007E-002   -0.91854451865025766     
   3.9300000000000002E-002    -1.0086123214740113     
   3.9600000000000003E-002    -1.0644622287010463     
   3.9900000000000005E-002    -1.0784464823772097     
   4.0200000000000000E-002    -1.0447455609661276     
   4.0500000000000001E-002   -0.95993170347593804     
   4.0800000000000003E-002   -0.82357682392961706     
   4.1100000000000005E-002   -0.63840929261830404     
   4.1399999999999999E-002   -0.41045925470739064     
   4.1700000000000008E-002   -0.14882869609647775     
   4.2000000000000003E-002    0.13484650790599018     
   4.2299999999999997E-002    0.42696138630231140     
   4.2600000000000006E-002    0.71295954978198850     
   4.2900000000000001E-002    0.97821941255141454     
   4.3200000000000002E-002     1.2090212542059575     
   4.3500000000000004E-002     1.3936120397645766     
   4.3799999999999999E-002     1.5228522948104555     
   4.4100000000000000E-002     1.5908772046553352     
   4.4400000000000002E-002     1.5954447069199915     
   4.4700000000000004E-002     1.5378959291128353     
   4.4999999999999998E-002     1.4231015296417695     
   4.5300000000000000E-002     1.2588862715164737     
   4.5600000000000002E-002     1.0554086089209136     
   4.5899999999999996E-002    0.82449500257589392     
   4.6200000000000005E-002    0.57863358706599044     
   4.6500000000000000E-002    0.33031819613458868     
   4.6799999999999994E-002     9.1187633993339734E-002
   4.7100000000000003E-002   -0.12865366702547743     
   4.7399999999999998E-002   -0.32093205717770346     
   4.7700000000000006E-002   -0.47977674244732782     
   4.8000000000000001E-002   -0.60159994549072238     
   4.8300000000000010E-002   -0.68515183671008728     
   4.8600000000000004E-002   -0.73134635281949656     
   4.8899999999999999E-002   -0.74290044013612544     
   4.9200000000000008E-002   -0.72402716349644436     
   4.9500000000000002E-002   -0.67995523578093042     
   4.9800000000000011E-002   -0.61651246385732250     
   5.0100000000000006E-002   -0.53976573518586335     
   5.0400000000000000E-002   -0.45564370787687736     
   5.0700000000000009E-002   -0.36964024107183668     
   5.1000000000000004E-002   -0.28658179919906956     
   5.1299999999999998E-002   -0.21046160417516280     
   5.1600000000000007E-002   -0.14432274838264680     
   5.1900000000000002E-002    -9.0263091997371703E-002
   5.2200000000000010E-002    -4.9378449393031598E-002
   5.2500000000000005E-002    -2.1853889707293073E-002
   5.2800000000000000E-002    -7.1093410893763864E-003
   5.3099999999999994E-002    -3.8288309792624542E-003
   5.3400000000000003E-002    -1.0309195396750126E-002
   5.3699999999999998E-002    -2.4593262315301123E-002
   5.4000000000000006E-002    -4.4689672659228963E-002
   5.4300000000000001E-002    -6.8916095609621308E-002
   5.4599999999999996E-002    -9.5921306156371511E-002
   5.4900000000000004E-002   -0.12496206593013515     
   5.5199999999999999E-002   -0.15590218692717084     
   5.5499999999999994E-002   -0.18913298517118182     
   5.5800000000000002E-002   -0.22554685580076317     
   5.6099999999999997E-002   -0.26608615306412986     
   5.6400000000000006E-002   -0.31152805701886699     
   5.6700000000000000E-002   -0.36207257110237379     
   5.6999999999999995E-002   -0.41688274516509516     
   5.7300000000000004E-002   -0.47390462822784407     
   5.7599999999999998E-002   -0.52958169689894774     
   5.7900000000000007E-002   -0.57887031304316494     
   5.8200000000000002E-002   -0.61549600210869926     
   5.8499999999999996E-002   -0.63229088999736049     
   5.8800000000000005E-002   -0.62194553268304986     
   5.9100000000000000E-002   -0.57774185657519794     
   5.9400000000000008E-002   -0.49432038391944566     
   5.9700000000000003E-002   -0.36871090227190884     
   6.0000000000000012E-002   -0.20076778948529256     
   6.0300000000000006E-002     6.2293369346171357E-003
   6.0600000000000001E-002    0.24537267021683018     
   6.0900000000000010E-002    0.50650567585329043     
   6.1200000000000004E-002    0.77657523974675513     
   6.1500000000000013E-002     1.0406132423261027     
   6.1800000000000008E-002     1.2829189865529642     
   6.2100000000000002E-002     1.4880382441905198     
   6.2399999999999997E-002     1.6424034132054075     
   6.2700000000000006E-002     1.7351303979733572     
   6.3000000000000000E-002     1.7590602476428217     
   6.3300000000000009E-002     1.7115088597452299     
   6.3600000000000004E-002     1.5940937809381666     
   6.3899999999999998E-002     1.4129556840334416     
   6.4199999999999993E-002     1.1779840723512862     
   6.4500000000000002E-002    0.90189113395626919     
   6.4800000000000010E-002    0.59951627308352862     
   6.5100000000000005E-002    0.28623236415656766     
   6.5400000000000000E-002    -2.2888003157203851E-002
   6.5700000000000008E-002   -0.31403169830241850     
   6.5999999999999989E-002   -0.57585856569180294     
   6.6299999999999998E-002   -0.79949659667606099     
   6.6600000000000006E-002   -0.97918389613928980     
   6.6900000000000001E-002    -1.1122446033418072     
   6.7199999999999996E-002    -1.1983863825902290     
   6.7500000000000004E-002    -1.2399869541803668     
   6.7800000000000013E-002    -1.2408341578342998     
   6.8099999999999994E-002    -1.2059819596545367     
   6.8400000000000002E-002    -1.1412061791737145     
   6.8700000000000011E-002    -1.0521531858922941     
   6.8999999999999992E-002   -0.94471732052551971     
   6.9300000000000000E-002   -0.82425070320053706     
   6.9600000000000009E-002   -0.69581162646903749     
   6.9900000000000004E-002   -0.56444674477656775     
   7.0199999999999999E-002   -0.43466702487983966     
   7.0500000000000007E-002   -0.31123247847546054     
   7.0800000000000016E-002   -0.19872767025764304     
   7.1099999999999997E-002   -0.10143806443589459     
   7.1400000000000005E-002    -2.3656870016135700E-002
   7.1700000000000000E-002     3.1304824113410068E-002
   7.1999999999999995E-002     6.0969923502987244E-002
   7.2300000000000003E-002     6.4262524480442007E-002
   7.2600000000000012E-002     4.2124692340293146E-002
   7.2900000000000006E-002    -2.8541670944106645E-003
   7.3200000000000001E-002    -6.5749079357880547E-002
   7.3499999999999996E-002   -0.13974254041214795     
   7.3800000000000004E-002   -0.21664974883889343     
   7.4099999999999999E-002   -0.28702781726978088     
   7.4400000000000008E-002   -0.34144842924988694     
   7.4700000000000003E-002   -0.37096808018136684     
   7.5000000000000011E-002   -0.36792806156611491     
   7.5299999999999992E-002   -0.32719290280685165     
   7.5600000000000001E-002   -0.24606016306537626     
   7.5900000000000009E-002   -0.12522237612887421     
   7.6200000000000004E-002     3.1379695155680232E-002
   7.6499999999999999E-002    0.21680769610207395     
   7.6800000000000007E-002    0.42120301255701165     
   7.7099999999999988E-002    0.63295960261741868     
   7.7399999999999997E-002    0.83914491264734536     
   7.7700000000000005E-002     1.0265606685163675     
   7.8000000000000014E-002     1.1828995659345551     
   7.8299999999999995E-002     1.2972995568417787     
   7.8600000000000003E-002     1.3615217346942856     
   7.8900000000000012E-002     1.3703885586394051     
   7.9199999999999993E-002     1.3220652991261090     
   7.9500000000000001E-002     1.2185023865756364     
   7.9800000000000010E-002     1.0650061201484533     
   8.0100000000000018E-002    0.87007718262164246     
   8.0399999999999999E-002    0.64478511289989804     
   8.0700000000000008E-002    0.40185895226000667     
   8.1000000000000003E-002    0.15502515719673665     
   8.1299999999999997E-002    -8.2092240895585533E-002
   8.1600000000000006E-002   -0.29691654472913420     
   8.1900000000000014E-002   -0.47864906872832336     
   8.2199999999999995E-002   -0.61911228609637803     
   8.2500000000000004E-002   -0.71321733779593188     
   8.2799999999999999E-002   -0.75918211039970274     
   8.3100000000000007E-002   -0.75889978824150006     
   8.3400000000000002E-002   -0.71733696613850384     
   8.3700000000000011E-002   -0.64237630751949482     
   8.4000000000000005E-002   -0.54436572841263953     
   8.4300000000000000E-002   -0.43505485781495246     
   8.4599999999999995E-002   -0.32723886615718456     
   8.4900000000000003E-002   -0.23355565550951329     
   8.5199999999999998E-002   -0.16573130943561498     
   8.5500000000000007E-002   -0.13392317579994373     
   8.5800000000000001E-002   -0.14562068732645805     
   8.6100000000000010E-002   -0.20540876462172886     
   8.6399999999999991E-002   -0.31427263979679054     
   8.6699999999999999E-002   -0.46915953887617157     
   8.7000000000000008E-002   -0.66317906706739649     
   8.7300000000000003E-002   -0.88535444153845333     
   8.7599999999999997E-002    -1.1210712892181931     
   8.7900000000000006E-002    -1.3527970875773008     
   8.8200000000000014E-002    -1.5607206771235269     
   8.8499999999999995E-002    -1.7240657321161876     
   8.8800000000000004E-002    -1.8222335375020222     
   8.9100000000000013E-002    -1.8362211129311987     
   8.9399999999999993E-002    -1.7503850515707455     
   8.9700000000000002E-002    -1.5535362595559192     
   9.0000000000000011E-002    -1.2405451419209292     
   9.0299999999999991E-002   -0.81341975618096152     
   9.0600000000000000E-002   -0.28162458192266904     
   9.0900000000000009E-002    0.33720194419997718     
   9.1200000000000017E-002     1.0181213927611132     
   9.1499999999999998E-002     1.7296813012916630     
   9.1800000000000007E-002     2.4353000383421062     
   9.2100000000000001E-002     3.0957679522963275     
   9.2399999999999996E-002     3.6712795259280426     
   9.2700000000000005E-002     4.1245705922181060     
   9.3000000000000013E-002     4.4234521277088845     
   9.3300000000000008E-002     4.5434059850562107     
   9.3600000000000003E-002     4.4700566801810737     
   9.3899999999999997E-002     4.2002751824475695     
   9.4200000000000006E-002     3.7431323919690271     
   9.4500000000000001E-002     3.1195489316599918     
   9.4800000000000009E-002     2.3610372255829333     
   9.5100000000000004E-002     1.5079226796952305     
   9.5399999999999999E-002    0.60601382493925726     
   9.5699999999999993E-002   -0.29635926825846859     
   9.6000000000000002E-002    -1.1523137515394737     
   9.6300000000000011E-002    -1.9197874839318700     
   9.6600000000000005E-002    -2.5648874472130245     
   9.6900000000000000E-002    -3.0639965791719703     
   9.7200000000000009E-002    -3.4052484909047109     
   9.7499999999999989E-002    -3.5890673028702764     
   9.7799999999999998E-002    -3.6268791506467721     
   9.8100000000000007E-002    -3.5397411230617024     
   9.8400000000000015E-002    -3.3550323645081050     
   9.8699999999999996E-002    -3.1035864683859700     
   9.9000000000000005E-002    -2.8160877250022196     
   9.9300000000000013E-002    -2.5196634679045076     
   9.9599999999999994E-002    -2.2356135154254346     
   9.9900000000000003E-002    -1.9769446877069754     
  0.10020000000000001         -1.7481564910438436     
  0.10049999999999999         -1.5451276949215966     
  0.10080000000000000         -1.3566425099652548     
  0.10110000000000001         -1.1667370159857100     
  0.10140000000000000        -0.95690480270248557     
  0.10170000000000000        -0.70975885057897159     
  0.10200000000000001        -0.41124178233877196     
  0.10230000000000002         -5.3376812857949929E-002
  0.10260000000000000         0.36416343705711185     
  0.10290000000000001         0.83319860192423789     
  0.10320000000000000          1.3372549349054594     
  0.10350000000000001          1.8527096503775695     
  0.10380000000000000          2.3505410106597253     
  0.10410000000000001          2.7989393132259437     
  0.10440000000000001          3.1657565433389578     
  0.10470000000000000          3.4218305594680913     
  0.10500000000000000          3.5433747222936063     
  0.10530000000000000          3.5140486913898457     
  0.10560000000000000          3.3269964172486937     
  0.10590000000000001          2.9849645756234153     
  0.10620000000000000          2.5012338926192328     
  0.10650000000000001          1.8984045648074925     
  0.10679999999999999          1.2068895016895749     
  0.10710000000000000         0.46367073077852083     
  0.10740000000000001        -0.29123425639552991     
  0.10770000000000000         -1.0164243521953331     
  0.10800000000000000         -1.6724079441492066     
  0.10830000000000001         -2.2243741732879982     
  0.10859999999999999         -2.6436446614843305     
  0.10890000000000000         -2.9104558316854963     
  0.10920000000000001         -3.0143487324698697     
  0.10950000000000001         -2.9549512489428764     
  0.10979999999999999         -2.7419419198576520     
  0.11009999999999999         -2.3936419248517637     
  0.11040000000000001         -1.9359573954738991     
  0.11070000000000001         -1.4003682020153869     
  0.11100000000000000        -0.82155809121544543     
  0.11130000000000000        -0.23562363187346413     
  0.11160000000000002         0.32233779724557188     
  0.11190000000000001         0.82024318826346843     
  0.11220000000000001          1.2299240431388512     
  0.11250000000000000          1.5293752353011740     
  0.11280000000000000          1.7025295834465268     
  0.11309999999999999          1.7400863580064367     
  0.11340000000000001          1.6401648691827475     
  0.11369999999999998          1.4071799057711942     
  0.11400000000000000          1.0530760501195169     
  0.11430000000000000         0.59589130582694594     
  0.11460000000000002          5.9743686980219479E-002
  0.11489999999999999        -0.52530270268194279     
  0.11520000000000001         -1.1254136206031227     
  0.11550000000000001         -1.7026655664127972     
  0.11580000000000000         -2.2182304498277432     
  0.11609999999999999         -2.6338404300081208     
  0.11640000000000002         -2.9135942401224355     
  0.11670000000000001         -3.0282486275430642     
  0.11700000000000001         -2.9560267401792544     
  0.11730000000000000         -2.6863390876295057     
  0.11760000000000000         -2.2210619210845657     
  0.11789999999999999         -1.5751924589338839     
  0.11820000000000001        -0.77792457203539200     
  0.11850000000000001         0.13013191147179537     
  0.11880000000000000          1.0978599976986381     
  0.11910000000000000          2.0675118613941805     
  0.11940000000000002          2.9791868899956313     
  0.11970000000000001          3.7742329210921213     
  0.12000000000000001          4.4006393562175674     
  0.12030000000000000          4.8164005531741054     
  0.12060000000000000          4.9929254286826392     
  0.12089999999999999          4.9174698377406116     
  0.12119999999999999          4.5933789374734175     
  0.12150000000000001          4.0402947247655021     
  0.12180000000000001          3.2923517677056040     
  0.12210000000000000          2.3954281048738562     
  0.12239999999999999          1.4041863947384243     
  0.12270000000000002         0.37797314326155274     
  0.12300000000000001        -0.62293292900352881     
  0.12330000000000001         -1.5410047944292273     
  0.12360000000000000         -2.3252016259587123     
  0.12390000000000000         -2.9334732819952478     
  0.12419999999999999         -3.3350832939366910     
  0.12450000000000001         -3.5122335291720788     
  0.12480000000000001         -3.4604386576131247     
  0.12509999999999999         -3.1890802857381715     
  0.12540000000000001         -2.7205108605119079     
  0.12570000000000003         -2.0886045495260639     
  0.12600000000000000         -1.3374969056642065     
  0.12630000000000002        -0.51831812236650165     
  0.12659999999999999         0.31304302347074398     
  0.12690000000000001          1.0996883434364548     
  0.12719999999999998          1.7873393401361710     
  0.12750000000000000          2.3275010267693830     
  0.12780000000000002          2.6817836664269663     
  0.12809999999999999          2.8240346902386477     
  0.12840000000000001          2.7431332239167219     
  0.12869999999999998          2.4442457180768358     
  0.12900000000000000          1.9486314525718509     
  0.12930000000000003          1.2927851755608444     
  0.12959999999999999         0.52570534997883556     
  0.12990000000000002        -0.29480657498800600     
  0.13019999999999998         -1.1066117790681886     
  0.13050000000000000         -1.8482089900928784     
  0.13080000000000003         -2.4641675612487859     
  0.13109999999999999         -2.9092631430540763     
  0.13140000000000002         -3.1529711055502219     
  0.13169999999999998         -3.1817935943634552     
  0.13200000000000001         -2.9999529368417157     
  0.13229999999999997         -2.6294346818278598     
  0.13260000000000000         -2.1071270524941319     
  0.13290000000000002         -1.4816470837315365     
  0.13319999999999999        -0.80860390485227640     
  0.13350000000000001        -0.14503755758433279     
  0.13380000000000003         0.45534066660891348     
  0.13410000000000000         0.94748816800219871     
  0.13440000000000002          1.2985247125810844     
  0.13469999999999999          1.4904702680556881     
  0.13500000000000001          1.5214951747859544     
  0.13529999999999998          1.4047798524753148     
  0.13560000000000000          1.1670590683044235     
  0.13590000000000002         0.84482084725558693     
  0.13619999999999999         0.48018922147229048     
  0.13650000000000001         0.11609486489603071     
  0.13680000000000003        -0.20825027145348951     
  0.13710000000000000        -0.46124660167111386     
  0.13740000000000002        -0.62255335462591255     
  0.13769999999999999        -0.68431262850908592     
  0.13800000000000001        -0.65178008855298009     
  0.13829999999999998        -0.54211257909814226     
  0.13860000000000000        -0.38210125920844362     
  0.13890000000000002        -0.20442803968674461     
  0.13919999999999999         -4.3447715046199598E-002
  0.13950000000000001          6.8482335462222627E-002
  0.13979999999999998         0.10570008935368858     
  0.14010000000000000          5.1860151033262358E-002
  0.14040000000000002         -9.7593561168668241E-002
  0.14069999999999999        -0.33479427451561961     
  0.14100000000000001        -0.64056718865671769     
  0.14130000000000004        -0.98563314546927216     
  0.14160000000000000         -1.3347048193738473     
  0.14189999999999997         -1.6496122841436147     
  0.14219999999999999         -1.8937639003347329     
  0.14250000000000002         -2.0364806088885743     
  0.14279999999999998         -2.0554200985158033     
  0.14310000000000000         -1.9400300415559002     
  0.14339999999999997         -1.6920807500375297     
  0.14369999999999999         -1.3252850954348698     
  0.14400000000000002        -0.86437872230821888     
  0.14429999999999998        -0.34147686880285910     
  0.14460000000000001         0.20630338495972667     
  0.14490000000000003         0.74125824337766844     
  0.14520000000000000          1.2286990703359635     
  0.14550000000000002          1.6395596455837449     
  0.14579999999999999          1.9537048866840081     
  0.14610000000000001          2.1601140810337824     
  0.14640000000000003          2.2575881170461969     
  0.14670000000000000          2.2540790111775806     
  0.14699999999999996          2.1639710791727893     
  0.14729999999999999          2.0069018849844511     
  0.14760000000000001          1.8044430945439132     
  0.14789999999999998          1.5775040304770940     
  0.14820000000000000          1.3452861053446270     