  -1.4999999999999999E-002     0.0000000000000000     
  -1.4700000000000000E-002     0.0000000000000000     
  -1.4400000000000000E-002     0.0000000000000000     
  -1.4100000000000000E-002     0.0000000000000000     
  -1.3800000000000000E-002     0.0000000000000000     
  -1.3500000000000000E-002     0.0000000000000000     
  -1.3200000000000000E-002     0.0000000000000000     
  -1.2899999999999998E-002     0.0000000000000000     
  -1.2600000000000000E-002     0.0000000000000000     
  -1.2299999999999998E-002     0.0000000000000000     
  -1.2000000000000000E-002     0.0000000000000000     
  -1.1699999999999999E-002     0.0000000000000000     
  -1.1399999999999999E-002     0.0000000000000000     
  -1.1099999999999999E-002     0.0000000000000000     
  -1.0799999999999999E-002     0.0000000000000000     
  -1.0499999999999999E-002     0.0000000000000000     
  -1.0199999999999999E-002     0.0000000000000000     
  -9.8999999999999991E-003     0.0000000000000000     
  -9.5999999999999992E-003     0.0000000000000000     
  -9.2999999999999992E-003     0.0000000000000000     
  -8.9999999999999993E-003     0.0000000000000000     
  -8.6999999999999994E-003     0.0000000000000000     
  -8.3999999999999995E-003     0.0000000000000000     
  -8.0999999999999996E-003     0.0000000000000000     
  -7.7999999999999988E-003     0.0000000000000000     
  -7.4999999999999997E-003     0.0000000000000000     
  -7.1999999999999998E-003     0.0000000000000000     
  -6.8999999999999981E-003     0.0000000000000000     
  -6.5999999999999982E-003     0.0000000000000000     
  -6.3000000000000000E-003     0.0000000000000000     
  -6.0000000000000001E-003     0.0000000000000000     
  -5.6999999999999985E-003     0.0000000000000000     
  -5.3999999999999986E-003     0.0000000000000000     
  -5.1000000000000004E-003     0.0000000000000000     
  -4.7999999999999987E-003     0.0000000000000000     
  -4.5000000000000005E-003     0.0000000000000000     
  -4.1999999999999989E-003     0.0000000000000000     
  -3.8999999999999990E-003     0.0000000000000000     
  -3.5999999999999990E-003     0.0000000000000000     
  -3.2999999999999991E-003     0.0000000000000000     
  -2.9999999999999992E-003     0.0000000000000000     
  -2.6999999999999993E-003     0.0000000000000000     
  -2.3999999999999994E-003     0.0000000000000000     
  -2.0999999999999977E-003     0.0000000000000000     
  -1.7999999999999995E-003     0.0000000000000000     
  -1.4999999999999979E-003     0.0000000000000000     
  -1.1999999999999997E-003     0.0000000000000000     
  -8.9999999999999976E-004     0.0000000000000000     
  -5.9999999999999810E-004     0.0000000000000000     
  -2.9999999999999992E-004     0.0000000000000000     
   0.0000000000000000          0.0000000000000000     
   3.0000000000000165E-004     0.0000000000000000     
   5.9999999999999984E-004     0.0000000000000000     
   9.0000000000000149E-004     0.0000000000000000     
   1.2000000000000031E-003     0.0000000000000000     
   1.5000000000000013E-003     0.0000000000000000     
   1.8000000000000030E-003     0.0000000000000000     
   2.1000000000000012E-003     0.0000000000000000     
   2.3999999999999994E-003     0.0000000000000000     
   2.7000000000000010E-003     0.0000000000000000     
   2.9999999999999992E-003     0.0000000000000000     
   3.3000000000000008E-003     0.0000000000000000     
   3.6000000000000025E-003     0.0000000000000000     
   3.9000000000000007E-003     0.0000000000000000     
   4.2000000000000023E-003     0.0000000000000000     
   4.5000000000000005E-003     0.0000000000000000     
   4.7999999999999987E-003     0.0000000000000000     
   5.1000000000000004E-003     0.0000000000000000     
   5.4000000000000020E-003     0.0000000000000000     
   5.7000000000000037E-003     0.0000000000000000     
   5.9999999999999984E-003     0.0000000000000000     
   6.3000000000000000E-003     0.0000000000000000     
   6.6000000000000017E-003     0.0000000000000000     
   6.9000000000000034E-003     0.0000000000000000     
   7.2000000000000015E-003     0.0000000000000000     
   7.5000000000000032E-003     0.0000000000000000     
   7.8000000000000014E-003     0.0000000000000000     
   8.0999999999999996E-003     0.0000000000000000     
   8.4000000000000012E-003     0.0000000000000000     
   8.7000000000000029E-003     0.0000000000000000     
   9.0000000000000011E-003     0.0000000000000000     
   9.2999999999999992E-003     0.0000000000000000     
   9.6000000000000009E-003     0.0000000000000000     
   9.8999999999999991E-003     0.0000000000000000     
   1.0200000000000001E-002     0.0000000000000000     
   1.0500000000000002E-002     5.0877626477242492E-039
   1.0800000000000004E-002    -2.7774190984918780E-038
   1.1099999999999999E-002     3.7573417877838441E-038
   1.1400000000000000E-002    -4.8032650852289603E-038
   1.1700000000000002E-002     2.0412578276279036E-036
   1.2000000000000004E-002    -5.7404458294595600E-036
   1.2300000000000002E-002    -3.9966878715880182E-035
   1.2600000000000000E-002     1.5800308404436794E-034
   1.2900000000000002E-002    -1.0967340468035942E-037
   1.3200000000000000E-002    -2.0034202595433699E-032
   1.3500000000000002E-002     1.4285025308437244E-031
   1.3800000000000003E-002     5.9304927132497406E-032
   1.4100000000000001E-002    -5.5760352588618114E-030
   1.4400000000000000E-002     2.5644616539765568E-029
   1.4700000000000001E-002     3.2554687259174599E-029
   1.4999999999999999E-002    -7.8284298087589232E-028
   1.5300000000000001E-002     2.9161243399602624E-027
   1.5600000000000003E-002     1.9124415577064358E-027
   1.5899999999999997E-002    -6.0307960063541259E-026
   1.6199999999999999E-002     2.4538400434433453E-025
   1.6500000000000001E-002    -2.3646200306042614E-025
   1.6800000000000002E-002    -2.2386315539801028E-024
   1.7100000000000004E-002     1.3190126699692129E-023
   1.7400000000000006E-002    -3.4122678750254254E-023
   1.7700000000000000E-002     1.2271159398566664E-023
   1.8000000000000002E-002     2.8959389062939888E-022
   1.8300000000000004E-002    -1.4247142200556430E-021
   1.8600000000000005E-002     3.8519244091410123E-021
   1.8900000000000000E-002    -5.4224130159135190E-021
   1.9200000000000002E-002    -6.4528713176880200E-021
   1.9500000000000003E-002     7.4430423763327816E-020
   1.9799999999999998E-002    -3.1981632643203726E-019
   2.0100000000000000E-002     1.0714980347286617E-018
   2.0400000000000001E-002    -3.1990228072433501E-018
   2.0700000000000003E-002     8.8012780844189062E-018
   2.0999999999999998E-002    -2.1885805207214938E-017
   2.1299999999999999E-002     4.6340826445043422E-017
   2.1600000000000001E-002    -7.6337855647727739E-017
   2.1900000000000003E-002     1.1963414762313840E-016
   2.2200000000000004E-002    -7.4656669358601773E-016
   2.2500000000000006E-002     7.4877617990610856E-015
   2.2800000000000001E-002    -5.6059709142017390E-014
   2.3100000000000002E-002     3.2678951634456725E-013
   2.3400000000000004E-002    -1.5521937963439233E-012
   2.3699999999999999E-002     6.0409343989117493E-012
   2.4000000000000000E-002    -1.8593461822003585E-011
   2.4300000000000002E-002     3.9945074774178693E-011
   2.4599999999999997E-002    -2.7001556917258465E-011
   2.4900000000000005E-002    -2.1088741293681349E-010
   2.5200000000000000E-002     1.0445812435467109E-009
   2.5499999999999995E-002    -2.2642653392199877E-009
   2.5800000000000003E-002     6.0568708395773541E-010
   2.6099999999999998E-002     1.0982309576913685E-008
   2.6400000000000007E-002    -2.8082130181154058E-008
   2.6700000000000002E-002     2.9748505248127438E-009
   2.6999999999999996E-002     1.1114069502672983E-007
   2.7300000000000005E-002    -1.3739927771109557E-007
   2.7600000000000000E-002    -2.8068741521653836E-007
   2.7900000000000008E-002     5.2633960034088673E-007
   2.8200000000000003E-002     7.9911023284819630E-007
   2.8499999999999998E-002    -1.2576580701500201E-006
   2.8800000000000006E-002    -3.0346144443184895E-006
   2.9100000000000001E-002     1.5776427631642017E-006
   2.9400000000000003E-002     1.5649386647361492E-005
   2.9700000000000004E-002     3.5969715868311740E-005
   3.0000000000000006E-002     5.9379858973773432E-005
   3.0300000000000001E-002     8.9632629935072500E-005
   3.0600000000000002E-002     1.3682833487664494E-004
   3.0900000000000004E-002     2.1511411647364732E-004
   3.1199999999999999E-002     3.4052536577102929E-004
   3.1500000000000007E-002     5.3112196011449384E-004
   3.1800000000000002E-002     8.1281724772019198E-004
   3.2099999999999997E-002     1.2240528842304352E-003
   3.2400000000000005E-002     1.8186577128787643E-003
   3.2700000000000000E-002     2.6694992680446339E-003
   3.3000000000000002E-002     3.8700662975321154E-003
   3.3300000000000003E-002     5.5363466024204444E-003
   3.3599999999999998E-002     7.8094524365238671E-003
   3.3900000000000000E-002     1.0858302550040222E-002
   3.4200000000000001E-002     1.4880673383416754E-002
   3.4500000000000003E-002     2.0094702653044583E-002
   3.4799999999999998E-002     2.6726385221685911E-002
   3.5099999999999999E-002     3.4997246405309212E-002
   3.5400000000000001E-002     4.5100790413225234E-002
   3.5699999999999996E-002     5.7170342308432209E-002
   3.6000000000000004E-002     7.1233915414671500E-002
   3.6299999999999999E-002     8.7169463167460659E-002
   3.6600000000000008E-002    0.10465630668225945     
   3.6900000000000002E-002    0.12312227249044438     
   3.7199999999999997E-002    0.14169481538004458     
   3.7500000000000006E-002    0.15917077486700126     
   3.7800000000000000E-002    0.17400827765301585     
   3.8100000000000009E-002    0.18433544830224058     
   3.8400000000000004E-002    0.18800378751924374     
   3.8699999999999998E-002    0.18269337811374342     
   3.9000000000000007E-002    0.16604923718610642     
   3.9300000000000002E-002    0.13588796161156136     
   3.9600000000000003E-002     9.0411435165685727E-002
   3.9900000000000005E-002     2.8453513414105180E-002
   4.0200000000000000E-002    -5.0264317948981452E-002
   4.0500000000000001E-002   -0.14491061471775879     
   4.0800000000000003E-002   -0.25335801429117488     
   4.1100000000000005E-002   -0.37209065427942001     
   4.1399999999999999E-002   -0.49621074580765168     
   4.1700000000000008E-002   -0.61956983209354632     
   4.2000000000000003E-002   -0.73501889320255742     
   4.2299999999999997E-002   -0.83482004777903285     
   4.2600000000000006E-002   -0.91111206476836415     
   4.2900000000000001E-002   -0.95650270169572238     
   4.3200000000000002E-002   -0.96465731400369847     
   4.3500000000000004E-002   -0.93087855384305485     
   4.3799999999999999E-002   -0.85262414477282533     
   4.4100000000000000E-002   -0.72984512965792092     
   4.4400000000000002E-002   -0.56523156770808392     
   4.4700000000000004E-002   -0.36418232198868061     
   4.4999999999999998E-002   -0.13457107395112944     
   4.5300000000000000E-002    0.11360150426665383     
   4.5600000000000002E-002    0.36883775423286025     
   4.5899999999999996E-002    0.61893278164906107     
   4.6200000000000005E-002    0.85161060983612913     
   4.6500000000000000E-002     1.0554821999816753     
   4.6799999999999994E-002     1.2206948251652818     
   4.7100000000000003E-002     1.3395693289693753     
   4.7399999999999998E-002     1.4070802698880911     
   4.7700000000000006E-002     1.4210711679036052     
   4.8000000000000001E-002     1.3823507774389867     
   4.8300000000000010E-002     1.2944909717419293     
   4.8600000000000004E-002     1.1634938224575464     
   4.8899999999999999E-002    0.99731625830899873     
   4.9200000000000008E-002    0.80524956504522294     
   4.9500000000000002E-002    0.59729459663099327     
   4.9800000000000011E-002    0.38354219435096937     
   5.0100000000000006E-002    0.17352120846765784     
   5.0400000000000000E-002    -2.4252696151315201E-002
   5.0700000000000009E-002   -0.20270706985376652     
   5.1000000000000004E-002   -0.35646857701591017     
   5.1299999999999998E-002   -0.48193243967426014     
   5.1600000000000007E-002   -0.57737445169184909     
   5.1900000000000002E-002   -0.64271382317458858     
   5.2200000000000010E-002   -0.67935176799040420     
   5.2500000000000005E-002   -0.68995871593457636     
   5.2800000000000000E-002   -0.67801613456451548     
   5.3099999999999994E-002   -0.64761570766317433     
   5.3400000000000003E-002   -0.60312042281677236     
   5.3699999999999998E-002   -0.54875699493626584     
   5.4000000000000006E-002   -0.48861456836086248     
   5.4300000000000001E-002   -0.42617593077990712     
   5.4599999999999996E-002   -0.36431301770106295     
   5.4900000000000004E-002   -0.30527343983237998     
   5.5199999999999999E-002   -0.25038400441493103     
   5.5499999999999994E-002   -0.20043085481325118     
   5.5800000000000002E-002   -0.15547550452982861     
   5.6099999999999997E-002   -0.11504525107328867     
   5.6400000000000006E-002    -7.8477129444754601E-002
   5.6700000000000000E-002    -4.4737316672553484E-002
   5.6999999999999995E-002    -1.3043487926751474E-002
   5.7300000000000004E-002     1.7168832780170118E-002
   5.7599999999999998E-002     4.6056590397483665E-002
   5.7900000000000007E-002     7.2940750711442792E-002
   5.8200000000000002E-002     9.6675611378451709E-002
   5.8499999999999996E-002    0.11525000951039122     
   5.8800000000000005E-002    0.12606047567277257     
   5.9100000000000000E-002    0.12626311784244315     
   5.9400000000000008E-002    0.11271494855177666     
   5.9700000000000003E-002     8.2848175638217780E-002
   6.0000000000000012E-002     3.4775800534995405E-002
   6.0300000000000006E-002    -3.2173256732499156E-002
   6.0600000000000001E-002   -0.11685863961981857     
   6.0900000000000010E-002   -0.21643413771364273     
   6.1200000000000004E-002   -0.32584034105943438     
   6.1500000000000013E-002   -0.43812728198306061     
   6.1800000000000008E-002   -0.54479749250550924     
   6.2100000000000002E-002   -0.63609500422918686     
   6.2399999999999997E-002   -0.70209893808633339     
   6.2700000000000006E-002   -0.73336959494135812     
   6.3000000000000000E-002   -0.72193088583143350     
   6.3300000000000009E-002   -0.66228028993772980     
   6.3600000000000004E-002   -0.55192493260239139     
   6.3899999999999998E-002   -0.39215687165682933     
   6.4199999999999993E-002   -0.18812956301595213     
   6.4500000000000002E-002     5.1300933722637110E-002
   6.4800000000000010E-002    0.31387701700131032     
   6.5100000000000005E-002    0.58499194782377373     
   6.5400000000000000E-002    0.84848924694817995     
   6.5700000000000008E-002     1.0881301046877923     
   6.5999999999999989E-002     1.2887757559707751     
   6.6299999999999998E-002     1.4375814640825411     
   6.6600000000000006E-002     1.5251598035827101     
   6.6900000000000001E-002     1.5461334780486169     
   6.7199999999999996E-002     1.4996922712357659     
   6.7500000000000004E-002     1.3894920022485380     
   6.7800000000000013E-002     1.2233054023647085     
   6.8099999999999994E-002     1.0123615485481530     
   6.8400000000000002E-002    0.77021044287866403     
   6.8700000000000011E-002    0.51172582013129286     
   6.8999999999999992E-002    0.25177520288069721     
   6.9300000000000000E-002     4.1074074558424822E-003
   6.9600000000000009E-002   -0.21954531256620147     
   6.9900000000000004E-002   -0.41036603418877782     
   7.0199999999999999E-002   -0.56270017790034643     
   7.0500000000000007E-002   -0.67428994935497855     
   7.0800000000000016E-002   -0.74609367432756812     
   7.1099999999999997E-002   -0.78165011216818314     
   7.1400000000000005E-002   -0.78666737231380068     
   7.1700000000000000E-002   -0.76805300025373313     
   7.1999999999999995E-002   -0.73305856097408650     
   7.2300000000000003E-002   -0.68881082286915785     
   7.2600000000000012E-002   -0.64131364923100520     
   7.2900000000000006E-002   -0.59532201092491732     
   7.3200000000000001E-002   -0.55406542807146053     
   7.3499999999999996E-002   -0.51898508434338453     
   7.3800000000000004E-002   -0.49039839759177006     
   7.4099999999999999E-002   -0.46735510860358609     
   7.4400000000000008E-002   -0.44828591552547437     
   7.4700000000000003E-002   -0.43150255629302237     
   7.5000000000000011E-002   -0.41517999034362241     
   7.5299999999999992E-002   -0.39824474210331395     
   7.5600000000000001E-002   -0.38004659706654564     
   7.5900000000000009E-002   -0.36052627744010302     
   7.6200000000000004E-002   -0.34034668299142723     
   7.6499999999999999E-002   -0.32015365580222088     
   7.6800000000000007E-002   -0.30085901840404894     
   7.7099999999999988E-002   -0.28297518771051511     
   7.7399999999999997E-002   -0.26637690169994599     
   7.7700000000000005E-002   -0.25036463523652941     
   7.8000000000000014E-002   -0.23313555671383313     
   7.8299999999999995E-002   -0.21223629134412914     
   7.8600000000000003E-002   -0.18449242217767914     
   7.8900000000000012E-002   -0.14627709369877362     
   7.9199999999999993E-002    -9.4072711633582773E-002
   7.9500000000000001E-002    -2.4648888780153477E-002
   7.9800000000000010E-002     6.4291725207603179E-002
   8.0100000000000018E-002    0.17369817071513616     
   8.0399999999999999E-002    0.30293295432355194     
   8.0700000000000008E-002    0.44938044882732875     
   8.1000000000000003E-002    0.60843236365337106     
   8.1299999999999997E-002    0.77364103200917356     
   8.1600000000000006E-002    0.93674495750493136     
   8.1900000000000014E-002     1.0882647573416406     
   8.2199999999999995E-002     1.2180725891851125     
   8.2500000000000004E-002     1.3159603240510620     
   8.2799999999999999E-002     1.3726309182245515     
   8.3100000000000007E-002     1.3802489661958788     
   8.3400000000000002E-002     1.3333299180733604     
   8.3700000000000011E-002     1.2294045366685680     
   8.4000000000000005E-002     1.0691992531064116     
   8.4300000000000000E-002    0.85713064842214592     
   8.4599999999999995E-002    0.60102649063198044     
   8.4900000000000003E-002    0.31186130170890886     
   8.5199999999999998E-002     3.1710313875419338E-003
   8.5500000000000007E-002   -0.30995208953644671     
   8.5800000000000001E-002   -0.61169707934889672     
   8.6100000000000010E-002   -0.88663262543883903     
   8.6399999999999991E-002    -1.1209344481769463     
   8.6699999999999999E-002    -1.3031247809309789     
   8.7000000000000008E-002    -1.4250441380999064     
   8.7300000000000003E-002    -1.4823165036696579     
   8.7599999999999997E-002    -1.4745045142166049     
   8.7900000000000006E-002    -1.4051561255508744     
   8.8200000000000014E-002    -1.2813054319391668     
   8.8499999999999995E-002    -1.1128324836501058     
   8.8800000000000004E-002   -0.91183276959185378     
   8.9100000000000013E-002   -0.69143917682364808     
   8.9399999999999993E-002   -0.46508554188973505     
   8.9700000000000002E-002   -0.24561690499766120     
   9.0000000000000011E-002    -4.4248379495014145E-002
   9.0299999999999991E-002    0.12963623129233293     
   9.0600000000000000E-002    0.26912998497451834     
   9.0900000000000009E-002    0.36995266004999827     
   9.1200000000000017E-002    0.43031538976769745     
   9.1499999999999998E-002    0.45103743512805394     
   9.1800000000000007E-002    0.43490991444100047     
   9.2100000000000001E-002    0.38662805708105452     
   9.2399999999999996E-002    0.31234436883614247     
   9.2700000000000005E-002    0.21910200798698454     
   9.3000000000000013E-002    0.11481185616293166     
   9.3300000000000008E-002     7.5601920379857468E-003
   9.3600000000000003E-002    -9.4486863533178589E-002
   9.3899999999999997E-002   -0.18332841111005393     
   9.4200000000000006E-002   -0.25163019828275246     
   9.4500000000000001E-002   -0.29265511337666616     
   9.4800000000000009E-002   -0.30092020959957111     
   9.5100000000000004E-002   -0.27226970589653732     
   9.5399999999999999E-002   -0.20422581444746779     
   9.5699999999999993E-002    -9.6488722043237107E-002
   9.6000000000000002E-002     4.9042943262341154E-002
   9.6300000000000011E-002    0.22786252192305056     
   9.6600000000000005E-002    0.43299486633583051     
   9.6900000000000000E-002    0.65502146764458047     
   9.7200000000000009E-002    0.88239404368245289     
   9.7499999999999989E-002     1.1020449931985823     
   9.7799999999999998E-002     1.3000355615585377     
   9.8100000000000007E-002     1.4625127306689265     
   9.8400000000000015E-002     1.5767597242969131     
   9.8699999999999996E-002     1.6322677172840514     
   9.9000000000000005E-002     1.6216303336957267     
   9.9300000000000013E-002     1.5414069370116579     
   9.9599999999999994E-002     1.3927245184287358     
   9.9900000000000003E-002     1.1814000536709202     
  0.10020000000000001         0.91778045267054864     
  0.10049999999999999         0.61620031650219076     
  0.10080000000000000         0.29387634522478967     
  0.10110000000000001         -3.0189279757913967E-002
  0.10140000000000000        -0.33687910155999568     
  0.10170000000000000        -0.60843472286016720     
  0.10200000000000001        -0.83004868397144094     
  0.10230000000000002        -0.99143770258505626     
  0.10260000000000000         -1.0874956818460930     
  0.10290000000000001         -1.1191776938139739     
  0.10320000000000000         -1.0934837787369602     
  0.10350000000000001         -1.0226958438512881     
  0.10380000000000000        -0.92375672425920996     
  0.10410000000000001        -0.81631670273869261     
  0.10440000000000001        -0.72120619487276372     
  0.10470000000000000        -0.65827403906109794     
  0.10500000000000000        -0.64392943566280536     
  0.10530000000000000        -0.68990035682995909     
  0.10560000000000000        -0.80101533803563640     
  0.10590000000000001        -0.97460940361936821     
  0.10620000000000000         -1.2003073867410166     
  0.10650000000000001         -1.4598478380416537     
  0.10679999999999999         -1.7289837917634969     
  0.10710000000000000         -1.9785301963787916     
  0.10740000000000001         -2.1770067149961534     
  0.10770000000000000         -2.2935268697239763     
  0.10800000000000000         -2.2999692688837428     
  0.10830000000000001         -2.1745229316534918     
  0.10859999999999999         -1.9033891312358620     
  0.10890000000000000         -1.4827196321099869     
  0.10920000000000001        -0.92021915380267427     
  0.10950000000000001        -0.23451343925040469     
  0.10979999999999999         0.54468978020296532     
  0.11009999999999999          1.3785813469720907     
  0.11040000000000001          2.2216816962275061     
  0.11070000000000001          3.0243245855162115     
  0.11100000000000000          3.7368478563323606     
  0.11130000000000000          4.3125476643033664     
  0.11160000000000002          4.7113639275706305     
  0.11190000000000001          4.9032198114545338     
  0.11220000000000001          4.8698058665143833     
  0.11250000000000000          4.6068738516886896     
  0.11280000000000000          4.1244917054187908     
  0.11309999999999999          3.4462200399605933     
  0.11340000000000001          2.6080644273396345     
  0.11369999999999998          1.6554651571502070     
  0.11400000000000000         0.64015477783512154     
  0.11430000000000000        -0.38337968652264820     
  0.11460000000000002         -1.3623129563638443     
  0.11489999999999999         -2.2483192968266934     
  0.11520000000000001         -3.0014122729297128     
  0.11550000000000001         -3.5920630804869234     
  0.11580000000000000         -4.0022158844143689     
  0.11609999999999999         -4.2263716604392130     
  0.11640000000000002         -4.2698831331573217     
  0.11670000000000001         -4.1483355378700395     
  0.11700000000000001         -3.8846088622639741     
  0.11730000000000000         -3.5064265380501780     
  0.11760000000000000         -3.0440370567913675     
  0.11789999999999999         -2.5268618679294761     
  0.11820000000000001         -1.9824581260301599     
  0.11850000000000001         -1.4343627743029792     
  0.11880000000000000        -0.90147297340967381     
  0.11910000000000000        -0.39815690784725000     
  0.11940000000000002          6.5799339180720229E-002
  0.11970000000000001         0.48389803256504926     
  0.12000000000000001         0.85243702623227691     
  0.12030000000000000          1.1690776903514077     
  0.12060000000000000          1.4321914804599061     
  0.12089999999999999          1.6402752802108296     
  0.12119999999999999          1.7915567921896027     
  0.12150000000000001          1.8842794026326004     
  0.12180000000000001          1.9167380886122061     
  0.12210000000000000          1.8883082094249914     
  0.12239999999999999          1.7995164502771814     
  0.12270000000000002          1.6530836090823158     
  0.12300000000000001          1.4540495074694242     
  0.12330000000000001          1.2101583273425867     
  0.12360000000000000         0.93223145136153995     
  0.12390000000000000         0.63318116329637020     
  0.12419999999999999         0.32836953924103440     
  0.12450000000000001          3.4073163667330597E-002
  0.12480000000000001        -0.23289870204335283     
  0.12509999999999999        -0.45626303083851916     
  0.12540000000000001        -0.62182373680966307     
  0.12570000000000003        -0.71757121401866897     
  0.12600000000000000        -0.73568871885936105     
  0.12630000000000002        -0.67238946206544803     
  0.12659999999999999        -0.52874361518383495     
  0.12690000000000001        -0.31116287053563063     
  0.12719999999999998         -3.0600303344321844E-002
  0.12750000000000000         0.29706270440199223     
  0.12780000000000002         0.65270648580695934     
  0.12809999999999999          1.0142839106766104     
  0.12840000000000001          1.3583082354928777     
  0.12869999999999998          1.6615302369985727     
  0.12900000000000000          1.9014716140550192     
  0.12930000000000003          2.0587991702855248     
  0.12959999999999999          2.1175758021390010     
  0.12990000000000002          2.0667318635065968     
  0.13019999999999998          1.9008216975966690     
  0.13050000000000000          1.6197406430999912     
  0.13080000000000003          1.2299610236188716     
  0.13109999999999999         0.74363268233650537     
  0.13140000000000002         0.17885630309447897     
  0.13169999999999998        -0.44101190934490830     
  0.13200000000000001         -1.0881629423577692     
  0.13229999999999997         -1.7308863750872376     
  0.13260000000000000         -2.3354766255538379     
  0.13290000000000002         -2.8669425829911006     
  0.13319999999999999         -3.2913499626418314     
  0.13350000000000001         -3.5776200781093621     
  0.13380000000000003         -3.6997095952600887     
  0.13410000000000000         -3.6389915361846050     
  0.13440000000000002         -3.3859867377794046     
  0.13469999999999999         -2.9422453856322619     
  0.13500000000000001         -2.3211768537613438     
  0.13529999999999998         -1.5486385555961721     
  0.13560000000000000        -0.66189012255854607     
  0.13590000000000002         0.29177743349751184     
  0.13619999999999999          1.2579488449141678     
  0.13650000000000001          2.1784852632147178     
  0.13680000000000003          2.9951645825756259     
  0.13710000000000000          3.6547889395526028     
  0.13740000000000002          4.1123576294895656     
  0.13769999999999999          4.3353532028984034     
  0.13800000000000001          4.3065032820475295     
  0.13829999999999998          4.0247269873765816     
  0.13860000000000000          3.5065619681549833     
  0.13890000000000002          2.7840664020792723     
  0.13919999999999999          1.9032267189518528     
  0.13950000000000001         0.92072312315942639     
  0.13979999999999998        -0.10068355411201502     
  0.14010000000000000         -1.0958539982164019     
  0.14040000000000002         -2.0024979848846129     
  0.14069999999999999         -2.7650383689888542     
  0.14100000000000001         -3.3379954887362686     
  0.14130000000000004         -3.6894094747515993     
  0.14160000000000000         -3.8019126303605759     
  0.14189999999999997         -3.6739335087122100     
  0.14219999999999999         -3.3194555198293116     
  0.14250000000000002         -2.7663921700656715     
  0.14279999999999998         -2.0551528273867756     
  0.14310000000000000         -1.2356258926836503     
  0.14339999999999997        -0.36403498818980395     
  0.14369999999999999         0.50037618265073291     
  0.14400000000000002          1.2993781635295960     
  0.14429999999999998          1.9787301584147343     
  0.14460000000000001          2.4920743850770748     
  0.14490000000000003          2.8040495243625543     
  0.14520000000000000          2.8920179894454918     
  0.14550000000000002          2.7485814228107230     
  0.14579999999999999          2.3819986364955916     
  0.14610000000000001          1.8159150684150793     
  0.14640000000000003          1.0885357862880447     
  0.14670000000000000         0.24943658456802353     
  0.14699999999999996        -0.64294812738870455     
  0.14729999999999999         -1.5257811665305923     
  0.14760000000000001         -2.3367272143338909     
  0.14789999999999998         -3.0177574695201201     
  0.14820000000000000         -3.5209331791923688     