  -1.4999999999999999E-002     0.0000000000000000     
  -1.4700000000000000E-002     0.0000000000000000     
  -1.4400000000000000E-002     0.0000000000000000     
  -1.4100000000000000E-002     0.0000000000000000     
  -1.3800000000000000E-002     0.0000000000000000     
  -1.3500000000000000E-002     0.0000000000000000     
  -1.3200000000000000E-002     0.0000000000000000     
  -1.2899999999999998E-002     0.0000000000000000     
  -1.2600000000000000E-002     0.0000000000000000     
  -1.2299999999999998E-002     0.0000000000000000     
  -1.2000000000000000E-002     0.0000000000000000     
  -1.1699999999999999E-002     0.0000000000000000     
  -1.1399999999999999E-002     0.0000000000000000     
  -1.1099999999999999E-002     0.0000000000000000     
  -1.0799999999999999E-002     0.0000000000000000     
  -1.0499999999999999E-002     0.0000000000000000     
  -1.0199999999999999E-002     0.0000000000000000     
  -9.8999999999999991E-003     0.0000000000000000     
  -9.5999999999999992E-003     0.0000000000000000     
  -9.2999999999999992E-003     0.0000000000000000     
  -8.9999999999999993E-003     0.0000000000000000     
  -8.6999999999999994E-003     0.0000000000000000     
  -8.3999999999999995E-003     0.0000000000000000     
  -8.0999999999999996E-003     0.0000000000000000     
  -7.7999999999999988E-003     0.0000000000000000     
  -7.4999999999999997E-003     0.0000000000000000     
  -7.1999999999999998E-003     0.0000000000000000     
  -6.8999999999999981E-003     0.0000000000000000     
  -6.5999999999999982E-003     0.0000000000000000     
  -6.3000000000000000E-003     0.0000000000000000     
  -6.0000000000000001E-003     0.0000000000000000     
  -5.6999999999999985E-003     0.0000000000000000     
  -5.3999999999999986E-003     0.0000000000000000     
  -5.1000000000000004E-003     0.0000000000000000     
  -4.7999999999999987E-003     0.0000000000000000     
  -4.5000000000000005E-003     0.0000000000000000     
  -4.1999999999999989E-003     0.0000000000000000     
  -3.8999999999999990E-003     0.0000000000000000     
  -3.5999999999999990E-003     0.0000000000000000     
  -3.2999999999999991E-003     0.0000000000000000     
  -2.9999999999999992E-003     0.0000000000000000     
  -2.6999999999999993E-003     0.0000000000000000     
  -2.3999999999999994E-003     0.0000000000000000     
  -2.0999999999999977E-003     0.0000000000000000     
  -1.7999999999999995E-003     0.0000000000000000     
  -1.4999999999999979E-003     0.0000000000000000     
  -1.1999999999999997E-003     0.0000000000000000     
  -8.9999999999999976E-004     0.0000000000000000     
  -5.9999999999999810E-004     0.0000000000000000     
  -2.9999999999999992E-004     0.0000000000000000     
   0.0000000000000000          0.0000000000000000     
   3.0000000000000165E-004     0.0000000000000000     
   5.9999999999999984E-004     0.0000000000000000     
   9.0000000000000149E-004     0.0000000000000000     
   1.2000000000000031E-003     0.0000000000000000     
   1.5000000000000013E-003    -4.0873547421469514E-038
   1.8000000000000030E-003    -5.8484198591867474E-039
   2.1000000000000012E-003    -7.9361437143580587E-037
   2.3999999999999994E-003     1.2817401697895502E-035
   2.7000000000000010E-003    -1.3173494714895230E-036
   2.9999999999999992E-003    -1.1198721730114087E-034
   3.3000000000000008E-003    -2.0415973278113335E-034
   3.6000000000000025E-003     9.4099727026657806E-034
   3.9000000000000007E-003     2.9115299805588587E-033
   4.2000000000000023E-003    -5.9085998590234101E-033
   4.5000000000000005E-003    -2.7128474004942951E-032
   4.7999999999999987E-003     4.3927714572020952E-032
   5.1000000000000004E-003     2.3168716871972504E-031
   5.4000000000000020E-003    -4.2951835402622201E-031
   5.7000000000000037E-003    -1.7118870617997961E-030
   5.9999999999999984E-003     3.8893898674293787E-030
   6.3000000000000000E-003     8.6737863407046174E-030
   6.6000000000000017E-003    -2.5461435689121835E-029
   6.9000000000000034E-003    -2.4432666002074980E-029
   7.2000000000000015E-003     1.0423467349858766E-028
   7.5000000000000032E-003     5.7825785554304789E-029
   7.8000000000000014E-003    -3.6825986824922822E-028
   8.0999999999999996E-003    -7.0027959745078791E-028
   8.4000000000000012E-003     7.4471682522815085E-027
   8.7000000000000029E-003    -2.1133197853991264E-026
   9.0000000000000011E-003    -3.5990175867175116E-026
   9.2999999999999992E-003     5.7158699219863057E-025
   9.6000000000000009E-003    -2.2245154442215856E-024
   9.8999999999999991E-003     2.3084307323282522E-024
   1.0200000000000001E-002     1.7583420348222264E-023
   1.0500000000000002E-002    -1.0256037300428076E-022
   1.0800000000000004E-002     2.5733917336363947E-022
   1.1099999999999999E-002    -1.4227912437028108E-022
   1.1400000000000000E-002    -1.4049699145246432E-021
   1.1700000000000002E-002     5.7583087770920353E-021
   1.2000000000000004E-002    -9.2632264426681342E-021
   1.2300000000000002E-002    -1.0340722823028736E-020
   1.2600000000000000E-002     1.0844800832686698E-019
   1.2900000000000002E-002    -3.4686987762890124E-019
   1.3200000000000000E-002     6.1888091105860831E-019
   1.3500000000000002E-002    -1.1135611013496095E-019
   1.3800000000000003E-002    -4.1312032972640592E-018
   1.4100000000000001E-002     2.1540414560186947E-017
   1.4400000000000000E-002    -8.3256352125237982E-017
   1.4700000000000001E-002     2.9512546821671420E-016
   1.4999999999999999E-002    -9.8802993121075359E-016
   1.5300000000000001E-002     2.9170283452227801E-015
   1.5600000000000003E-002    -5.9737700071539603E-015
   1.5899999999999997E-002    -4.5047069321331205E-015
   1.6199999999999999E-002     1.3701893501315050E-013
   1.6500000000000001E-002    -9.2803511056213368E-013
   1.6800000000000002E-002     4.3521260126124647E-012
   1.7100000000000004E-002    -1.5444720007510094E-011
   1.7400000000000006E-002     3.9224426045407877E-011
   1.7700000000000000E-002    -4.9391119891820076E-011
   1.8000000000000002E-002    -1.1217900046514890E-010
   1.8300000000000004E-002     8.2296826788929362E-010
   1.8600000000000005E-002    -2.1081536121365171E-009
   1.8900000000000000E-002     1.3098856610250244E-009
   1.9200000000000002E-002     8.4531792276914465E-009
   1.9500000000000003E-002    -2.5346491360483261E-008
   1.9799999999999998E-002     6.7300296832832217E-009
   2.0100000000000000E-002     9.6859504021654750E-008
   2.0400000000000001E-002    -1.2799211646403945E-007
   2.0700000000000003E-002    -2.6447759558464237E-007
   2.0999999999999998E-002     4.8512644458994280E-007
   2.1299999999999999E-002     8.3258853530874933E-007
   2.1600000000000001E-002    -1.1771144935842699E-006
   2.1900000000000003E-002    -3.2497258066173178E-006
   2.2200000000000004E-002     1.6028439319440381E-006
   2.2500000000000006E-002     1.8556794780561110E-005
   2.2800000000000001E-002     4.5910031912565065E-005
   2.3100000000000002E-002     7.9928388890044460E-005
   2.3400000000000004E-002     1.2318453375045457E-004
   2.3699999999999999E-002     1.8700337631331367E-004
   2.4000000000000000E-002     2.8982494136724646E-004
   2.4300000000000002E-002     4.5404655000423969E-004
   2.4599999999999997E-002     7.0549323708552630E-004
   2.4900000000000005E-002     1.0791989608819885E-003
   2.5200000000000000E-002     1.6256551571105088E-003
   2.5499999999999995E-002     2.4152104954928214E-003
   2.5800000000000003E-002     3.5428915582153830E-003
   2.6099999999999998E-002     5.1319342349966379E-003
   2.6400000000000007E-002     7.3346973400734983E-003
   2.6700000000000002E-002     1.0334301119990119E-002
   2.6999999999999996E-002     1.4349776339336429E-002
   2.7300000000000005E-002     1.9636210381776653E-002
   2.7600000000000000E-002     2.6470669396339686E-002
   2.7900000000000008E-002     3.5132323172631930E-002
   2.8200000000000003E-002     4.5885126454814795E-002
   2.8499999999999998E-002     5.8950441776313811E-002
   2.8800000000000006E-002     7.4457322517813118E-002
   2.9100000000000001E-002     9.2379684434721554E-002
   2.9400000000000003E-002    0.11247232925065109     
   2.9700000000000004E-002    0.13420769813988409     
   3.0000000000000006E-002    0.15670945887667198     
   3.0300000000000001E-002    0.17869346442765366     
   3.0600000000000002E-002    0.19842938743505822     
   3.0900000000000004E-002    0.21374204662516672     
   3.1199999999999999E-002    0.22203823284937485     
   3.1500000000000007E-002    0.22039862444944269     
   3.1800000000000002E-002    0.20573736147780242     
   3.2099999999999997E-002    0.17502637667109600     
   3.2400000000000005E-002    0.12557637669070099     
   3.2700000000000000E-002     5.5382450076056244E-002
   3.3000000000000002E-002    -3.6578100021050108E-002
   3.3300000000000003E-002   -0.14994765271736998     
   3.3599999999999998E-002   -0.28272474974258355     
   3.3900000000000000E-002   -0.43105180660897879     
   3.4200000000000001E-002   -0.58911026324336468     
   3.4500000000000003E-002   -0.74924881858288472     
   3.4799999999999998E-002   -0.90221376737158465     
   3.5099999999999999E-002    -1.0376245511257807     
   3.5400000000000001E-002    -1.1446536207452311     
   3.5699999999999996E-002    -1.2127647256085083     
   3.6000000000000004E-002    -1.2326139056029106     
   3.6299999999999999E-002    -1.1969116659035279     
   3.6600000000000008E-002    -1.1012258511612245     
   3.6900000000000002E-002   -0.94465669609839864     
   3.7199999999999997E-002   -0.73019690457404351     
   3.7500000000000006E-002   -0.46486478154516675     
   3.7800000000000000E-002   -0.15951342249267686     
   3.8100000000000009E-002    0.17182348577916473     
   3.8400000000000004E-002    0.51263349730627716     
   3.8699999999999998E-002    0.84523853113010716     
   3.9000000000000007E-002     1.1517886499729428     
   3.9300000000000002E-002     1.4157461003651335     
   3.9600000000000003E-002     1.6229920668585009     
   3.9900000000000005E-002     1.7628139472528943     
   4.0200000000000000E-002     1.8288041422199370     
   4.0500000000000001E-002     1.8190626142252384     
   4.0800000000000003E-002     1.7364020009956604     
   4.1100000000000005E-002     1.5879623318287273     
   4.1399999999999999E-002     1.3844928821782645     
   4.1700000000000008E-002     1.1396016877679429     
   4.2000000000000003E-002    0.86850039884587815     
   4.2299999999999997E-002    0.58698252985444910     
   4.2600000000000006E-002    0.31031863365818424     
   4.2900000000000001E-002     5.2059893758416242E-002
   4.3200000000000002E-002   -0.17652103672380803     
   4.3500000000000004E-002   -0.36720935389783183     
   4.3799999999999999E-002   -0.51500577420851634     
   4.4100000000000000E-002   -0.61813291204634879     
   4.4400000000000002E-002   -0.67793573109481287     
   4.4700000000000004E-002   -0.69823375204800797     
   4.4999999999999998E-002   -0.68491758854671403     
   4.5300000000000000E-002   -0.64527491593950614     
   4.5600000000000002E-002   -0.58711452200783043     
   4.5899999999999996E-002   -0.51837580684157203     
   4.6200000000000005E-002   -0.44636192025208032     
   4.6500000000000000E-002   -0.37729115495768717     
   4.6799999999999994E-002   -0.31618913838442531     
   4.7100000000000003E-002   -0.26640450981716768     
   4.7399999999999998E-002   -0.22984073307263664     
   4.7700000000000006E-002   -0.20697439234420578     
   4.8000000000000001E-002   -0.19690633171039540     
   4.8300000000000010E-002   -0.19798008593599992     
   4.8600000000000004E-002   -0.20773115790061425     
   4.8899999999999999E-002   -0.22343094307933953     
   4.9200000000000008E-002   -0.24249034081228515     
   4.9500000000000002E-002   -0.26248030562780933     
   4.9800000000000011E-002   -0.28177620220621868     
   5.0100000000000006E-002   -0.29937004482379592     
   5.0400000000000000E-002   -0.31510420987268972     
   5.0700000000000009E-002   -0.32973156506475654     
   5.1000000000000004E-002   -0.34439243013303944     
   5.1299999999999998E-002   -0.36075412454276545     
   5.1600000000000007E-002   -0.38040580453298745     
   5.1900000000000002E-002   -0.40449870358579432     
   5.2200000000000010E-002   -0.43350042512707532     
   5.2500000000000005E-002   -0.46653553980019424     
   5.2800000000000000E-002   -0.50136443199994041     
   5.3099999999999994E-002   -0.53418919666512998     
   5.3400000000000003E-002   -0.55964452304973022     
   5.3699999999999998E-002   -0.57134590172691446     
   5.4000000000000006E-002   -0.56216498457745701     
   5.4300000000000001E-002   -0.52506325880439064     
   5.4599999999999996E-002   -0.45399475065641681     
   5.4900000000000004E-002   -0.34447243280621365     
   5.5199999999999999E-002   -0.19471165246971012     
   5.5499999999999994E-002    -6.0374052045759630E-003
   5.5800000000000002E-002    0.21675446554022271     
   5.6099999999999997E-002    0.46514685630497965     
   5.6400000000000006E-002    0.72762603246784607     
   5.6700000000000000E-002    0.98994997384541961     
   5.6999999999999995E-002     1.2364221195456082     
   5.7300000000000004E-002     1.4511128266900428     
   5.7599999999999998E-002     1.6189448061886296     
   5.7900000000000007E-002     1.7274437088627295     
   5.8200000000000002E-002     1.7674569421256976     
   5.8499999999999996E-002     1.7342472396431532     
   5.8800000000000005E-002     1.6280993930371181     
   5.9100000000000000E-002     1.4540066866821277     
   5.9400000000000008E-002     1.2217629626085511     
   5.9700000000000003E-002    0.94487836186330654     
   6.0000000000000012E-002    0.63964856479755028     
   6.0300000000000006E-002    0.32390727158525934     
   6.0600000000000001E-002     1.5377534026795647E-002
   6.0900000000000010E-002   -0.26934668107287729     
   6.1200000000000004E-002   -0.51624356791122317     
   6.1500000000000013E-002   -0.71466315221953991     
   6.1800000000000008E-002   -0.85791530584135955     
   6.2100000000000002E-002   -0.94361369815880991     
   6.2399999999999997E-002   -0.97339008076157896     
   6.2700000000000006E-002   -0.95262361916407912     
   6.3000000000000000E-002   -0.88959770994333454     
   6.3300000000000009E-002   -0.79477942739321961     
   6.3600000000000004E-002   -0.67992692103586094     
   6.3899999999999998E-002   -0.55715531621298808     
   6.4199999999999993E-002   -0.43823767176010264     
   6.4500000000000002E-002   -0.33390749479567283     
   6.4800000000000010E-002   -0.25343307213745092     
   6.5100000000000005E-002   -0.20422619454105551     
   6.5400000000000000E-002   -0.19169389837330630     
   6.5700000000000008E-002   -0.21917743625254182     
   6.5999999999999989E-002   -0.28776692670429238     
   6.6299999999999998E-002   -0.39624202492985638     
   6.6600000000000006E-002   -0.54110283653002256     
   6.6900000000000001E-002   -0.71638982070254897     
   6.7199999999999996E-002   -0.91379832106865422     
   6.7500000000000004E-002    -1.1226094125610331     
   6.7800000000000013E-002    -1.3298885305659809     
   6.8099999999999994E-002    -1.5209925597956797     
   6.8400000000000002E-002    -1.6799157520179833     
   6.8700000000000011E-002    -1.7903379105361594     
   6.8999999999999992E-002    -1.8365466565494444     
   6.9300000000000000E-002    -1.8045409885876751     
   6.9600000000000009E-002    -1.6835252780616727     
   6.9900000000000004E-002    -1.4667603343282707     
   7.0199999999999999E-002    -1.1528549715499494     
   7.0500000000000007E-002   -0.74643052422690914     
   7.0800000000000016E-002   -0.25826861182768379     
   7.1099999999999997E-002    0.29436797364419220     
   7.1400000000000005E-002    0.88884598517096425     
   7.1700000000000000E-002     1.4980410742685386     
   7.1999999999999995E-002     2.0917055117858112     
   7.2300000000000003E-002     2.6388033557064006     
   7.2600000000000012E-002     3.1090035974244330     
   7.2900000000000006E-002     3.4753165776320856     
   7.3200000000000001E-002     3.7157127431376722     
   7.3499999999999996E-002     3.8147541839332035     
   7.3800000000000004E-002     3.7652182205044937     
   7.4099999999999999E-002     3.5681985153537426     
   7.4400000000000008E-002     3.2336127038344955     
   7.4700000000000003E-002     2.7793556778922976     
   7.5000000000000011E-002     2.2300734833638103     
   7.5299999999999992E-002     1.6155145970036529     
   7.5600000000000001E-002    0.96810834092291742     
   7.5900000000000009E-002    0.32073608410515586     
   7.6200000000000004E-002   -0.29587541113642857     
   7.6499999999999999E-002   -0.85524209322126410     
   7.6800000000000007E-002    -1.3370861830016736     
   7.7099999999999988E-002    -1.7288314132825491     
   7.7399999999999997E-002    -2.0259109693692778     
   7.7700000000000005E-002    -2.2320704743701683     
   7.8000000000000014E-002    -2.3580631431224930     
   7.8299999999999995E-002    -2.4202492998000196     
   7.8600000000000003E-002    -2.4384004070583387     
   7.8900000000000012E-002    -2.4329103278773516     
   7.9199999999999993E-002    -2.4226562838860417     
   7.9500000000000001E-002    -2.4220352480557636     
   7.9800000000000010E-002    -2.4393507142987119     
   8.0100000000000018E-002    -2.4753429760152841     
   8.0399999999999999E-002    -2.5225770855165450     
   8.0700000000000008E-002    -2.5662066283336031     
   8.1000000000000003E-002    -2.5850719840756824     
   8.1299999999999997E-002    -2.5540900122304606     
   8.1600000000000006E-002    -2.4469537859204138     
   8.1900000000000014E-002    -2.2391656187541429     
   8.2199999999999995E-002    -1.9113538074080552     
   8.2500000000000004E-002    -1.4519673108791764     
   8.2799999999999999E-002   -0.85927420869080962     
   8.3100000000000007E-002   -0.14296512367487901     
   8.3400000000000002E-002    0.67578668255248786     
   8.3700000000000011E-002     1.5649994846317350     
   8.4000000000000005E-002     2.4835705079185004     
   8.4300000000000000E-002     3.3840601653927393     
   8.4599999999999995E-002     4.2159032014887714     
   8.4900000000000003E-002     4.9288993028553136     
   8.5199999999999998E-002     5.4772317789990836     
   8.5500000000000007E-002     5.8222426683392712     
   8.5800000000000001E-002     5.9360667353994359     
   8.6100000000000010E-002     5.8033088027210624     
   8.6399999999999991E-002     5.4223070535376792     
   8.6699999999999999E-002     4.8060141940885899     
   8.7000000000000008E-002     3.9802401797142295     
   8.7300000000000003E-002     2.9831464307048634     
   8.7599999999999997E-002     1.8623589229897064     
   8.7900000000000006E-002    0.67211083977275976     
   8.8200000000000014E-002   -0.52958870607607267     
   8.8499999999999995E-002    -1.6851682540773365     
   8.8800000000000004E-002    -2.7398839633896017     
   8.9100000000000013E-002    -3.6453817557671613     
   8.9399999999999993E-002    -4.3622548703530271     
   8.9700000000000002E-002    -4.8614705229766741     
   9.0000000000000011E-002    -5.1263795273811468     
   9.0299999999999991E-002    -5.1523805656044317     
   9.0600000000000000E-002    -4.9472058586003982     
   9.0900000000000009E-002    -4.5300498135223961     
   9.1200000000000017E-002    -3.9295947749243112     
   9.1499999999999998E-002    -3.1828298182692834     
   9.1800000000000007E-002    -2.3323961577374916     
   9.2100000000000001E-002    -1.4240429978549258     
   9.2399999999999996E-002   -0.50524046651817223     
   9.2700000000000005E-002    0.37797587316704195     
   9.3000000000000013E-002     1.1827170349720939     
   9.3300000000000008E-002     1.8703802295106904     
   9.3600000000000003E-002     2.4094415856859683     
   9.3899999999999997E-002     2.7751322321861380     
   9.4200000000000006E-002     2.9514823355057871     
   9.4500000000000001E-002     2.9318155367019045     
   9.4800000000000009E-002     2.7180931457322970     
   9.5100000000000004E-002     2.3231936510355098     
   9.5399999999999999E-002     1.7685103979412915     
   9.5699999999999993E-002     1.0846994952245979     
   9.6000000000000002E-002    0.31101898639405157     
   9.6300000000000011E-002   -0.50791042921274254     
   9.6600000000000005E-002    -1.3216171936777688     
   9.6900000000000000E-002    -2.0785733292325723     
   9.7200000000000009E-002    -2.7281179676478047     
   9.7499999999999989E-002    -3.2233102379322958     
   9.7799999999999998E-002    -3.5259621723622558     
   9.8100000000000007E-002    -3.6075073235770816     
   9.8400000000000015E-002    -3.4536277159545818     
   9.8699999999999996E-002    -3.0651419382082707     
   9.9000000000000005E-002    -2.4584167878063141     
   9.9300000000000013E-002    -1.6663701787654759     
   9.9599999999999994E-002   -0.73515446099229820     
   9.9900000000000003E-002    0.27743197261574792     
  0.10020000000000001          1.3064489970985349     
  0.10049999999999999          2.2844772944614782     
  0.10080000000000000          3.1461148076201795     
  0.10110000000000001          3.8329132576937042     
  0.10140000000000000          4.2976354600491931     
  0.10170000000000000          4.5076932570810300     
  0.10200000000000001          4.4472841661156224     
  0.10230000000000002          4.1186553844261482     
  0.10260000000000000          3.5412006487611762     
  0.10290000000000001          2.7507529255221641     
  0.10320000000000000          1.7962088259224345     
  0.10350000000000001         0.73620846946613838     
  0.10380000000000000        -0.36412951117337400     
  0.10410000000000001         -1.4386819053833833     
  0.10440000000000001         -2.4231188356785651     
  0.10470000000000000         -3.2598478081224016     
  0.10500000000000000         -3.9010207790876876     
  0.10530000000000000         -4.3107753708167991     
  0.10560000000000000         -4.4683903752197551     
  0.10590000000000001         -4.3680343456509263     
  0.10620000000000000         -4.0201331846044468     
  0.10650000000000001         -3.4503063317818601     
  0.10679999999999999         -2.6973294411479287     
  0.10710000000000000         -1.8116547600193940     
  0.10740000000000001        -0.85102309071702464     
  0.10770000000000000         0.12205530664848396     
  0.10800000000000000          1.0453056097833340     
  0.10830000000000001          1.8605866662242074     
  0.10859999999999999          2.5178733011250003     
  0.10890000000000000          2.9794133387279942     
  0.10920000000000001          3.2219996951195640     
  0.10950000000000001          3.2393509258949393     
  0.10979999999999999          3.0417297720261871     
  0.11009999999999999          2.6559288650261550     
  0.11040000000000001          2.1224716659055716     
  0.11070000000000001          1.4923951531244199     
  0.11100000000000000         0.82338814641796532     
  0.11130000000000000         0.17380345575569289     
  0.11160000000000002        -0.40122491503551672     
  0.11190000000000001        -0.85538696979939033     
  0.11220000000000001         -1.1542723120119582     
  0.11250000000000000         -1.2781854261555701     
  0.11280000000000000         -1.2240947036134813     
  0.11309999999999999         -1.0041104203050146     
  0.11340000000000001        -0.64487047726920821     
  0.11369999999999998        -0.18358252762184690     
  0.11400000000000000         0.33548378552902314     
  0.11430000000000000         0.86545475413876005     
  0.11460000000000002          1.3620693590635415     
  0.11489999999999999          1.7868009148165669     
  0.11520000000000001          2.1109963196825561     
  0.11550000000000001          2.3172075647696957     
  0.11580000000000000          2.4005125061270149     
  0.11609999999999999          2.3674859707760731     
  0.11640000000000002          2.2343030412901470     
  0.11670000000000001          2.0245087747751001     
  0.11700000000000001          1.7646658552750409     
  0.11730000000000000          1.4817971736304258     
  0.11760000000000000          1.1991137286377338     
  0.11789999999999999         0.93407361424133484     
  0.11820000000000001         0.69674530090265563     
  0.11850000000000001         0.48809521042758597     
  0.11880000000000000         0.30234018972086218     
  0.11910000000000000         0.12690729398607514     
  0.11940000000000002         -5.3746459921809098E-002
  0.11970000000000001        -0.25574984455430183     
  0.12000000000000001        -0.49306396535696884     
  0.12030000000000000        -0.77344607447853164     
  0.12060000000000000         -1.0982177508304858     
  0.12089999999999999         -1.4593065736739064     
  0.12119999999999999         -1.8404735307239903     
  0.12150000000000001         -2.2185648121557833     
  0.12180000000000001         -2.5647923337356460     
  0.12210000000000000         -2.8495063138974075     
  0.12239999999999999         -3.0441070300960149     
  0.12270000000000002         -3.1258388367470360     
  0.12300000000000001         -3.0802909920817143     
  0.12330000000000001         -2.9034369266406941     
  0.12360000000000000         -2.6033977271486179     
  0.12390000000000000         -2.1991315390954327     
  0.12419999999999999         -1.7198475265798052     
  0.12450000000000001         -1.2014817650768705     
  0.12480000000000001        -0.68369583629146291     
  0.12509999999999999        -0.20559432930398369     
  0.12540000000000001         0.19809879212738934     
  0.12570000000000003         0.49983533793949597     
  0.12600000000000000         0.68265730389851065     
  0.12630000000000002         0.73984339084919881     
  0.12659999999999999         0.67637247231117570     
  0.12690000000000001         0.50630095895789040     
  0.12719999999999998         0.25105608329320539     
  0.12750000000000000         -6.2758501175646408E-002
  0.12780000000000002        -0.40813191699490758     
  0.12809999999999999        -0.75805207339913316     
  0.12840000000000001         -1.0900254889625076     
  0.12869999999999998         -1.3865677407987462     
  0.12900000000000000         -1.6351197927059467     
  0.12930000000000003         -1.8296550235187468     
  0.12959999999999999         -1.9675910804844676     
  0.12990000000000002         -2.0497749448582070     
  0.13019999999999998         -2.0790648624458612     
  0.13050000000000000         -2.0579870304334875     
  0.13080000000000003         -1.9890365361253615     
  0.13109999999999999         -1.8732375946616528     
  0.13140000000000002         -1.7102896473436360     
  0.13169999999999998         -1.4998177306997391     
  0.13200000000000001         -1.2408184800309598     
  0.13229999999999997        -0.93348156281474104     
  0.13260000000000000        -0.57972746180138834     
  0.13290000000000002        -0.18279508830170688     
  0.13319999999999999         0.25117664725700273     
  0.13350000000000001         0.71476581203320499     
  0.13380000000000003          1.1996140589936086     
  0.13410000000000000          1.6961879415051486     
  0.13440000000000002          2.1969091950823803     
  0.13469999999999999          2.6943393825980664     
  0.13500000000000001          3.1830286939590451     
  0.13529999999999998          3.6599183293738022     
  0.13560000000000000          4.1216102058504873     
  0.13590000000000002          4.5670686959280999     
  0.13619999999999999          4.9930555036616227     
  0.13650000000000001          5.3953404083756595     
  0.13680000000000003          5.7677907639495203     
  0.13710000000000000          6.0985018758490810     
  0.13740000000000002          6.3742751955527694     
  0.13769999999999999          6.5765707883863058     
  0.13800000000000001          6.6844345350940841     
  0.13829999999999998          6.6767052455154214     
  0.13860000000000000          6.5304267044712674     
  0.13890000000000002          6.2273436351459566     
  0.13919999999999999          5.7517629819373610     
  0.13950000000000001          5.0946905486885044     
  0.13979999999999998          4.2550828831371206     
  0.14010000000000000          3.2390209230009503     
  0.14040000000000002          2.0624913646491763     
  0.14069999999999999         0.74875300379998366     
  0.14100000000000001        -0.67115172527034872     
  0.14130000000000004         -2.1598867183639072     
  0.14160000000000000         -3.6759931250107130     
  0.14189999999999997         -5.1751509807622913     
  0.14219999999999999         -6.6118729719509730     
  0.14250000000000002         -7.9419103338055805     
  0.14279999999999998         -9.1233099367006218     
  0.14310000000000000         -10.117655000193906     
  0.14339999999999997         -10.892313811430228     
  0.14369999999999999         -11.419440325503501     
  0.14400000000000002         -11.678680704701890     
  0.14429999999999998         -11.657109264020676     
  0.14460000000000001         -11.347786585305982     
  0.14490000000000003         -10.753657796120876     
  0.14520000000000000         -9.8833001115388015     
  0.14550000000000002         -8.7533139579023782     
  0.14579999999999999         -7.3880228615149406     
  0.14610000000000001         -5.8167132787637570     
  0.14640000000000003         -4.0772567112988725     
  0.14670000000000000         -2.2108287191792684     
  0.14699999999999996        -0.26402670988573362     
  0.14729999999999999          1.7106559618180341     
  0.14760000000000001          3.6600613499280570     
  0.14789999999999998          5.5263851294297410     
  0.14820000000000000          7.2518870020661819     