  -1.4999999999999999E-002     0.0000000000000000     
  -1.4700000000000000E-002     0.0000000000000000     
  -1.4400000000000000E-002     0.0000000000000000     
  -1.4100000000000000E-002     0.0000000000000000     
  -1.3800000000000000E-002     0.0000000000000000     
  -1.3500000000000000E-002     0.0000000000000000     
  -1.3200000000000000E-002     0.0000000000000000     
  -1.2899999999999998E-002     0.0000000000000000     
  -1.2600000000000000E-002     0.0000000000000000     
  -1.2299999999999998E-002     0.0000000000000000     
  -1.2000000000000000E-002     0.0000000000000000     
  -1.1699999999999999E-002     0.0000000000000000     
  -1.1399999999999999E-002     8.2215986222774576E-036
  -1.1099999999999999E-002    -4.1128912663440228E-034
  -1.0799999999999999E-002     1.1795883037726138E-032
  -1.0499999999999999E-002    -3.4573169648644791E-031
  -1.0199999999999999E-002     5.9015345936705101E-030
  -9.8999999999999991E-003    -7.0104758773887893E-029
  -9.5999999999999992E-003     6.3477842076426651E-028
  -9.2999999999999992E-003    -4.5646030351754445E-027
  -8.9999999999999993E-003     2.6713366315334229E-026
  -8.6999999999999994E-003    -1.2984750340146171E-025
  -8.3999999999999995E-003     5.3087666655057658E-025
  -8.0999999999999996E-003    -1.8265163126046998E-024
  -7.7999999999999988E-003     5.2582095561662827E-024
  -7.4999999999999997E-003    -1.2644410058350601E-023
  -7.1999999999999998E-003     2.4933734890599498E-023
  -6.8999999999999981E-003    -3.1252883083767067E-023
  -6.5999999999999982E-003    -5.4301013218947644E-023
  -6.3000000000000000E-003     6.0074461516674422E-022
  -6.0000000000000001E-003    -2.4763000652031684E-021
  -5.6999999999999985E-003     5.6604575162178894E-021
  -5.3999999999999986E-003    -5.8412602957525147E-022
  -5.1000000000000004E-003    -5.9622952370623490E-020
  -4.7999999999999987E-003     3.2016384915443514E-019
  -4.5000000000000005E-003    -1.1165996317543329E-018
  -4.1999999999999989E-003     3.0329081739430417E-018
  -3.8999999999999990E-003    -6.7296097643057994E-018
  -3.5999999999999990E-003     1.2203852180692947E-017
  -3.2999999999999991E-003    -1.7193437068476087E-017
  -2.9999999999999992E-003     1.4907081731238691E-017
  -2.6999999999999993E-003     7.9825236945276194E-018
  -2.3999999999999994E-003    -7.2116755706145555E-017
  -2.0999999999999977E-003     2.0563661058976005E-016
  -1.7999999999999995E-003    -4.4258366172587730E-016
  -1.4999999999999979E-003     7.9818265136201352E-016
  -1.1999999999999997E-003    -1.1622284123668472E-015
  -8.9999999999999976E-004     1.0707349838988715E-015
  -5.9999999999999810E-004     4.6979110114551428E-016
  -2.9999999999999992E-004    -4.5286019366723353E-015
   0.0000000000000000          1.0513015493416634E-014
   3.0000000000000165E-004    -1.3686652282167682E-014
   5.9999999999999984E-004     4.9549686761669962E-015
   9.0000000000000149E-004     2.3265962182002220E-014
   1.2000000000000031E-003    -6.7023379305298364E-014
   1.5000000000000013E-003     1.1046853942665510E-013
   1.8000000000000030E-003    -1.5149506811789476E-013
   2.1000000000000012E-003     2.3177361180466705E-013
   2.3999999999999994E-003    -3.5625942842489045E-013
   2.7000000000000010E-003     1.3972361408067652E-013
   2.9999999999999992E-003     1.5921367956667209E-012
   3.3000000000000008E-003    -5.5380235987334547E-012
   3.6000000000000025E-003     5.1725646335598618E-012
   3.9000000000000007E-003     2.5555882063321711E-011
   4.2000000000000023E-003    -1.2171466612365123E-010
   4.5000000000000005E-003     2.0377369236435072E-010
   4.7999999999999987E-003     2.0581872317571026E-010
   5.1000000000000004E-003    -1.8361770992569859E-009
   5.4000000000000020E-003     3.2718565634581864E-009
   5.7000000000000037E-003     3.2588429732527402E-009
   5.9999999999999984E-003    -2.3463961440484127E-008
   6.3000000000000000E-003     2.0002225653570349E-008
   6.6000000000000017E-003     8.9117861534759868E-008
   6.9000000000000034E-003    -1.9333921841280244E-007
   7.2000000000000015E-003    -2.4339982473975397E-007
   7.5000000000000032E-003     8.7674231963319471E-007
   7.8000000000000014E-003     6.1705407006229507E-007
   8.0999999999999996E-003    -2.7995081381959608E-006
   8.4000000000000012E-003    -2.4268429115181789E-006
   8.7000000000000029E-003     9.3806565928389318E-006
   9.0000000000000011E-003     3.3498941775178537E-005
   9.2999999999999992E-003     7.5871656008530408E-005
   9.6000000000000009E-003     1.5430992061737925E-004
   9.8999999999999991E-003     2.8545199893414974E-004
   1.0200000000000001E-002     4.7446339158341289E-004
   1.0500000000000002E-002     7.3287385748699307E-004
   1.0800000000000004E-002     1.1064787395298481E-003
   1.1099999999999999E-002     1.6768292989581823E-003
   1.1400000000000000E-002     2.5524110533297062E-003
   1.1700000000000002E-002     3.8692315574735403E-003
   1.2000000000000004E-002     5.7961475104093552E-003
   1.2300000000000002E-002     8.5561098530888557E-003
   1.2600000000000000E-002     1.2445827014744282E-002
   1.2900000000000002E-002     1.7844459041953087E-002
   1.3200000000000000E-002     2.5230789557099342E-002
   1.3500000000000002E-002     3.5185258835554123E-002
   1.3800000000000003E-002     4.8366874456405640E-002
   1.4100000000000001E-002     6.5485961735248566E-002
   1.4400000000000000E-002     8.7270766496658325E-002
   1.4700000000000001E-002    0.11442844569683075     
   1.4999999999999999E-002    0.14755356311798096     
   1.5300000000000001E-002    0.18698075413703918     
   1.5600000000000003E-002    0.23263439536094666     
   1.5899999999999997E-002    0.28385365009307861     
   1.6199999999999999E-002    0.33918574452400208     
   1.6500000000000001E-002    0.39616400003433228     
   1.6800000000000002E-002    0.45114600658416748     
   1.7100000000000004E-002    0.49918866157531738     
   1.7400000000000006E-002    0.53401029109954834     
   1.7700000000000000E-002    0.54800385236740112     
   1.8000000000000002E-002    0.53253805637359619     
   1.8300000000000004E-002    0.47837051749229431     
   1.8600000000000005E-002    0.37631648778915405     
   1.8900000000000000E-002    0.21805836260318756     
   1.9200000000000002E-002    -2.8595775365829468E-003
   1.9500000000000003E-002   -0.28986698389053345     
   1.9799999999999998E-002   -0.64226484298706055     
   2.0100000000000000E-002    -1.0542024374008179     
   2.0400000000000001E-002    -1.5138399600982666     
   2.0700000000000003E-002    -2.0031161308288574     
   2.0999999999999998E-002    -2.4976670742034912     
   2.1299999999999999E-002    -2.9677491188049316     
   2.1600000000000001E-002    -3.3794395923614502     
   2.1900000000000003E-002    -3.6966738700866699     
   2.2200000000000004E-002    -3.8838839530944824     
   2.2500000000000006E-002    -3.9087038040161133     
   2.2800000000000001E-002    -3.7453553676605225     
   2.3100000000000002E-002    -3.3771455287933350     
   2.3400000000000004E-002    -2.7992188930511475     
   2.3699999999999999E-002    -2.0199308395385742     
   2.4000000000000000E-002    -1.0614975690841675     
   2.4300000000000002E-002     4.0155906230211258E-002
   2.4599999999999997E-002     1.2375519275665283     
   2.4900000000000005E-002     2.4737982749938965     
   2.5200000000000000E-002     3.6869497299194336     
   2.5499999999999995E-002     4.8137178421020508     
   2.5800000000000003E-002     5.7941565513610840     
   2.6099999999999998E-002     6.5762972831726074     
   2.6400000000000007E-002     7.1192007064819336     
   2.6700000000000002E-002     7.3962674140930176     
   2.6999999999999996E-002     7.3966026306152344     
   2.7300000000000005E-002     7.1252136230468750     
   2.7600000000000000E-002     6.6021509170532227     
   2.7900000000000008E-002     5.8602790832519531     
   2.8200000000000003E-002     4.9419312477111816     
   2.8499999999999998E-002     3.8952581882476807     
   2.8800000000000006E-002     2.7704226970672607     
   2.9100000000000001E-002     1.6155310869216919     
   2.9400000000000003E-002    0.47388711571693420     
   2.9700000000000004E-002   -0.61912077665328979     
   3.0000000000000006E-002    -1.6366945505142212     
   3.0300000000000001E-002    -2.5607144832611084     
   3.0600000000000002E-002    -3.3823072910308838     
   3.0900000000000004E-002    -4.0979132652282715     
   3.1199999999999999E-002    -4.7092165946960449     
   3.1500000000000007E-002    -5.2192754745483398     
   3.1800000000000002E-002    -5.6298370361328125     
   3.2099999999999997E-002    -5.9404511451721191     
   3.2400000000000005E-002    -6.1448202133178711     
   3.2700000000000000E-002    -6.2330880165100098     
   3.3000000000000002E-002    -6.1903223991394043     
   3.3300000000000003E-002    -5.9990410804748535     
   3.3599999999999998E-002    -5.6424698829650879     
   3.3900000000000000E-002    -5.1059513092041016     
   3.4200000000000001E-002    -4.3823857307434082     
   3.4500000000000003E-002    -3.4738926887512207     
   3.4799999999999998E-002    -2.3953130245208740     
   3.5099999999999999E-002    -1.1753581762313843     
   3.5400000000000001E-002    0.14312517642974854     
   3.5699999999999996E-002     1.5045001506805420     
   3.6000000000000004E-002     2.8436741828918457     
   3.6299999999999999E-002     4.0893626213073730     
   3.6600000000000008E-002     5.1703333854675293     
   3.6900000000000002E-002     6.0202813148498535     
   3.7199999999999997E-002     6.5838718414306641     
   3.7500000000000006E-002     6.8217549324035645     
   3.7800000000000000E-002     6.7141976356506348     
   3.8100000000000009E-002     6.2640089988708496     
   3.8400000000000004E-002     5.4965257644653320     
   3.8699999999999998E-002     4.4582157135009766     
   3.9000000000000007E-002     3.2135262489318848     
   3.9300000000000002E-002     1.8404325246810913     
   3.9600000000000003E-002    0.42389073967933655     
   3.9900000000000005E-002   -0.95044612884521484     
   4.0200000000000000E-002    -2.2027103900909424     
   4.0500000000000001E-002    -3.2654190063476562     
   4.0800000000000003E-002    -4.0875582695007324     
   4.1100000000000005E-002    -4.6388382911682129     
   4.1399999999999999E-002    -4.9109239578247070     
   4.1700000000000008E-002    -4.9172940254211426     
   4.2000000000000003E-002    -4.6913619041442871     
   4.2299999999999997E-002    -4.2818222045898438     
   4.2600000000000006E-002    -3.7494072914123535     
   4.2900000000000001E-002    -3.1594431400299072     
   4.3200000000000002E-002    -2.5761969089508057     
   4.3500000000000004E-002    -2.0577924251556396     
   4.3799999999999999E-002    -1.6493930816650391     
   4.4100000000000000E-002    -1.3818392753601074     
   4.4400000000000002E-002    -1.2672065496444702     
   4.4700000000000004E-002    -1.2994512319564819     
   4.4999999999999998E-002    -1.4554721117019653     
   4.5300000000000000E-002    -1.6969536542892456     
   4.5600000000000002E-002    -1.9770538806915283     
   4.5899999999999996E-002    -2.2427468299865723     
   4.6200000000000005E-002    -2.4413011074066162     
   4.6500000000000000E-002    -2.5257008075714111     
   4.6799999999999994E-002    -2.4583716392517090     
   4.7100000000000003E-002    -2.2151412963867188     
   4.7399999999999998E-002    -1.7861285209655762     
   4.7700000000000006E-002    -1.1763321161270142     
   4.8000000000000001E-002   -0.40405425429344177     
   4.8300000000000010E-002    0.50225412845611572     
   4.8600000000000004E-002     1.5068069696426392     
   4.8899999999999999E-002     2.5710368156433105     
   4.9200000000000008E-002     3.6568994522094727     
   4.9500000000000002E-002     4.7310442924499512     
   4.9800000000000011E-002     5.7647395133972168     
   5.0100000000000006E-002     6.7361364364624023     
   5.0400000000000000E-002     7.6286911964416504     
   5.0700000000000009E-002     8.4292240142822266     
   5.1000000000000004E-002     9.1264095306396484     
   5.1299999999999998E-002     9.7060298919677734     
   5.1600000000000007E-002     10.151049613952637     
   5.1900000000000002E-002     10.437730789184570     
   5.2200000000000010E-002     10.537415504455566     
   5.2500000000000005E-002     10.417730331420898     
   5.2800000000000000E-002     10.042211532592773     
   5.3099999999999994E-002     9.3782892227172852     
   5.3400000000000003E-002     8.3993053436279297     
   5.3699999999999998E-002     7.0892324447631836     
   5.4000000000000006E-002     5.4477610588073730     
   5.4300000000000001E-002     3.4911973476409912     
   5.4599999999999996E-002     1.2578605413436890     
   5.4900000000000004E-002    -1.1959360837936401     
   5.5199999999999999E-002    -3.7953610420227051     
   5.5499999999999994E-002    -6.4493379592895508     
   5.5800000000000002E-002    -9.0583934783935547     
   5.6099999999999997E-002    -11.517032623291016     
   5.6400000000000006E-002    -13.719282150268555     
   5.6700000000000000E-002    -15.566315650939941     
   5.6999999999999995E-002    -16.970735549926758     
   5.7300000000000004E-002    -17.861042022705078     
   5.7599999999999998E-002    -18.185863494873047     
   5.7900000000000007E-002    -17.916990280151367     
   5.8200000000000002E-002    -17.050540924072266     
   5.8499999999999996E-002    -15.609364509582520     
   5.8800000000000005E-002    -13.640194892883301     
   5.9100000000000000E-002    -11.216005325317383     
   5.9400000000000008E-002    -8.4306373596191406     
   5.9700000000000003E-002    -5.3963408470153809     
   6.0000000000000012E-002    -2.2411308288574219     
   6.0300000000000006E-002    0.90106123685836792     
   6.0600000000000001E-002     3.8920760154724121     
   6.0900000000000010E-002     6.6003780364990234     
   6.1200000000000004E-002     8.9070968627929688     
   6.1500000000000013E-002     10.712073326110840     
   6.1800000000000008E-002     11.943071365356445     
   6.2100000000000002E-002     12.557246208190918     
   6.2399999999999997E-002     12.548591613769531     
   6.2700000000000006E-002     11.946826934814453     
   6.3000000000000000E-002     10.814874649047852     
   6.3300000000000009E-002     9.2499284744262695     
   6.3600000000000004E-002     7.3727831840515137     
   6.3899999999999998E-002     5.3221182823181152     
   6.4199999999999993E-002     3.2454965114593506     
   6.4500000000000002E-002     1.2870160341262817     
   6.4800000000000010E-002   -0.41994807124137878     
   6.5100000000000005E-002    -1.7650110721588135     
   6.5400000000000000E-002    -2.6678860187530518     
   6.5700000000000008E-002    -3.0829865932464600     
   6.5999999999999989E-002    -3.0046436786651611     
   6.6299999999999998E-002    -2.4651801586151123     
   6.6600000000000006E-002    -1.5326809883117676     
   6.6900000000000001E-002   -0.30639693140983582     
   6.7199999999999996E-002     1.0946195125579834     
   6.7500000000000004E-002     2.5394361019134521     
   6.7800000000000013E-002     3.8965051174163818     
   6.8099999999999994E-002     5.0466275215148926     
   6.8400000000000002E-002     5.8900218009948730     
   6.8700000000000011E-002     6.3576507568359375     
   6.8999999999999992E-002     6.4149875640869141     
   6.9300000000000000E-002     6.0626239776611328     
   6.9600000000000009E-002     5.3389358520507812     
   6.9900000000000004E-002     4.3102192878723145     
   7.0199999999999999E-002     3.0671432018280029     
   7.0500000000000007E-002     1.7141195535659790     
   7.0800000000000016E-002    0.35606208443641663     
   7.1099999999999997E-002   -0.90660154819488525     
   7.1400000000000005E-002    -1.9933122396469116     
   7.1700000000000000E-002    -2.8469457626342773     
   7.1999999999999995E-002    -3.4369077682495117     
   7.2300000000000003E-002    -3.7643222808837891     
   7.2600000000000012E-002    -3.8534061908721924     
   7.2900000000000006E-002    -3.7521295547485352     
   7.3200000000000001E-002    -3.5225901603698730     
   7.3499999999999996E-002    -3.2308754920959473     
   7.3800000000000004E-002    -2.9431440830230713     
   7.4099999999999999E-002    -2.7134537696838379     
   7.4400000000000008E-002    -2.5826904773712158     
   7.4700000000000003E-002    -2.5735399723052979     
   7.5000000000000011E-002    -2.6895656585693359     
   7.5299999999999992E-002    -2.9183053970336914     
   7.5600000000000001E-002    -3.2330682277679443     
   7.5900000000000009E-002    -3.5990242958068848     
   7.6200000000000004E-002    -3.9776425361633301     
   7.6499999999999999E-002    -4.3327322006225586     
   7.6800000000000007E-002    -4.6320114135742188     
   7.7099999999999988E-002    -4.8516979217529297     
   7.7399999999999997E-002    -4.9767661094665527     
   7.7700000000000005E-002    -5.0016822814941406     
   7.8000000000000014E-002    -4.9294672012329102     
   7.8299999999999995E-002    -4.7688326835632324     
   7.8600000000000003E-002    -4.5356726646423340     
   7.8900000000000012E-002    -4.2455778121948242     
   7.9199999999999993E-002    -3.9166681766510010     
   7.9500000000000001E-002    -3.5674490928649902     
   7.9800000000000010E-002    -3.2121758460998535     
   8.0100000000000018E-002    -2.8637201786041260     
   8.0399999999999999E-002    -2.5280146598815918     
   8.0700000000000008E-002    -2.2051362991333008     
   8.1000000000000003E-002    -1.8893948793411255     
   8.1299999999999997E-002    -1.5645008087158203     
   8.1600000000000006E-002    -1.2104557752609253     
   8.1900000000000014E-002   -0.79996222257614136     
   8.2199999999999995E-002   -0.30250021815299988     
   8.2500000000000004E-002    0.30829501152038574     
   8.2799999999999999E-002     1.0566413402557373     
   8.3100000000000007E-002     1.9533402919769287     
   8.3400000000000002E-002     2.9961359500885010     
   8.3700000000000011E-002     4.1665587425231934     
   8.4000000000000005E-002     5.4286155700683594     
   8.4300000000000000E-002     6.7335929870605469     
   8.4599999999999995E-002     8.0247030258178711     
   8.4900000000000003E-002     9.2442445755004883     
   8.5199999999999998E-002     10.343284606933594     
   8.5500000000000007E-002     11.288208961486816     
   8.5800000000000001E-002     12.067689895629883     
   8.6100000000000010E-002     12.698329925537109     
   8.6399999999999991E-002     13.217839241027832     
   8.6699999999999999E-002     13.682168006896973     
   8.7000000000000008E-002     14.152804374694824     
   8.7300000000000003E-002     14.680812835693359     
   8.7599999999999997E-002     15.294356346130371     
   8.7900000000000006E-002     15.977710723876953     
   8.8200000000000014E-002     16.666671752929688     
   8.8499999999999995E-002     17.236581802368164     
   8.8800000000000004E-002     17.506702423095703     
   8.9100000000000013E-002     17.255035400390625     
   8.9399999999999993E-002     16.233070373535156     
   8.9700000000000002E-002     14.198767662048340     
   9.0000000000000011E-002     10.944992065429688     
   9.0299999999999991E-002     6.3343429565429688     
   9.0600000000000000E-002    0.33224382996559143     
   9.0900000000000009E-002    -6.9755268096923828     
   9.1200000000000017E-002    -15.359972000122070     
   9.1499999999999998E-002    -24.458534240722656     
   9.1800000000000007E-002    -33.783897399902344     
   9.2100000000000001E-002    -42.753089904785156     
   9.2399999999999996E-002    -50.734802246093750     
   9.2700000000000005E-002    -57.089694976806641     
   9.3000000000000013E-002    -61.236427307128906     
   9.3300000000000008E-002    -62.697891235351562     
   9.3600000000000003E-002    -61.152881622314453     
   9.3899999999999997E-002    -56.474815368652344     
   9.4200000000000006E-002    -48.743976593017578     
   9.4500000000000001E-002    -38.264232635498047     
   9.4800000000000009E-002    -25.535203933715820     
   9.5100000000000004E-002    -11.226015090942383     
   9.5399999999999999E-002     3.8726878166198730     
   9.5699999999999993E-002     18.913660049438477     
   9.6000000000000002E-002     33.043174743652344     
   9.6300000000000011E-002     45.477638244628906     
   9.6600000000000005E-002     55.549789428710938     
   9.6900000000000000E-002     62.756645202636719     
   9.7200000000000009E-002     66.791908264160156     
   9.7499999999999989E-002     67.554313659667969     
   9.7799999999999998E-002     65.149597167968750     
   9.8100000000000007E-002     59.868667602539062     
   9.8400000000000015E-002     52.158798217773438     
   9.8699999999999996E-002     42.579319000244141     
   9.9000000000000005E-002     31.758237838745117     
   9.9300000000000013E-002     20.348539352416992     
   9.9599999999999994E-002     8.9751195907592773     
   9.9900000000000003E-002    -1.7878339290618896     
  0.10020000000000001         -11.464353561401367     
  0.10049999999999999         -19.677984237670898     
  0.10080000000000000         -26.177692413330078     
  0.10110000000000001         -30.832691192626953     
  0.10140000000000000         -33.619865417480469     
  0.10170000000000000         -34.628631591796875     
  0.10200000000000001         -34.020954132080078     
  0.10230000000000002         -32.033302307128906     
  0.10260000000000000         -28.941913604736328     
  0.10290000000000001         -25.041320800781250     
  0.10320000000000000         -20.640327453613281     
  0.10350000000000001         -16.021074295043945     
  0.10380000000000000         -11.446511268615723     
  0.10410000000000001         -7.1358270645141602     
  0.10440000000000001         -3.2588448524475098     
  0.10470000000000000          5.9431746602058411E-002
  0.10500000000000000          2.7524731159210205     
  0.10530000000000000          4.7963995933532715     
  0.10560000000000000          6.2109198570251465     
  0.10590000000000001          7.0518121719360352     
  0.10620000000000000          7.3954672813415527     
  0.10650000000000001          7.3335566520690918     
  0.10679999999999999          6.9650878906250000     
  0.10710000000000000          6.3833327293395996     
  0.10740000000000001          5.6722707748413086     
  0.10770000000000000          4.9061846733093262     
  0.10800000000000000          4.1366467475891113     
  0.10830000000000001          3.4090216159820557     
  0.10859999999999999          2.7470431327819824     
  0.10890000000000000          2.1664817333221436     
  0.10920000000000001          1.6789715290069580     
  0.10950000000000001          1.2778044939041138     
  0.10979999999999999         0.96764510869979858     
  0.11009999999999999         0.73976391553878784     
  0.11040000000000001         0.58697915077209473     
  0.11070000000000001         0.50619357824325562     
  0.11100000000000000         0.47832155227661133     
  0.11130000000000000         0.49974378943443298     
  0.11160000000000002         0.55147564411163330     
  0.11190000000000001         0.61962163448333740     
  0.11220000000000001         0.69306254386901855     
  0.11250000000000000         0.75003480911254883     
  0.11280000000000000         0.78500145673751831     
  0.11309999999999999         0.78624075651168823     
  0.11340000000000001         0.75113439559936523     
  0.11369999999999998         0.68219316005706787     
  0.11400000000000000         0.58048093318939209     
  0.11430000000000000         0.45861527323722839     
  0.11460000000000002         0.32468238472938538     
  0.11489999999999999         0.19093777239322662     
  0.11520000000000001          6.6001482307910919E-002
  0.11550000000000001         -4.3236993253231049E-002
  0.11580000000000000        -0.13304309546947479     
  0.11609999999999999        -0.20311176776885986     
  0.11640000000000002        -0.25530600547790527     
  0.11670000000000001        -0.29709455370903015     
  0.11700000000000001        -0.33026543259620667     
  0.11730000000000000        -0.36399734020233154     
  0.11760000000000000        -0.39972618222236633     
  0.11789999999999999        -0.43833255767822266     
  0.11820000000000001        -0.48310741782188416     
  0.11850000000000001        -0.52518099546432495     
  0.11880000000000000        -0.56768250465393066     
  0.11910000000000000        -0.60063219070434570     
  0.11940000000000002        -0.62024092674255371     
  0.11970000000000001        -0.62739735841751099     
  0.12000000000000001        -0.61490654945373535     
  0.12030000000000000        -0.59131920337677002     
  0.12060000000000000        -0.55322068929672241     
  0.12089999999999999        -0.50646632909774780     
  0.12119999999999999        -0.45795929431915283     
  0.12150000000000001        -0.40766072273254395     
  0.12180000000000001        -0.36406260728836060     
  0.12210000000000000        -0.32436129450798035     
  0.12239999999999999        -0.29035970568656921     
  0.12270000000000002        -0.25980696082115173     
  0.12300000000000001        -0.22828865051269531     
  0.12330000000000001        -0.19473160803318024     
  0.12360000000000000        -0.15396952629089355     
  0.12390000000000000        -0.10546050220727921     
  0.12419999999999999         -4.8288099467754364E-002
  0.12450000000000001          1.3466885313391685E-002
  0.12480000000000001          7.7429577708244324E-002
  0.12509999999999999         0.13602682948112488     
  0.12540000000000001         0.18267944455146790     
  0.12570000000000003         0.21444974839687347     
  0.12600000000000000         0.22247228026390076     
  0.12630000000000002         0.21078486740589142     
  0.12659999999999999         0.17812110483646393     
  0.12690000000000001         0.13009269535541534     
  0.12719999999999998          7.7910222113132477E-002
  0.12750000000000000          2.5589022785425186E-002
  0.12780000000000002         -1.0064452886581421E-002
  0.12809999999999999         -2.5624705478549004E-002
  0.12840000000000001         -1.3539439998567104E-002
  0.12869999999999998          2.8823981061577797E-002
  0.12900000000000000          9.3254417181015015E-002
  0.12930000000000003         0.17741866409778595     
  0.12959999999999999         0.26477202773094177     
  0.12990000000000002         0.34464892745018005     
  0.13019999999999998         0.40216210484504700     
  0.13050000000000000         0.42371532320976257     
  0.13080000000000003         0.40552163124084473     
  0.13109999999999999         0.34188151359558105     
  0.13140000000000002         0.24075745046138763     
  0.13169999999999998         0.11006884276866913     
  0.13200000000000001         -3.2496277242898941E-002
  0.13229999999999997        -0.16907039284706116     
  0.13260000000000000        -0.28197762370109558     
  0.13290000000000002        -0.35274541378021240     
  0.13319999999999999        -0.37463679909706116     
  0.13350000000000001        -0.33872470259666443     
  0.13380000000000003        -0.25404024124145508     
  0.13410000000000000        -0.13155275583267212     
  0.13440000000000002          1.1271649040281773E-002
  0.13469999999999999         0.14575162529945374     
  0.13500000000000001         0.25558760762214661     
  0.13529999999999998         0.31309357285499573     
  0.13560000000000000         0.30815097689628601     
  0.13590000000000002         0.23597702383995056     
  0.13619999999999999          9.7940593957901001E-002
  0.13650000000000001         -8.2271106541156769E-002
  0.13680000000000003        -0.28468886017799377     
  0.13710000000000000        -0.47282463312149048     
  0.13740000000000002        -0.61420571804046631     
  0.13769999999999999        -0.68080472946166992     
  0.13800000000000001        -0.64603829383850098     
  0.13829999999999998        -0.50467377901077271     
  0.13860000000000000        -0.25791510939598083     
  0.13890000000000002          7.1230873465538025E-002
  0.13919999999999999         0.44797700643539429     
  0.13950000000000001         0.82809656858444214     
  0.13979999999999998          1.1596889495849609     
  0.14010000000000000          1.3934856653213501     
  0.14040000000000002          1.4869270324707031     
  0.14069999999999999          1.4129600524902344     
  0.14100000000000001          1.1587438583374023     
  0.14130000000000004         0.73745661973953247     
  0.14160000000000000         0.17687173187732697     
  0.14189999999999997        -0.47386574745178223     
  0.14219999999999999         -1.1501064300537109     
  0.14250000000000002         -1.7887412309646606     
  0.14279999999999998         -2.3158402442932129     
  0.14310000000000000         -2.6769459247589111     
  0.14339999999999997         -2.8252153396606445     
  0.14369999999999999         -2.7329182624816895     
  0.14400000000000002         -2.4035887718200684     
  0.14429999999999998         -1.8493226766586304     
  0.14460000000000001         -1.1176877021789551     
  0.14490000000000003        -0.26333314180374146     
  0.14520000000000000         0.64658403396606445     
  0.14550000000000002          1.5333168506622314     
  0.14579999999999999          2.3336403369903564     
  0.14610000000000001          2.9787635803222656     
  0.14640000000000003          3.4250321388244629     
  0.14670000000000000          3.6416749954223633     
  0.14699999999999996          3.6141774654388428     
  0.14729999999999999          3.3559474945068359     
  0.14760000000000001          2.8866913318634033     
  0.14789999999999998          2.2497563362121582     
  0.14820000000000000          1.4935654401779175     