  -1.4999999999999999E-002     0.0000000000000000     
  -1.4700000000000000E-002     0.0000000000000000     
  -1.4400000000000000E-002     0.0000000000000000     
  -1.4100000000000000E-002     0.0000000000000000     
  -1.3800000000000000E-002     0.0000000000000000     
  -1.3500000000000000E-002     0.0000000000000000     
  -1.3200000000000000E-002     0.0000000000000000     
  -1.2899999999999998E-002     0.0000000000000000     
  -1.2600000000000000E-002     0.0000000000000000     
  -1.2299999999999998E-002     0.0000000000000000     
  -1.2000000000000000E-002     0.0000000000000000     
  -1.1699999999999999E-002     0.0000000000000000     
  -1.1399999999999999E-002     0.0000000000000000     
  -1.1099999999999999E-002     0.0000000000000000     
  -1.0799999999999999E-002     0.0000000000000000     
  -1.0499999999999999E-002     0.0000000000000000     
  -1.0199999999999999E-002     0.0000000000000000     
  -9.8999999999999991E-003     0.0000000000000000     
  -9.5999999999999992E-003     0.0000000000000000     
  -9.2999999999999992E-003     0.0000000000000000     
  -8.9999999999999993E-003     0.0000000000000000     
  -8.6999999999999994E-003     0.0000000000000000     
  -8.3999999999999995E-003     0.0000000000000000     
  -8.0999999999999996E-003     0.0000000000000000     
  -7.7999999999999988E-003     0.0000000000000000     
  -7.4999999999999997E-003     0.0000000000000000     
  -7.1999999999999998E-003    -8.3263674979002303E-037
  -6.8999999999999981E-003    -3.5213830255849136E-035
  -6.5999999999999982E-003     5.0184781093043490E-035
  -6.3000000000000000E-003     1.6031654606033369E-033
  -6.0000000000000001E-003     1.6347067291007836E-034
  -5.6999999999999985E-003    -5.7063127236656075E-032
  -5.3999999999999986E-003     2.7237667599019175E-032
  -5.1000000000000004E-003     1.2900754275698198E-030
  -4.7999999999999987E-003    -1.7852941764130496E-030
  -4.5000000000000005E-003    -2.0320992399840127E-029
  -4.1999999999999989E-003     5.1289151459484820E-029
  -3.8999999999999990E-003     2.2023097988327970E-028
  -3.5999999999999990E-003    -9.3647679099998530E-028
  -3.2999999999999991E-003    -1.2669732065081375E-027
  -2.9999999999999992E-003     1.1367125880521169E-026
  -2.6999999999999993E-003    -4.4000565881448545E-027
  -2.3999999999999994E-003    -8.5878085199817754E-026
  -2.0999999999999977E-003     1.5583949647831417E-025
  -1.7999999999999995E-003     3.3485409932640465E-025
  -1.4999999999999979E-003    -1.4780028894891670E-024
  -1.1999999999999997E-003     5.8695757716364353E-025
  -8.9999999999999976E-004     6.9181192344492100E-024
  -5.9999999999999810E-004    -1.6654989944546898E-023
  -2.9999999999999992E-004    -8.8727130314733303E-026
   0.0000000000000000          8.5519830133383647E-023
   3.0000000000000165E-004    -2.0710587598249261E-022
   5.9999999999999984E-004     7.3914070630448671E-023
   9.0000000000000149E-004     9.4012065452849297E-022
   1.2000000000000031E-003    -3.0741424295451683E-021
   1.5000000000000013E-003     3.8203457759796625E-021
   1.8000000000000030E-003     4.9417651952928858E-021
   2.1000000000000012E-003    -3.3956394224284004E-020
   2.3999999999999994E-003     7.7226499641442715E-020
   2.7000000000000010E-003    -7.4743006174525889E-020
   2.9999999999999992E-003    -1.1232735317315639E-019
   3.3000000000000008E-003     6.4293238666022319E-019
   3.6000000000000025E-003    -1.4815777742020241E-018
   3.9000000000000007E-003     2.0504761001714676E-018
   4.2000000000000023E-003    -9.7067184020775452E-019
   4.5000000000000005E-003    -3.6764761972052236E-018
   4.7999999999999987E-003     1.3133237575371801E-017
   5.1000000000000004E-003    -2.5805098620479900E-017
   5.4000000000000020E-003     3.5036465689434966E-017
   5.7000000000000037E-003    -2.8375147129320932E-017
   5.9999999999999984E-003    -1.0447899114294966E-017
   6.3000000000000000E-003     9.4728214206315397E-017
   6.6000000000000017E-003    -2.0675207357195516E-016
   6.9000000000000034E-003     1.9627717445528585E-016
   7.2000000000000015E-003     2.7051723000196112E-016
   7.5000000000000032E-003     7.2194058050494350E-016
   7.8000000000000014E-003    -2.8790778626181651E-014
   8.0999999999999996E-003     2.5047715637716017E-013
   8.4000000000000012E-003    -1.4409146618932223E-012
   8.7000000000000029E-003     6.2842149019248783E-012
   9.0000000000000011E-003    -2.0912101911241265E-011
   9.2999999999999992E-003     4.7755046445052685E-011
   9.6000000000000009E-003    -3.4906747631291424E-011
   9.8999999999999991E-003    -2.6816873721635659E-010
   1.0200000000000001E-002     1.3830062650654895E-009
   1.0500000000000002E-002    -3.0710325393812354E-009
   1.0800000000000004E-002     6.9415623249469149E-010
   1.1099999999999999E-002     1.6272753811108487E-008
   1.1400000000000000E-002    -4.1572910447484901E-008
   1.1700000000000002E-002     1.6289138926595115E-009
   1.2000000000000004E-002     1.7854962663932383E-007
   1.2300000000000002E-002    -2.1664396854248480E-007
   1.2600000000000000E-002    -4.8413829745186376E-007
   1.2900000000000002E-002     8.9110886847265647E-007
   1.3200000000000000E-002     1.3738371080762590E-006
   1.3500000000000002E-002    -2.1905243556830101E-006
   1.3800000000000003E-002    -5.0529115469544195E-006
   1.4100000000000001E-002     3.2758716770331375E-006
   1.4400000000000000E-002     3.0743558454560116E-005
   1.4700000000000001E-002     7.9889658081810921E-005
   1.4999999999999999E-002     1.5025932225398719E-004
   1.5300000000000001E-002     2.4187110830098391E-004
   1.5600000000000003E-002     3.6157536669634283E-004
   1.5899999999999997E-002     5.3581467363983393E-004
   1.6199999999999999E-002     8.1279827281832695E-004
   1.6500000000000001E-002     1.2507569044828415E-003
   1.6800000000000002E-002     1.9187286961823702E-003
   1.7100000000000004E-002     2.9034977778792381E-003
   1.7400000000000006E-002     4.3161036446690559E-003
   1.7700000000000000E-002     6.3114282675087452E-003
   1.8000000000000002E-002     9.0995244681835175E-003
   1.8300000000000004E-002     1.2942004948854446E-002
   1.8600000000000005E-002     1.8149783834815025E-002
   1.8900000000000000E-002     2.5079244747757912E-002
   1.9200000000000002E-002     3.4125771373510361E-002
   1.9500000000000003E-002     4.5702978968620300E-002
   1.9799999999999998E-002     6.0209527611732483E-002
   2.0100000000000000E-002     7.7991664409637451E-002
   2.0400000000000001E-002     9.9267058074474335E-002
   2.0700000000000003E-002    0.12403666228055954     
   2.0999999999999998E-002    0.15199360251426697     
   2.1299999999999999E-002    0.18240568041801453     
   2.1600000000000001E-002    0.21400117874145508     
   2.1900000000000003E-002    0.24486871063709259     
   2.2200000000000004E-002    0.27237752079963684     
   2.2500000000000006E-002    0.29317900538444519     
   2.2800000000000001E-002    0.30322378873825073     
   2.3100000000000002E-002    0.29790589213371277     
   2.3400000000000004E-002    0.27230077981948853     
   2.3699999999999999E-002    0.22148703038692474     
   2.4000000000000000E-002    0.14105390012264252     
   2.4300000000000002E-002     2.7595661580562592E-002
   2.4599999999999997E-002   -0.12063863128423691     
   2.4900000000000005E-002   -0.30317577719688416     
   2.5200000000000000E-002   -0.51680618524551392     
   2.5499999999999995E-002   -0.75516933202743530     
   2.5800000000000003E-002    -1.0086357593536377     
   2.6099999999999998E-002    -1.2643742561340332     
   2.6400000000000007E-002    -1.5068230628967285     
   2.6700000000000002E-002    -1.7185078859329224     
   2.6999999999999996E-002    -1.8811217546463013     
   2.7300000000000005E-002    -1.9769480228424072     
   2.7600000000000000E-002    -1.9903566837310791     
   2.7900000000000008E-002    -1.9093563556671143     
   2.8200000000000003E-002    -1.7270565032958984     
   2.8499999999999998E-002    -1.4426891803741455     
   2.8800000000000006E-002    -1.0624176263809204     
   2.9100000000000001E-002   -0.59925323724746704     
   2.9400000000000003E-002    -7.2741650044918060E-002
   2.9700000000000004E-002    0.49222877621650696     
   3.0000000000000006E-002     1.0671670436859131     
   3.0300000000000001E-002     1.6216099262237549     
   3.0600000000000002E-002     2.1258363723754883     
   3.0900000000000004E-002     2.5526866912841797     
   3.1199999999999999E-002     2.8798763751983643     
   3.1500000000000007E-002     3.0915763378143311     
   3.1800000000000002E-002     3.1793138980865479     
   3.2099999999999997E-002     3.1427547931671143     
   3.2400000000000005E-002     2.9891896247863770     
   3.2700000000000000E-002     2.7328152656555176     
   3.3000000000000002E-002     2.3935313224792480     
   3.3300000000000003E-002     1.9949027299880981     
   3.3599999999999998E-002     1.5625525712966919     
   3.3900000000000000E-002     1.1221178770065308     
   3.4200000000000001E-002    0.69732910394668579     
   3.4500000000000003E-002    0.30880194902420044     
   3.4799999999999998E-002    -2.7474416419863701E-002
   3.5099999999999999E-002   -0.30043593049049377     
   3.5400000000000001E-002   -0.50447863340377808     
   3.5699999999999996E-002   -0.63930428028106689     
   3.6000000000000004E-002   -0.70932751893997192     
   3.6299999999999999E-002   -0.72320830821990967     
   3.6600000000000008E-002   -0.69289976358413696     
   3.6900000000000002E-002   -0.63280010223388672     
   3.7199999999999997E-002   -0.55893564224243164     
   3.7500000000000006E-002   -0.48791998624801636     
   3.7800000000000000E-002   -0.43632686138153076     
   3.8100000000000009E-002   -0.41972869634628296     
   3.8400000000000004E-002   -0.45187583565711975     
   3.8699999999999998E-002   -0.54401731491088867     
   3.9000000000000007E-002   -0.70390415191650391     
   3.9300000000000002E-002   -0.93499362468719482     
   3.9600000000000003E-002    -1.2356991767883301     
   3.9900000000000005E-002    -1.5985168218612671     
   4.0200000000000000E-002    -2.0097506046295166     
   4.0500000000000001E-002    -2.4492027759552002     
   4.0800000000000003E-002    -2.8906967639923096     
   4.1100000000000005E-002    -3.3030269145965576     
   4.1399999999999999E-002    -3.6513788700103760     
   4.1700000000000008E-002    -3.8996460437774658     
   4.2000000000000003E-002    -4.0129017829895020     
   4.2299999999999997E-002    -3.9603025913238525     
   4.2600000000000006E-002    -3.7182283401489258     
   4.2900000000000001E-002    -3.2728066444396973     
   4.3200000000000002E-002    -2.6223738193511963     
   4.3500000000000004E-002    -1.7788420915603638     
   4.3799999999999999E-002   -0.76805514097213745     
   4.4100000000000000E-002    0.37091416120529175     
   4.4400000000000002E-002     1.5875453948974609     
   4.4700000000000004E-002     2.8228695392608643     
   4.4999999999999998E-002     4.0131487846374512     
   4.5300000000000000E-002     5.0941305160522461     
   4.5600000000000002E-002     6.0055475234985352     
   4.5899999999999996E-002     6.6952142715454102     
   4.6200000000000005E-002     7.1224803924560547     
   4.6500000000000000E-002     7.2615423202514648     
   4.6799999999999994E-002     7.1022944450378418     
   4.7100000000000003E-002     6.6512427330017090     
   4.7399999999999998E-002     5.9304723739624023     
   4.7700000000000006E-002     4.9755482673645020     
   4.8000000000000001E-002     3.8333148956298828     
   4.8300000000000010E-002     2.5577833652496338     
   4.8600000000000004E-002     1.2068741321563721     
   4.8899999999999999E-002   -0.16120991110801697     
   4.9200000000000008E-002    -1.4917466640472412     
   4.9500000000000002E-002    -2.7353284358978271     
   4.9800000000000011E-002    -3.8508844375610352     
   5.0100000000000006E-002    -4.8057813644409180     
   5.0400000000000000E-002    -5.5767135620117188     
   5.0700000000000009E-002    -6.1496515274047852     
   5.1000000000000004E-002    -6.5176572799682617     
   5.1299999999999998E-002    -6.6810960769653320     
   5.1600000000000007E-002    -6.6451535224914551     
   5.1900000000000002E-002    -6.4188766479492188     
   5.2200000000000010E-002    -6.0149550437927246     
   5.2500000000000005E-002    -5.4477367401123047     
   5.2800000000000000E-002    -4.7345066070556641     
   5.3099999999999994E-002    -3.8950836658477783     
   5.3400000000000003E-002    -2.9519937038421631     
   5.3699999999999998E-002    -1.9321017265319824     
   5.4000000000000006E-002   -0.86573761701583862     
   5.4300000000000001E-002    0.21223172545433044     
   5.4599999999999996E-002     1.2631622552871704     
   5.4900000000000004E-002     2.2462456226348877     
   5.5199999999999999E-002     3.1192409992218018     
   5.5499999999999994E-002     3.8418452739715576     
   5.5800000000000002E-002     4.3778963088989258     
   5.6099999999999997E-002     4.6984128952026367     
   5.6400000000000006E-002     4.7848038673400879     
   5.6700000000000000E-002     4.6306071281433105     
   5.6999999999999995E-002     4.2439842224121094     
   5.7300000000000004E-002     3.6478619575500488     
   5.7599999999999998E-002     2.8793606758117676     
   5.7900000000000007E-002     1.9887043237686157     
   5.8200000000000002E-002     1.0355756282806396     
   5.8499999999999996E-002     8.5770383477210999E-002
   5.8800000000000005E-002   -0.79372352361679077     
   5.9100000000000000E-002    -1.5400049686431885     
   5.9400000000000008E-002    -2.0986640453338623     
   5.9700000000000003E-002    -2.4289665222167969     
   6.0000000000000012E-002    -2.5070748329162598     
   6.0300000000000006E-002    -2.3283126354217529     
   6.0600000000000001E-002    -1.9081729650497437     
   6.0900000000000010E-002    -1.2812123298645020     
   6.1200000000000004E-002   -0.49889224767684937     
   6.1500000000000013E-002    0.37451815605163574     
   6.1800000000000008E-002     1.2672319412231445     
   6.2100000000000002E-002     2.1055562496185303     
   6.2399999999999997E-002     2.8201518058776855     
   6.2700000000000006E-002     3.3517670631408691     
   6.3000000000000000E-002     3.6562459468841553     
   6.3300000000000009E-002     3.7083566188812256     
   6.3600000000000004E-002     3.5040690898895264     
   6.3899999999999998E-002     3.0608625411987305     
   6.4199999999999993E-002     2.4163348674774170     
   6.4500000000000002E-002     1.6248054504394531     
   6.4800000000000010E-002    0.75267165899276733     
   6.5100000000000005E-002   -0.12719272077083588     
   6.5400000000000000E-002   -0.94234067201614380     
   6.5700000000000008E-002    -1.6266168355941772     
   6.5999999999999989E-002    -2.1261658668518066     
   6.6299999999999998E-002    -2.4044508934020996     
   6.6600000000000006E-002    -2.4446074962615967     
   6.6900000000000001E-002    -2.2515413761138916     
   6.7199999999999996E-002    -1.8506290912628174     
   6.7500000000000004E-002    -1.2849690914154053     
   6.7800000000000013E-002   -0.61160087585449219     
   6.8099999999999994E-002    0.10510110855102539     
   6.8400000000000002E-002    0.79882156848907471     
   6.8700000000000011E-002     1.4081492424011230     
   6.8999999999999992E-002     1.8823810815811157     
   6.9300000000000000E-002     2.1851527690887451     
   6.9600000000000009E-002     2.2986969947814941     
   6.9900000000000004E-002     2.2236845493316650     
   7.0199999999999999E-002     1.9781695604324341     
   7.0500000000000007E-002     1.5956637859344482     
   7.0800000000000016E-002     1.1194546222686768     
   7.1099999999999997E-002    0.59864616394042969     
   7.1400000000000005E-002     8.1849396228790283E-002
   7.1700000000000000E-002   -0.38812130689620972     
   7.1999999999999995E-002   -0.77737551927566528     
   7.2300000000000003E-002    -1.0656076669692993     
   7.2600000000000012E-002    -1.2461234331130981     
   7.2900000000000006E-002    -1.3258831501007080     
   7.3200000000000001E-002    -1.3244228363037109     
   7.3499999999999996E-002    -1.2694673538208008     
   7.3800000000000004E-002    -1.1947039365768433     
   7.4099999999999999E-002    -1.1348466873168945     
   7.4400000000000008E-002    -1.1218074560165405     
   7.4700000000000003E-002    -1.1823620796203613     
   7.5000000000000011E-002    -1.3346650600433350     
   7.5299999999999992E-002    -1.5879729986190796     
   7.5600000000000001E-002    -1.9420964717864990     
   7.5900000000000009E-002    -2.3875749111175537     
   7.6200000000000004E-002    -2.9080436229705811     
   7.6499999999999999E-002    -3.4807531833648682     
   7.6800000000000007E-002    -4.0788745880126953     
   7.7099999999999988E-002    -4.6736640930175781     
   7.7399999999999997E-002    -5.2345695495605469     
   7.7700000000000005E-002    -5.7317180633544922     
   7.8000000000000014E-002    -6.1357254981994629     
   7.8299999999999995E-002    -6.4185533523559570     
   7.8600000000000003E-002    -6.5544991493225098     
   7.8900000000000012E-002    -6.5197095870971680     
   7.9199999999999993E-002    -6.2938346862792969     
   7.9500000000000001E-002    -5.8603467941284180     
   7.9800000000000010E-002    -5.2076468467712402     
   8.0100000000000018E-002    -4.3308930397033691     
   8.0399999999999999E-002    -3.2324154376983643     
   8.0700000000000008E-002    -1.9235832691192627     
   8.1000000000000003E-002   -0.42553493380546570     
   8.1299999999999997E-002     1.2307429313659668     
   8.1600000000000006E-002     3.0040385723114014     
   8.1900000000000014E-002     4.8442764282226562     
   8.2199999999999995E-002     6.6937985420227051     
   8.2500000000000004E-002     8.4889183044433594     
   8.2799999999999999E-002     10.163913726806641     
   8.3100000000000007E-002     11.652016639709473     
   8.3400000000000002E-002     12.890130043029785     
   8.3700000000000011E-002     13.821790695190430     
   8.4000000000000005E-002     14.398334503173828     
   8.4300000000000000E-002     14.584222793579102     
   8.4599999999999995E-002     14.356249809265137     
   8.4900000000000003E-002     13.706371307373047     
   8.5199999999999998E-002     12.643194198608398     
   8.5500000000000007E-002     11.189660072326660     
   8.5800000000000001E-002     9.3852910995483398     
   8.6100000000000010E-002     7.2831554412841797     
   8.6399999999999991E-002     4.9480609893798828     
   8.6699999999999999E-002     2.4561507701873779     
   8.7000000000000008E-002   -0.10997332632541656     
   8.7300000000000003E-002    -2.6630492210388184     
   8.7599999999999997E-002    -5.1138668060302734     
   8.7900000000000006E-002    -7.3759431838989258     
   8.8200000000000014E-002    -9.3674564361572266     
   8.8499999999999995E-002    -11.015334129333496     
   8.8800000000000004E-002    -12.258755683898926     
   8.9100000000000013E-002    -13.050285339355469     
   8.9399999999999993E-002    -13.360106468200684     
   8.9700000000000002E-002    -13.177449226379395     
   9.0000000000000011E-002    -12.510510444641113     
   9.0299999999999991E-002    -11.389827728271484     
   9.0600000000000000E-002    -9.8649625778198242     
   9.0900000000000009E-002    -8.0052251815795898     
   9.1200000000000017E-002    -5.8974823951721191     
   9.1499999999999998E-002    -3.6404922008514404     
   9.1800000000000007E-002    -1.3439483642578125     
   9.2100000000000001E-002    0.87964236736297607     
   9.2399999999999996E-002     2.9192461967468262     
   9.2700000000000005E-002     4.6710691452026367     
   9.3000000000000013E-002     6.0470123291015625     
   9.3300000000000008E-002     6.9772834777832031     
   9.3600000000000003E-002     7.4174313545227051     
   9.3899999999999997E-002     7.3512954711914062     
   9.4200000000000006E-002     6.7916603088378906     
   9.4500000000000001E-002     5.7822871208190918     
   9.4800000000000009E-002     4.3933172225952148     
   9.5100000000000004E-002     2.7190623283386230     
   9.5399999999999999E-002    0.87176179885864258     
   9.5699999999999993E-002    -1.0268424749374390     
   9.6000000000000002E-002    -2.8508679866790771     
   9.6300000000000011E-002    -4.4812421798706055     
   9.6600000000000005E-002    -5.8123092651367188     
   9.6900000000000000E-002    -6.7591013908386230     
   9.7200000000000009E-002    -7.2644476890563965     
   9.7499999999999989E-002    -7.3005852699279785     
   9.7799999999999998E-002    -6.8732976913452148     
   9.8100000000000007E-002    -6.0200705528259277     
   9.8400000000000015E-002    -4.8072419166564941     
   9.8699999999999996E-002    -3.3261311054229736     
   9.9000000000000005E-002    -1.6846849918365479     
   9.9300000000000013E-002    -8.8135153055191040E-004
   9.9599999999999994E-002     1.6071603298187256     
   9.9900000000000003E-002     3.0297458171844482     
  0.10020000000000001          4.1733512878417969     
  0.10049999999999999          4.9685096740722656     
  0.10080000000000000          5.3741779327392578     
  0.10110000000000001          5.3813848495483398     
  0.10140000000000000          5.0129418373107910     
  0.10170000000000000          4.3210439682006836     
  0.10200000000000001          3.3832645416259766     
  0.10230000000000002          2.2946469783782959     
  0.10260000000000000          1.1604238748550415     
  0.10290000000000001          8.5830360651016235E-002
  0.10320000000000000        -0.83256024122238159     
  0.10350000000000001         -1.5148569345474243     
  0.10380000000000000         -1.9062492847442627     
  0.10410000000000001         -1.9794706106185913     
  0.10440000000000001         -1.7378624677658081     
  0.10470000000000000         -1.2147450447082520     
  0.10500000000000000        -0.46841311454772949     
  0.10530000000000000         0.42199280858039856     
  0.10560000000000000          1.3671495914459229     
  0.10590000000000001          2.2746322154998779     
  0.10620000000000000          3.0582418441772461     
  0.10650000000000001          3.6483480930328369     
  0.10679999999999999          3.9951000213623047     
  0.10710000000000000          4.0761628150939941     
  0.10740000000000001          3.8959894180297852     
  0.10770000000000000          3.4843666553497314     
  0.10800000000000000          2.8940541744232178     
  0.10830000000000001          2.1912362575531006     
  0.10859999999999999          1.4506752490997314     
  0.10890000000000000         0.74519664049148560     
  0.10920000000000001         0.13791725039482117     
  0.10950000000000001        -0.32243227958679199     
  0.10979999999999999        -0.60887241363525391     
  0.11009999999999999        -0.71550804376602173     
  0.11040000000000001        -0.65741002559661865     
  0.11070000000000001        -0.46855941414833069     
  0.11100000000000000        -0.19453841447830200     
  0.11130000000000000         0.11183382570743561     
  0.11160000000000002         0.39906275272369385     
  0.11190000000000001         0.62200015783309937     
  0.11220000000000001         0.74614626169204712     
  0.11250000000000000         0.75313562154769897     
  0.11280000000000000         0.63861745595932007     
  0.11309999999999999         0.41323122382164001     
  0.11340000000000001          9.9677734076976776E-002
  0.11369999999999998        -0.27254620194435120     
  0.11400000000000000        -0.67001044750213623     
  0.11430000000000000         -1.0612890720367432     
  0.11460000000000002         -1.4196125268936157     
  0.11489999999999999         -1.7257435321807861     
  0.11520000000000001         -1.9703326225280762     
  0.11550000000000001         -2.1520111560821533     
  0.11580000000000000         -2.2775015830993652     
  0.11609999999999999         -2.3587765693664551     
  0.11640000000000002         -2.4105451107025146     
  0.11670000000000001         -2.4478354454040527     
  0.11700000000000001         -2.4828894138336182     
  0.11730000000000000         -2.5248899459838867     
  0.11760000000000000         -2.5777647495269775     
  0.11789999999999999         -2.6412975788116455     
  0.11820000000000001         -2.7113375663757324     
  0.11850000000000001         -2.7803547382354736     
  0.11880000000000000         -2.8402092456817627     
  0.11910000000000000         -2.8818609714508057     
  0.11940000000000002         -2.8976376056671143     
  0.11970000000000001         -2.8812994956970215     
  0.12000000000000001         -2.8277471065521240     
  0.12030000000000000         -2.7344987392425537     
  0.12060000000000000         -2.6001279354095459     
  0.12089999999999999         -2.4242069721221924     
  0.12119999999999999         -2.2083179950714111     
  0.12150000000000001         -1.9540569782257080     
  0.12180000000000001         -1.6646245718002319     
  0.12210000000000000         -1.3450876474380493     
  0.12239999999999999         -1.0010746717453003     
  0.12270000000000002        -0.64058679342269897     
  0.12300000000000001        -0.27139419317245483     
  0.12330000000000001          9.8299026489257812E-002
  0.12360000000000000         0.46089664101600647     
  0.12390000000000000         0.81254613399505615     
  0.12419999999999999          1.1511636972427368     
  0.12450000000000001          1.4787977933883667     
  0.12480000000000001          1.8020390272140503     
  0.12509999999999999          2.1284184455871582     
  0.12540000000000001          2.4677946567535400     
  0.12570000000000003          2.8282186985015869     
  0.12600000000000000          3.2139256000518799     
  0.12630000000000002          3.6246664524078369     
  0.12659999999999999          4.0519113540649414     
  0.12690000000000001          4.4821147918701172     
  0.12719999999999998          4.8962163925170898     
  0.12750000000000000          5.2714953422546387     
  0.12780000000000002          5.5881943702697754     
  0.12809999999999999          5.8287558555603027     
  0.12840000000000001          5.9847965240478516     
  0.12869999999999998          6.0580682754516602     
  0.12900000000000000          6.0581684112548828     
  0.12930000000000003          6.0052094459533691     
  0.12959999999999999          5.9217944145202637     
  0.12990000000000002          5.8306741714477539     
  0.13019999999999998          5.7487897872924805     
  0.13050000000000000          5.6794447898864746     
  0.13080000000000003          5.6126985549926758     
  0.13109999999999999          5.5204820632934570     
  0.13140000000000002          5.3590455055236816     
  0.13169999999999998          5.0757813453674316     
  0.13200000000000001          4.6124072074890137     
  0.13229999999999997          3.9171409606933594     
  0.13260000000000000          2.9530112743377686     
  0.13290000000000002          1.7045348882675171     
  0.13319999999999999         0.18706294894218445     
  0.13350000000000001         -1.5561597347259521     
  0.13380000000000003         -3.4524645805358887     
  0.13410000000000000         -5.4074206352233887     
  0.13440000000000002         -7.3185663223266602     
  0.13469999999999999         -9.0833768844604492     
  0.13500000000000001         -10.617921829223633     
  0.13529999999999998         -11.867223739624023     
  0.13560000000000000         -12.813580513000488     
  0.13590000000000002         -13.483467102050781     
  0.13619999999999999         -13.941385269165039     
  0.13650000000000001         -14.283720016479492     
  0.13680000000000003         -14.622362136840820     
  0.13710000000000000         -15.063720703125000     
  0.13740000000000002         -15.689925193786621     
  0.13769999999999999         -16.534164428710938     
  0.13800000000000001         -17.566213607788086     
  0.13829999999999998         -18.681612014770508     
  0.13860000000000000         -19.699920654296875     
  0.13890000000000002         -20.377216339111328     
  0.13919999999999999         -20.423347473144531     
  0.13950000000000001         -19.534519195556641     
  0.13979999999999998         -17.428833007812500     
  0.14010000000000000         -13.883142471313477     
  0.14040000000000002         -8.7741231918334961     
  0.14069999999999999         -2.1052536964416504     
  0.14100000000000001          5.9718585014343262     
  0.14130000000000004          15.151044845581055     
  0.14160000000000000          24.983268737792969     
  0.14189999999999997          34.900226593017578     
  0.14219999999999999          44.256099700927734     
  0.14250000000000002          52.377288818359375     
  0.14279999999999998          58.618263244628906     
  0.14310000000000000          62.419906616210938     
  0.14339999999999997          63.359386444091797     
  0.14369999999999999          61.191963195800781     
  0.14400000000000002          55.878547668457031     
  0.14429999999999998          47.592678070068359     
  0.14460000000000001          36.714145660400391     
  0.14490000000000003          23.802312850952148     
  0.14520000000000000          9.5550279617309570     
  0.14550000000000002         -5.2413382530212402     
  0.14579999999999999         -19.768548965454102     
  0.14610000000000001         -33.235279083251953     
  0.14640000000000003         -44.929508209228516     
  0.14670000000000000         -54.263633728027344     
  0.14699999999999996         -60.811176300048828     
  0.14729999999999999         -64.323638916015625     
  0.14760000000000001         -64.740921020507812     
  0.14789999999999998         -62.183654785156250     
  0.14820000000000000         -56.934207916259766     