  -1.4999999999999999E-002     0.0000000000000000     
  -1.4700000000000000E-002     0.0000000000000000     
  -1.4400000000000000E-002     0.0000000000000000     
  -1.4100000000000000E-002     0.0000000000000000     
  -1.3800000000000000E-002     0.0000000000000000     
  -1.3500000000000000E-002     0.0000000000000000     
  -1.3200000000000000E-002     0.0000000000000000     
  -1.2899999999999998E-002     0.0000000000000000     
  -1.2600000000000000E-002     0.0000000000000000     
  -1.2299999999999998E-002     0.0000000000000000     
  -1.2000000000000000E-002     0.0000000000000000     
  -1.1699999999999999E-002     0.0000000000000000     
  -1.1399999999999999E-002     0.0000000000000000     
  -1.1099999999999999E-002     0.0000000000000000     
  -1.0799999999999999E-002     0.0000000000000000     
  -1.0499999999999999E-002     0.0000000000000000     
  -1.0199999999999999E-002     0.0000000000000000     
  -9.8999999999999991E-003     0.0000000000000000     
  -9.5999999999999992E-003     0.0000000000000000     
  -9.2999999999999992E-003     0.0000000000000000     
  -8.9999999999999993E-003     0.0000000000000000     
  -8.6999999999999994E-003     0.0000000000000000     
  -8.3999999999999995E-003     0.0000000000000000     
  -8.0999999999999996E-003     0.0000000000000000     
  -7.7999999999999988E-003     0.0000000000000000     
  -7.4999999999999997E-003     0.0000000000000000     
  -7.1999999999999998E-003     0.0000000000000000     
  -6.8999999999999981E-003     0.0000000000000000     
  -6.5999999999999982E-003     0.0000000000000000     
  -6.3000000000000000E-003     0.0000000000000000     
  -6.0000000000000001E-003     0.0000000000000000     
  -5.6999999999999985E-003     0.0000000000000000     
  -5.3999999999999986E-003     0.0000000000000000     
  -5.1000000000000004E-003     0.0000000000000000     
  -4.7999999999999987E-003     0.0000000000000000     
  -4.5000000000000005E-003     0.0000000000000000     
  -4.1999999999999989E-003     0.0000000000000000     
  -3.8999999999999990E-003     0.0000000000000000     
  -3.5999999999999990E-003     0.0000000000000000     
  -3.2999999999999991E-003     0.0000000000000000     
  -2.9999999999999992E-003     0.0000000000000000     
  -2.6999999999999993E-003     0.0000000000000000     
  -2.3999999999999994E-003     0.0000000000000000     
  -2.0999999999999977E-003     0.0000000000000000     
  -1.7999999999999995E-003     0.0000000000000000     
  -1.4999999999999979E-003     0.0000000000000000     
  -1.1999999999999997E-003     0.0000000000000000     
  -8.9999999999999976E-004     3.8105605549719096E-037
  -5.9999999999999810E-004     2.5816846696133485E-036
  -2.9999999999999992E-004     1.4715899270559945E-035
   0.0000000000000000         -3.4507801831245754E-035
   3.0000000000000165E-004    -9.1437303186368672E-035
   5.9999999999999984E-004     5.3107497415738149E-035
   9.0000000000000149E-004     7.9965923583463932E-034
   1.2000000000000031E-003     2.7207253886743556E-033
   1.5000000000000013E-003    -4.8225985520468713E-033
   1.8000000000000030E-003    -3.9689820316601766E-032
   2.1000000000000012E-003     2.7401804813960368E-032
   2.3999999999999994E-003     2.8902730661577578E-031
   2.7000000000000010E-003    -1.6484286419999168E-031
   2.9999999999999992E-003    -1.1560090743444131E-030
   3.3000000000000008E-003    -1.5385457810737510E-030
   3.6000000000000025E-003     4.2830432537182392E-030
   3.9000000000000007E-003     4.1093127870621888E-029
   4.2000000000000023E-003    -8.6002046573278521E-029
   4.5000000000000005E-003    -2.9873291960384854E-028
   4.7999999999999987E-003     1.1332184311319134E-027
   5.1000000000000004E-003     1.8091742933686485E-028
   5.4000000000000020E-003    -6.4390355387797101E-027
   5.7000000000000037E-003     9.0105788006123462E-027
   5.9999999999999984E-003     9.7183472699669668E-027
   6.3000000000000000E-003    -3.4670362828753604E-026
   6.6000000000000017E-003     8.5064150227464776E-027
   6.9000000000000034E-003     1.4673268897321650E-026
   7.2000000000000015E-003     4.6733618861012659E-025
   7.5000000000000032E-003    -2.6856065459891437E-024
   7.8000000000000014E-003     6.2392188340983129E-024
   8.0999999999999996E-003     6.5794352154279574E-024
   8.4000000000000012E-003    -1.1077531929911745E-022
   8.7000000000000029E-003     4.4096572344095341E-022
   9.0000000000000011E-003    -8.5841304205124417E-022
   9.2999999999999992E-003    -2.5932187934184319E-022
   9.6000000000000009E-003     7.9157977680863972E-021
   9.8999999999999991E-003    -2.9086142185679309E-020
   1.0200000000000001E-002     5.5979835695438282E-020
   1.0500000000000002E-002    -1.5883589976902861E-020
   1.0800000000000004E-002    -3.1419886881155626E-019
   1.1099999999999999E-002     1.3665953263589374E-018
   1.1400000000000000E-002    -3.6776143977280966E-018
   1.1700000000000002E-002     7.6666159739681051E-018
   1.2000000000000004E-002    -1.4865795492504944E-017
   1.2300000000000002E-002     3.8843203807963203E-017
   1.2600000000000000E-002    -1.6025306173190747E-016
   1.2900000000000002E-002     7.6052780169182359E-016
   1.3200000000000000E-002    -3.4353377822006308E-015
   1.3500000000000002E-002     1.4294390798526117E-014
   1.3800000000000003E-002    -5.4445353390650264E-014
   1.4100000000000001E-002     1.8558539308186767E-013
   1.4400000000000000E-002    -5.3324586499897686E-013
   1.4700000000000001E-002     1.0875723065184584E-012
   1.4999999999999999E-002    -2.3311973011697074E-013
   1.5300000000000001E-002    -1.0857180605949868E-011
   1.5600000000000003E-002     5.9648792849475996E-011
   1.5899999999999997E-002    -1.8553954206357304E-010
   1.6199999999999999E-002     3.0332902856144983E-010
   1.6500000000000001E-002     2.2132994048629229E-010
   1.6800000000000002E-002    -2.7539910352203378E-009
   1.7100000000000004E-002     6.5969469886795196E-009
   1.7400000000000006E-002    -1.1737238958531293E-009
   1.7700000000000000E-002    -3.0178679111259044E-008
   1.8000000000000002E-002     5.5131692988652503E-008
   1.8300000000000004E-002     5.2631612845743803E-008
   1.8600000000000005E-002    -2.5563377903381479E-007
   1.8900000000000000E-002    -6.0188234840552468E-008
   1.9200000000000002E-002     8.1361440606997348E-007
   1.9500000000000003E-002     3.2425691642856691E-007
   1.9799999999999998E-002    -2.3090849481377518E-006
   2.0100000000000000E-002    -2.5727927095431369E-006
   2.0400000000000001E-002     6.9539091782644391E-006
   2.0700000000000003E-002     2.9452017770381644E-005
   2.0999999999999998E-002     6.2027836975175887E-005
   2.1299999999999999E-002     1.0279442358296365E-004
   2.1600000000000001E-002     1.5733037434983999E-004
   2.1900000000000003E-002     2.3999180120881647E-004
   2.2200000000000004E-002     3.7241593236103654E-004
   2.2500000000000006E-002     5.8036175323650241E-004
   2.2800000000000001E-002     8.9548307005316019E-004
   2.3100000000000002E-002     1.3620984973385930E-003
   2.3400000000000004E-002     2.0413494203239679E-003
   2.3699999999999999E-002     3.0169996898621321E-003
   2.4000000000000000E-002     4.4032530859112740E-003
   2.4300000000000002E-002     6.3458937220275402E-003
   2.4599999999999997E-002     9.0202363207936287E-003
   2.4900000000000005E-002     1.2633673846721649E-002
   2.5200000000000000E-002     1.7432771623134613E-002
   2.5499999999999995E-002     2.3701477795839310E-002
   2.5800000000000003E-002     3.1741108745336533E-002
   2.6099999999999998E-002     4.1846059262752533E-002
   2.6400000000000007E-002     5.4276231676340103E-002
   2.6700000000000002E-002     6.9216042757034302E-002
   2.6999999999999996E-002     8.6723499000072479E-002
   2.7300000000000005E-002    0.10666700452566147     
   2.7600000000000000E-002    0.12865246832370758     
   2.7900000000000008E-002    0.15194869041442871     
   2.8200000000000003E-002    0.17540824413299561     
   2.8499999999999998E-002    0.19741912186145782     
   2.8800000000000006E-002    0.21588397026062012     
   2.9100000000000001E-002    0.22823390364646912     
   2.9400000000000003E-002    0.23150777816772461     
   2.9700000000000004E-002    0.22245623171329498     
   3.0000000000000006E-002    0.19775642454624176     
   3.0300000000000001E-002    0.15429395437240601     
   3.0600000000000002E-002     8.9500777423381805E-002
   3.0900000000000004E-002     1.7084684222936630E-003
   3.1199999999999999E-002   -0.10944616794586182     
   3.1500000000000007E-002   -0.24269795417785645     
   3.1800000000000002E-002   -0.39484637975692749     
   3.2099999999999997E-002   -0.56058752536773682     
   3.2400000000000005E-002   -0.73253828287124634     
   3.2700000000000000E-002   -0.90139973163604736     
   3.3000000000000002E-002    -1.0563832521438599     
   3.3300000000000003E-002    -1.1858453750610352     
   3.3599999999999998E-002    -1.2780547142028809     
   3.3900000000000000E-002    -1.3221418857574463     
   3.4200000000000001E-002    -1.3090276718139648     
   3.4500000000000003E-002    -1.2324167490005493     
   3.4799999999999998E-002    -1.0895864963531494     
   3.5099999999999999E-002   -0.88195884227752686     
   3.5400000000000001E-002   -0.61539220809936523     
   3.5699999999999996E-002   -0.30004355311393738     
   3.6000000000000004E-002     5.0022654235363007E-002
   3.6299999999999999E-002    0.41773328185081482     
   3.6600000000000008E-002    0.78407597541809082     
   3.6900000000000002E-002     1.1294407844543457     
   3.7199999999999997E-002     1.4351128339767456     
   3.7500000000000006E-002     1.6844859123229980     
   3.7800000000000000E-002     1.8645381927490234     
   3.8100000000000009E-002     1.9665338993072510     
   3.8400000000000004E-002     1.9867547750473022     
   3.8699999999999998E-002     1.9266951084136963     
   3.9000000000000007E-002     1.7925275564193726     
   3.9300000000000002E-002     1.5950096845626831     
   3.9600000000000003E-002     1.3478639125823975     
   3.9900000000000005E-002     1.0671730041503906     
   4.0200000000000000E-002    0.76982367038726807     
   4.0500000000000001E-002    0.47216510772705078     
   4.0800000000000003E-002    0.18933522701263428     
   4.1100000000000005E-002    -6.6454030573368073E-002
   4.1399999999999999E-002   -0.28571051359176636     
   4.1700000000000008E-002   -0.46253457665443420     
   4.2000000000000003E-002   -0.59451454877853394     
   4.2299999999999997E-002   -0.68216574192047119     
   4.2600000000000006E-002   -0.72902595996856689     
   4.2900000000000001E-002   -0.74027657508850098     
   4.3200000000000002E-002   -0.72273826599121094     
   4.3500000000000004E-002   -0.68354988098144531     
   4.3799999999999999E-002   -0.62984758615493774     
   4.4100000000000000E-002   -0.56822425127029419     
   4.4400000000000002E-002   -0.50394010543823242     
   4.4700000000000004E-002   -0.44144052267074585     
   4.4999999999999998E-002   -0.38346895575523376     
   4.5300000000000000E-002   -0.33189749717712402     
   4.5600000000000002E-002   -0.28752577304840088     
   4.5899999999999996E-002   -0.25034785270690918     
   4.6200000000000005E-002   -0.22033880650997162     
   4.6500000000000000E-002   -0.19694578647613525     
   4.6799999999999994E-002   -0.18026448786258698     
   4.7100000000000003E-002   -0.17044527828693390     
   4.7399999999999998E-002   -0.16818864643573761     
   4.7700000000000006E-002   -0.17477209866046906     
   4.8000000000000001E-002   -0.19143596291542053     
   4.8300000000000010E-002   -0.21989162266254425     
   4.8600000000000004E-002   -0.26123422384262085     
   4.8899999999999999E-002   -0.31621608138084412     
   4.9200000000000008E-002   -0.38458219170570374     
   4.9500000000000002E-002   -0.46472281217575073     
   4.9800000000000011E-002   -0.55374830961227417     
   5.0100000000000006E-002   -0.64687430858612061     
   5.0400000000000000E-002   -0.73798179626464844     
   5.0700000000000009E-002   -0.81934642791748047     
   5.1000000000000004E-002   -0.88239121437072754     
   5.1299999999999998E-002   -0.91805702447891235     
   5.1600000000000007E-002   -0.91757565736770630     
   5.1900000000000002E-002   -0.87338829040527344     
   5.2200000000000010E-002   -0.77968168258666992     
   5.2500000000000005E-002   -0.63355934619903564     
   5.2800000000000000E-002   -0.43535673618316650     
   5.3099999999999994E-002   -0.18923908472061157     
   5.3400000000000003E-002     9.6803367137908936E-002
   5.3699999999999998E-002    0.41126278042793274     
   5.4000000000000006E-002    0.73941969871520996     
   5.4300000000000001E-002     1.0647060871124268     
   5.4599999999999996E-002     1.3692986965179443     
   5.4900000000000004E-002     1.6358877420425415     
   5.5199999999999999E-002     1.8488547801971436     
   5.5499999999999994E-002     1.9953793287277222     
   5.5800000000000002E-002     2.0669045448303223     
   5.6099999999999997E-002     2.0593450069427490     
   5.6400000000000006E-002     1.9738327264785767     
   5.6700000000000000E-002     1.8163877725601196     
   5.6999999999999995E-002     1.5974977016448975     
   5.7300000000000004E-002     1.3314014673233032     
   5.7599999999999998E-002     1.0344972610473633     
   5.7900000000000007E-002    0.72448360919952393     
   5.8200000000000002E-002    0.41861116886138916     
   5.8499999999999996E-002    0.13254854083061218     
   5.8800000000000005E-002   -0.12065111100673676     
   5.9100000000000000E-002   -0.33164927363395691     
   5.9400000000000008E-002   -0.49502789974212646     
   5.9700000000000003E-002   -0.60972833633422852     
   6.0000000000000012E-002   -0.67877614498138428     
   6.0300000000000006E-002   -0.70870441198348999     
   6.0600000000000001E-002   -0.70914506912231445     
   6.0900000000000010E-002   -0.69152969121932983     
   6.1200000000000004E-002   -0.66864401102066040     
   6.1500000000000013E-002   -0.65332627296447754     
   6.1800000000000008E-002   -0.65769577026367188     
   6.2100000000000002E-002   -0.69238978624343872     
   6.2399999999999997E-002   -0.76550441980361938     
   6.2700000000000006E-002   -0.88237690925598145     
   6.3000000000000000E-002    -1.0445938110351562     
   6.3300000000000009E-002    -1.2498261928558350     
   6.3600000000000004E-002    -1.4917234182357788     
   6.3899999999999998E-002    -1.7594369649887085     
   6.4199999999999993E-002    -2.0382192134857178     
   6.4500000000000002E-002    -2.3095443248748779     
   6.4800000000000010E-002    -2.5517990589141846     
   6.5100000000000005E-002    -2.7417867183685303     
   6.5400000000000000E-002    -2.8556890487670898     
   6.5700000000000008E-002    -2.8709204196929932     
   6.5999999999999989E-002    -2.7679507732391357     
   6.6299999999999998E-002    -2.5318474769592285     
   6.6600000000000006E-002    -2.1546041965484619     
   6.6900000000000001E-002    -1.6360023021697998     
   6.7199999999999996E-002   -0.98502475023269653     
   6.7500000000000004E-002   -0.22019995748996735     
   6.7800000000000013E-002    0.63096094131469727     
   6.8099999999999994E-002     1.5326561927795410     
   6.8400000000000002E-002     2.4429254531860352     
   6.8700000000000011E-002     3.3157920837402344     
   6.8999999999999992E-002     4.1044998168945312     
   6.9300000000000000E-002     4.7642588615417480     
   6.9600000000000009E-002     5.2558217048645020     
   6.9900000000000004E-002     5.5481705665588379     
   7.0199999999999999E-002     5.6209926605224609     
   7.0500000000000007E-002     5.4662675857543945     
   7.0800000000000016E-002     5.0892019271850586     
   7.1099999999999997E-002     4.5078778266906738     
   7.1400000000000005E-002     3.7520430088043213     
   7.1700000000000000E-002     2.8608982563018799     
   7.1999999999999995E-002     1.8804675340652466     
   7.2300000000000003E-002    0.86005151271820068     
   7.2600000000000012E-002   -0.15118139982223511     
   7.2900000000000006E-002    -1.1075592041015625     
   7.3200000000000001E-002    -1.9703083038330078     
   7.3499999999999996E-002    -2.7090365886688232     
   7.3800000000000004E-002    -3.3042485713958740     
   7.4099999999999999E-002    -3.7470128536224365     
   7.4400000000000008E-002    -4.0383491516113281     
   7.4700000000000003E-002    -4.1883978843688965     
   7.5000000000000011E-002    -4.2132601737976074     
   7.5299999999999992E-002    -4.1333432197570801     
   7.5600000000000001E-002    -3.9697027206420898     
   7.5900000000000009E-002    -3.7416017055511475     
   7.6200000000000004E-002    -3.4651918411254883     
   7.6499999999999999E-002    -3.1508424282073975     
   7.6800000000000007E-002    -2.8038592338562012     
   7.7099999999999988E-002    -2.4243302345275879     
   7.7399999999999997E-002    -2.0081214904785156     
   7.7700000000000005E-002    -1.5495145320892334     
   7.8000000000000014E-002    -1.0428265333175659     
   7.8299999999999995E-002   -0.48502087593078613     
   7.8600000000000003E-002    0.12206768989562988     
   7.8900000000000012E-002    0.77082246541976929     
   7.9199999999999993E-002     1.4464137554168701     
   7.9500000000000001E-002     2.1272983551025391     
   7.9800000000000010E-002     2.7861239910125732     
   8.0100000000000018E-002     3.3912062644958496     
   8.0399999999999999E-002     3.9089760780334473     
   8.0700000000000008E-002     4.3071737289428711     
   8.1000000000000003E-002     4.5568528175354004     
   8.1299999999999997E-002     4.6358304023742676     
   8.1600000000000006E-002     4.5302429199218750     
   8.1900000000000014E-002     4.2363801002502441     
   8.2199999999999995E-002     3.7622342109680176     
   8.2500000000000004E-002     3.1260795593261719     
   8.2799999999999999E-002     2.3575806617736816     
   8.3100000000000007E-002     1.4946861267089844     
   8.3400000000000002E-002    0.58210039138793945     
   8.3700000000000011E-002   -0.33055263757705688     
   8.4000000000000005E-002    -1.1938347816467285     
   8.4300000000000000E-002    -1.9592670202255249     
   8.4599999999999995E-002    -2.5845935344696045     
   8.4900000000000003E-002    -3.0354716777801514     
   8.5199999999999998E-002    -3.2872982025146484     
   8.5500000000000007E-002    -3.3292412757873535     
   8.5800000000000001E-002    -3.1623654365539551     
   8.6100000000000010E-002    -2.8018002510070801     
   8.6399999999999991E-002    -2.2752251625061035     
   8.6699999999999999E-002    -1.6204040050506592     
   8.7000000000000008E-002   -0.88464480638504028     
   8.7300000000000003E-002   -0.11950856447219849     
   8.7599999999999997E-002    0.62085115909576416     
   8.7900000000000006E-002     1.2838997840881348     
   8.8200000000000014E-002     1.8224545717239380     
   8.8499999999999995E-002     2.1967780590057373     
   8.8800000000000004E-002     2.3781545162200928     
   8.9100000000000013E-002     2.3501055240631104     
   8.9399999999999993E-002     2.1098723411560059     
   8.9700000000000002E-002     1.6684354543685913     
   9.0000000000000011E-002     1.0503970384597778     
   9.0299999999999991E-002    0.29224213957786560     
   9.0600000000000000E-002   -0.55927115678787231     
   9.0900000000000009E-002    -1.4497761726379395     
   9.1200000000000017E-002    -2.3206090927124023     
   9.1499999999999998E-002    -3.1117513179779053     
   9.1800000000000007E-002    -3.7669169902801514     
   9.2100000000000001E-002    -4.2358884811401367     
   9.2399999999999996E-002    -4.4793496131896973     
   9.2700000000000005E-002    -4.4716410636901855     
   9.3000000000000013E-002    -4.2029318809509277     
   9.3300000000000008E-002    -3.6819000244140625     
   9.3600000000000003E-002    -2.9344348907470703     
   9.3899999999999997E-002    -2.0040855407714844     
   9.4200000000000006E-002   -0.94858133792877197     
   9.4500000000000001E-002    0.16351687908172607     
   9.4800000000000009E-002     1.2573506832122803     
   9.5100000000000004E-002     2.2584497928619385     
   9.5399999999999999E-002     3.0971589088439941     
   9.5699999999999993E-002     3.7158110141754150     
   9.6000000000000002E-002     4.0723948478698730     
   9.6300000000000011E-002     4.1448841094970703     
   9.6600000000000005E-002     3.9333531856536865     
   9.6900000000000000E-002     3.4593746662139893     
   9.7200000000000009E-002     2.7654912471771240     
   9.7499999999999989E-002     1.9101667404174805     
   9.7799999999999998E-002    0.96408361196517944     
   9.8100000000000007E-002     2.8710514307022095E-003
   9.8400000000000015E-002   -0.89880669116973877     
   9.8699999999999996E-002    -1.6734095811843872     
   9.9000000000000005E-002    -2.2669866085052490     
   9.9300000000000013E-002    -2.6420533657073975     
   9.9599999999999994E-002    -2.7820038795471191     
   9.9900000000000003E-002    -2.6898124217987061     
  0.10020000000000001         -2.3882617950439453     
  0.10049999999999999         -1.9166609048843384     
  0.10080000000000000         -1.3255755901336670     
  0.10110000000000001        -0.67339235544204712     
  0.10140000000000000         -1.8560659140348434E-002
  0.10170000000000000         0.58401083946228027     
  0.10200000000000001          1.0886955261230469     
  0.10230000000000002          1.4622987508773804     
  0.10260000000000000          1.6857255697250366     
  0.10290000000000001          1.7562013864517212     
  0.10320000000000000          1.6839319467544556     
  0.10350000000000001          1.4921257495880127     
  0.10380000000000000          1.2123302221298218     
  0.10410000000000001         0.88073778152465820     
  0.10440000000000001         0.53546929359436035     
  0.10470000000000000         0.21052369475364685     
  0.10500000000000000         -6.4817346632480621E-002
  0.10530000000000000        -0.27024039626121521     
  0.10560000000000000        -0.39475458860397339     
  0.10590000000000001        -0.43635830283164978     
  0.10620000000000000        -0.40244686603546143     
  0.10650000000000001        -0.30620932579040527     
  0.10679999999999999        -0.16598571836948395     
  0.10710000000000000         -1.2384569272398949E-003
  0.10740000000000001         0.16920897364616394     
  0.10770000000000000         0.32986444234848022     
  0.10800000000000000         0.47047185897827148     
  0.10830000000000001         0.58624857664108276     
  0.10859999999999999         0.67956906557083130     
  0.10890000000000000         0.75698620080947876     
  0.10920000000000001         0.82998448610305786     
  0.10950000000000001         0.91150301694869995     
  0.10979999999999999          1.0139377117156982     
  0.11009999999999999          1.1477637290954590     
  0.11040000000000001          1.3174428939819336     
  0.11070000000000001          1.5223013162612915     
  0.11100000000000000          1.7539654970169067     
  0.11130000000000000          1.9974807500839233     
  0.11160000000000002          2.2325274944305420     
  0.11190000000000001          2.4343862533569336     
  0.11220000000000001          2.5783011913299561     
  0.11250000000000000          2.6402702331542969     
  0.11280000000000000          2.6019878387451172     
  0.11309999999999999          2.4519479274749756     
  0.11340000000000001          2.1874921321868896     
  0.11369999999999998          1.8164860010147095     
  0.11400000000000000          1.3550137281417847     
  0.11430000000000000         0.82811391353607178     
  0.11460000000000002         0.26569965481758118     
  0.11489999999999999        -0.29959902167320251     
  0.11520000000000001        -0.83699345588684082     
  0.11550000000000001         -1.3197222948074341     
  0.11580000000000000         -1.7277126312255859     
  0.11609999999999999         -2.0507023334503174     
  0.11640000000000002         -2.2871868610382080     
  0.11670000000000001         -2.4459993839263916     
  0.11700000000000001         -2.5427777767181396     
  0.11730000000000000         -2.5993654727935791     
  0.11760000000000000         -2.6399466991424561     
  0.11789999999999999         -2.6876535415649414     
  0.11820000000000001         -2.7637977600097656     
  0.11850000000000001         -2.8832352161407471     
  0.11880000000000000         -3.0546576976776123     
  0.11910000000000000         -3.2792878150939941     
  0.11940000000000002         -3.5509879589080811     
  0.11970000000000001         -3.8581216335296631     
  0.12000000000000001         -4.1834449768066406     
  0.12030000000000000         -4.5070896148681641     
  0.12060000000000000         -4.8071160316467285     
  0.12089999999999999         -5.0616464614868164     
  0.12119999999999999         -5.2497873306274414     
  0.12150000000000001         -5.3521022796630859     
  0.12180000000000001         -5.3517656326293945     
  0.12210000000000000         -5.2343401908874512     
  0.12239999999999999         -4.9889082908630371     
  0.12270000000000002         -4.6071949005126953     
  0.12300000000000001         -4.0850014686584473     
  0.12330000000000001         -3.4224693775177002     
  0.12360000000000000         -2.6225719451904297     
  0.12390000000000000         -1.6948271989822388     
  0.12419999999999999        -0.65191078186035156     
  0.12450000000000001         0.48749867081642151     
  0.12480000000000001          1.7011839151382446     
  0.12509999999999999          2.9638195037841797     
  0.12540000000000001          4.2450518608093262     
  0.12570000000000003          5.5152492523193359     
  0.12600000000000000          6.7420797348022461     
  0.12630000000000002          7.8941283226013184     
  0.12659999999999999          8.9413022994995117     
  0.12690000000000001          9.8543395996093750     
  0.12719999999999998          10.606832504272461     
  0.12750000000000000          11.173798561096191     
  0.12780000000000002          11.533358573913574     
  0.12809999999999999          11.665116310119629     
  0.12840000000000001          11.551889419555664     
  0.12869999999999998          11.179938316345215     
  0.12900000000000000          10.539216041564941     
  0.12930000000000003          9.6254224777221680     
  0.12959999999999999          8.4401750564575195     
  0.12990000000000002          6.9949398040771484     
  0.13019999999999998          5.3092532157897949     
  0.13050000000000000          3.4144375324249268     
  0.13080000000000003          1.3535730838775635     
  0.13109999999999999        -0.82165831327438354     
  0.13140000000000002         -3.0462117195129395     
  0.13169999999999998         -5.2497758865356445     
  0.13200000000000001         -7.3560638427734375     
  0.13229999999999997         -9.2876310348510742     
  0.13260000000000000         -10.970273017883301     
  0.13290000000000002         -12.334660530090332     
  0.13319999999999999         -13.324635505676270     
  0.13350000000000001         -13.895235061645508     
  0.13380000000000003         -14.019569396972656     
  0.13410000000000000         -13.688885688781738     
  0.13440000000000002         -12.912045478820801     
  0.13469999999999999         -11.717712402343750     
  0.13500000000000001         -10.149345397949219     
  0.13529999999999998         -8.2679882049560547     
  0.13560000000000000         -6.1451892852783203     
  0.13590000000000002         -3.8626554012298584     
  0.13619999999999999         -1.5075843334197998     
  0.13650000000000001         0.83122289180755615     
  0.13680000000000003          3.0638380050659180     
  0.13710000000000000          5.1072955131530762     
  0.13740000000000002          6.8836970329284668     
  0.13769999999999999          8.3286914825439453     
  0.13800000000000001          9.3895807266235352     
  0.13829999999999998          10.028665542602539     
  0.13860000000000000          10.229611396789551     
  0.13890000000000002          9.9899463653564453     
  0.13919999999999999          9.3316345214843750     
  0.13950000000000001          8.2929544448852539     
  0.13979999999999998          6.9294977188110352     
  0.14010000000000000          5.3152070045471191     
  0.14040000000000002          3.5327320098876953     
  0.14069999999999999          1.6768693923950195     
  0.14100000000000001        -0.15761339664459229     
  0.14130000000000004         -1.8762634992599487     
  0.14160000000000000         -3.3898162841796875     
  0.14189999999999997         -4.6226844787597656     
  0.14219999999999999         -5.5131216049194336     
  0.14250000000000002         -6.0204215049743652     
  0.14279999999999998         -6.1243309974670410     
  0.14310000000000000         -5.8288941383361816     
  0.14339999999999997         -5.1603164672851562     
  0.14369999999999999         -4.1664094924926758     
  0.14400000000000002         -2.9143993854522705     
  0.14429999999999998         -1.4865090847015381     
  0.14460000000000001          2.4430595338344574E-002
  0.14490000000000003          1.5219753980636597     
  0.14520000000000000          2.9076726436614990     
  0.14550000000000002          4.0925083160400391     
  0.14579999999999999          4.9989552497863770     
  0.14610000000000001          5.5657773017883301     
  0.14640000000000003          5.7558555603027344     
  0.14670000000000000          5.5522747039794922     
  0.14699999999999996          4.9667749404907227     
  0.14729999999999999          4.0342593193054199     
  0.14760000000000001          2.8118839263916016     
  0.14789999999999998          1.3789193630218506     
  0.14820000000000000        -0.17550143599510193     