  -1.4999999999999999E-002     0.0000000000000000     
  -1.4700000000000000E-002     0.0000000000000000     
  -1.4400000000000000E-002     0.0000000000000000     
  -1.4100000000000000E-002     0.0000000000000000     
  -1.3800000000000000E-002     0.0000000000000000     
  -1.3500000000000000E-002     0.0000000000000000     
  -1.3200000000000000E-002     0.0000000000000000     
  -1.2899999999999998E-002     0.0000000000000000     
  -1.2600000000000000E-002     0.0000000000000000     
  -1.2299999999999998E-002     0.0000000000000000     
  -1.2000000000000000E-002     0.0000000000000000     
  -1.1699999999999999E-002     0.0000000000000000     
  -1.1399999999999999E-002     0.0000000000000000     
  -1.1099999999999999E-002     0.0000000000000000     
  -1.0799999999999999E-002     0.0000000000000000     
  -1.0499999999999999E-002     0.0000000000000000     
  -1.0199999999999999E-002     0.0000000000000000     
  -9.8999999999999991E-003     0.0000000000000000     
  -9.5999999999999992E-003     0.0000000000000000     
  -9.2999999999999992E-003     0.0000000000000000     
  -8.9999999999999993E-003     4.8998452306069000E-036
  -8.6999999999999994E-003    -5.2110054872810677E-035
  -8.3999999999999995E-003    -1.0385777279553000E-033
  -8.0999999999999996E-003     6.5943161272337005E-033
  -7.7999999999999988E-003     2.4918523039338376E-032
  -7.4999999999999997E-003    -7.0876408372942809E-032
  -7.1999999999999998E-003    -1.3814661636852339E-030
  -6.8999999999999981E-003     2.7263703153197798E-030
  -6.5999999999999982E-003     3.9385465974244488E-029
  -6.3000000000000000E-003    -1.2448806715230771E-028
  -6.0000000000000001E-003    -5.5706681047050128E-028
  -5.6999999999999985E-003     2.9635603316298303E-027
  -5.3999999999999986E-003     1.2279537695383549E-027
  -5.1000000000000004E-003    -2.2332220818499301E-026
  -4.7999999999999987E-003    -5.7185303554424723E-026
  -4.5000000000000005E-003     6.0642710803875729E-025
  -4.1999999999999989E-003    -1.4501285880107957E-024
  -3.8999999999999990E-003     3.9152103498443766E-025
  -3.5999999999999990E-003     2.7809240175213197E-024
  -3.2999999999999991E-003     6.8719337950312355E-024
  -2.9999999999999992E-003    -5.1960907830707447E-023
  -2.6999999999999993E-003     9.2711963358704997E-023
  -2.3999999999999994E-003     1.0042060483944161E-023
  -2.0999999999999977E-003    -2.5490297085160820E-022
  -1.7999999999999995E-003     1.1762948557998039E-022
  -1.4999999999999979E-003     1.0563154987335767E-021
  -1.1999999999999997E-003    -2.4247357745475007E-021
  -8.9999999999999976E-004     1.0776311514813726E-021
  -5.9999999999999810E-004     2.7915709891691618E-021
  -2.9999999999999992E-004     6.1359215785482232E-021
   0.0000000000000000         -6.4015507605478812E-020
   3.0000000000000165E-004     1.9318805791115376E-019
   5.9999999999999984E-004    -2.9650335585872733E-019
   9.0000000000000149E-004     3.6022132401293140E-020
   1.2000000000000031E-003     1.0768947555566344E-018
   1.5000000000000013E-003    -3.0833506816722910E-018
   1.8000000000000030E-003     4.5391995199087361E-018
   2.1000000000000012E-003    -1.9751433142201914E-018
   2.3999999999999994E-003    -8.5794288050744599E-018
   2.7000000000000010E-003     2.7645108953544907E-017
   2.9999999999999992E-003    -4.9729893285896111E-017
   3.3000000000000008E-003     7.0179346510313654E-017
   3.6000000000000025E-003    -1.0059969439544950E-016
   3.9000000000000007E-003     1.4699327710334363E-016
   4.2000000000000023E-003    -3.4012158010743201E-017
   4.5000000000000005E-003    -9.3237374015165764E-016
   4.7999999999999987E-003     3.5153550789036132E-015
   5.1000000000000004E-003    -3.6687042530151367E-015
   5.4000000000000020E-003    -2.3267163274721427E-014
   5.7000000000000037E-003     1.4816312510646662E-013
   5.9999999999999984E-003    -4.8507649719892187E-013
   6.3000000000000000E-003     1.0812491310283057E-012
   6.6000000000000017E-003    -1.8154955620450219E-012
   6.9000000000000034E-003     3.3035625016802905E-012
   7.2000000000000015E-003    -1.0401478289789878E-011
   7.5000000000000032E-003     3.1529109184580406E-011
   7.8000000000000014E-003    -2.9110144850186259E-011
   8.0999999999999996E-003    -2.6829050092658235E-010
   8.4000000000000012E-003     1.5348819992766494E-009
   8.7000000000000029E-003    -3.6479761433838576E-009
   9.0000000000000011E-003     9.0811369535259701E-010
   9.2999999999999992E-003     2.0251558652262247E-008
   9.6000000000000009E-003    -5.1011902257869224E-008
   9.8999999999999991E-003    -7.0864683010540830E-009
   1.0200000000000001E-002     2.4214998006755195E-007
   1.0500000000000002E-002    -2.3376910007755214E-007
   1.0800000000000004E-002    -8.1542259522393579E-007
   1.1099999999999999E-002     1.1033552027583937E-006
   1.1400000000000000E-002     2.8327349355095066E-006
   1.1700000000000002E-002    -3.0212374895199900E-006
   1.2000000000000004E-002    -1.0620090506563429E-005
   1.2300000000000002E-002     6.4279984144377522E-006
   1.2600000000000000E-002     6.8710207415279001E-005
   1.2900000000000002E-002     1.6498690820299089E-004
   1.3200000000000000E-002     2.6953444466926157E-004
   1.3500000000000002E-002     3.8264022441580892E-004
   1.3800000000000003E-002     5.4502475541085005E-004
   1.4100000000000001E-002     8.2242721691727638E-004
   1.4400000000000000E-002     1.2872928055003285E-003
   1.4700000000000001E-002     2.0095657091587782E-003
   1.4999999999999999E-002     3.0686366371810436E-003
   1.5300000000000001E-002     4.5845038257539272E-003
   1.5600000000000003E-002     6.7370967008173466E-003
   1.5899999999999997E-002     9.7703281790018082E-003
   1.6199999999999999E-002     1.3992323540151119E-002
   1.6500000000000001E-002     1.9768379628658295E-002
   1.6800000000000002E-002     2.7516121044754982E-002
   1.7100000000000004E-002     3.7705615162849426E-002
   1.7400000000000006E-002     5.0855781883001328E-002
   1.7700000000000000E-002     6.7496173083782196E-002
   1.8000000000000002E-002     8.8089220225811005E-002
   1.8300000000000004E-002    0.11296236515045166     
   1.8600000000000005E-002    0.14223851263523102     
   1.8900000000000000E-002    0.17570461332798004     
   1.9200000000000002E-002    0.21264795958995819     
   1.9500000000000003E-002    0.25171494483947754     
   1.9799999999999998E-002    0.29079219698905945     
   2.0100000000000000E-002    0.32689917087554932     
   2.0400000000000001E-002    0.35611152648925781     
   2.0700000000000003E-002    0.37357750535011292     
   2.0999999999999998E-002    0.37368088960647583     
   2.1299999999999999E-002    0.35025283694267273     
   2.1600000000000001E-002    0.29695346951484680     
   2.1900000000000003E-002    0.20781411230564117     
   2.2200000000000004E-002     7.7889606356620789E-002
   2.2500000000000006E-002    -9.5914945006370544E-002
   2.2800000000000001E-002   -0.31418699026107788     
   2.3100000000000002E-002   -0.57423430681228638     
   2.3400000000000004E-002   -0.86947411298751831     
   2.3699999999999999E-002    -1.1892071962356567     
   2.4000000000000000E-002    -1.5184413194656372     
   2.4300000000000002E-002    -1.8384449481964111     
   2.4599999999999997E-002    -2.1275348663330078     
   2.4900000000000005E-002    -2.3623001575469971     
   2.5200000000000000E-002    -2.5193099975585938     
   2.5499999999999995E-002    -2.5769689083099365     
   2.5800000000000003E-002    -2.5175423622131348     
   2.6099999999999998E-002    -2.3291211128234863     
   2.6400000000000007E-002    -2.0071208477020264     
   2.6700000000000002E-002    -1.5554298162460327     
   2.6999999999999996E-002   -0.98696660995483398     
   2.7300000000000005E-002   -0.32313317060470581     
   2.7600000000000000E-002    0.40682649612426758     
   2.7900000000000008E-002     1.1678019762039185     
   2.8200000000000003E-002     1.9213848114013672     
   2.8499999999999998E-002     2.6280279159545898     
   2.8800000000000006E-002     3.2506902217864990     
   2.9100000000000001E-002     3.7568898200988770     
   2.9400000000000003E-002     4.1214170455932617     
   2.9700000000000004E-002     4.3281831741333008     
   3.0000000000000006E-002     4.3708395957946777     
   3.0300000000000001E-002     4.2533569335937500     
   3.0600000000000002E-002     3.9890294075012207     
   3.0900000000000004E-002     3.5994195938110352     
   3.1199999999999999E-002     3.1122844219207764     
   3.1500000000000007E-002     2.5591328144073486     
   3.1800000000000002E-002     1.9728138446807861     
   3.2099999999999997E-002     1.3850189447402954     
   3.2400000000000005E-002    0.82402712106704712     
   3.2700000000000000E-002    0.31278243660926819     
   3.3000000000000002E-002   -0.13186247646808624     
   3.3300000000000003E-002   -0.50088912248611450     
   3.3599999999999998E-002   -0.79250943660736084     
   3.3900000000000000E-002    -1.0118205547332764     
   3.4200000000000001E-002    -1.1706756353378296     
   3.4500000000000003E-002    -1.2853716611862183     
   3.4799999999999998E-002    -1.3760561943054199     
   3.5099999999999999E-002    -1.4640792608261108     
   3.5400000000000001E-002    -1.5704138278961182     
   3.5699999999999996E-002    -1.7137179374694824     
   3.6000000000000004E-002    -1.9079577922821045     
   3.6299999999999999E-002    -2.1613256931304932     
   3.6600000000000008E-002    -2.4742729663848877     
   3.6900000000000002E-002    -2.8388161659240723     
   3.7199999999999997E-002    -3.2382969856262207     
   3.7500000000000006E-002    -3.6473176479339600     
   3.7800000000000000E-002    -4.0332117080688477     
   3.8100000000000009E-002    -4.3575019836425781     
   3.8400000000000004E-002    -4.5789594650268555     
   3.8699999999999998E-002    -4.6565427780151367     
   3.9000000000000007E-002    -4.5531315803527832     
   3.9300000000000002E-002    -4.2392778396606445     
   3.9600000000000003E-002    -3.6966311931610107     
   3.9900000000000005E-002    -2.9210305213928223     
   4.0200000000000000E-002    -1.9241279363632202     
   4.0500000000000001E-002   -0.73496598005294800     
   4.0800000000000003E-002    0.60139608383178711     
   4.1100000000000005E-002     2.0252456665039062     
   4.1399999999999999E-002     3.4656589031219482     
   4.1700000000000008E-002     4.8456339836120605     
   4.2000000000000003E-002     6.0856914520263672     
   4.2299999999999997E-002     7.1115942001342773     
   4.2600000000000006E-002     7.8571667671203613     
   4.2900000000000001E-002     8.2711191177368164     
   4.3200000000000002E-002     8.3200397491455078     
   4.3500000000000004E-002     7.9901289939880371     
   4.3799999999999999E-002     7.2905974388122559     
   4.4100000000000000E-002     6.2496652603149414     
   4.4400000000000002E-002     4.9161806106567383     
   4.4700000000000004E-002     3.3544523715972900     
   4.4999999999999998E-002     1.6401978731155396     
   4.5300000000000000E-002   -0.14157813787460327     
   4.5600000000000002E-002    -1.9052747488021851     
   4.5899999999999996E-002    -3.5653123855590820     
   4.6200000000000005E-002    -5.0436744689941406     
   4.6500000000000000E-002    -6.2731876373291016     
   4.6799999999999994E-002    -7.1988906860351562     
   4.7100000000000003E-002    -7.7840623855590820     
   4.7399999999999998E-002    -8.0079097747802734     
   4.7700000000000006E-002    -7.8697681427001953     
   4.8000000000000001E-002    -7.3869962692260742     
   4.8300000000000010E-002    -6.5942530632019043     
   4.8600000000000004E-002    -5.5431451797485352     
   4.8899999999999999E-002    -4.2972359657287598     
   4.9200000000000008E-002    -2.9308145046234131     
   4.9500000000000002E-002    -1.5229330062866211     
   4.9800000000000011E-002   -0.15461531281471252     
   5.0100000000000006E-002     1.0970746278762817     
   5.0400000000000000E-002     2.1631479263305664     
   5.0700000000000009E-002     2.9870693683624268     
   5.1000000000000004E-002     3.5293254852294922     
   5.1299999999999998E-002     3.7686789035797119     
   5.1600000000000007E-002     3.7057290077209473     
   5.1900000000000002E-002     3.3610353469848633     
   5.2200000000000010E-002     2.7755641937255859     
   5.2500000000000005E-002     2.0071153640747070     
   5.2800000000000000E-002     1.1259626150131226     
   5.3099999999999994E-002    0.21098460257053375     
   5.3400000000000003E-002   -0.65818959474563599     
   5.3699999999999998E-002    -1.4054903984069824     
   5.4000000000000006E-002    -1.9659070968627930     
   5.4300000000000001E-002    -2.2899899482727051     
   5.4599999999999996E-002    -2.3481044769287109     
   5.4900000000000004E-002    -2.1335759162902832     
   5.5199999999999999E-002    -1.6618673801422119     
   5.5499999999999994E-002   -0.97147190570831299     
   5.5800000000000002E-002   -0.11911878734827042     
   5.6099999999999997E-002    0.82444673776626587     
   5.6400000000000006E-002     1.7808570861816406     
   5.6700000000000000E-002     2.6717457771301270     
   5.6999999999999995E-002     3.4246661663055420     
   5.7300000000000004E-002     3.9813270568847656     
   5.7599999999999998E-002     4.3013000488281250     
   5.7900000000000007E-002     4.3674082756042480     
   5.8200000000000002E-002     4.1864504814147949     
   5.8499999999999996E-002     3.7881205081939697     
   5.8800000000000005E-002     3.2229998111724854     
   5.9100000000000000E-002     2.5556118488311768     
   5.9400000000000008E-002     1.8597078323364258     
   5.9700000000000003E-002     1.2091532945632935     
   6.0000000000000012E-002    0.67106890678405762     
   6.0300000000000006E-002    0.29955393075942993     
   6.0600000000000001E-002    0.12917971611022949     
   6.0900000000000010E-002    0.17296168208122253     
   6.1200000000000004E-002    0.42061400413513184     
   6.1500000000000013E-002    0.84085762500762939     
   6.1800000000000008E-002     1.3847593069076538     
   6.2100000000000002E-002     1.9913312196731567     
   6.2399999999999997E-002     2.5940442085266113     
   6.2700000000000006E-002     3.1270864009857178     
   6.3000000000000000E-002     3.5321476459503174     
   6.3300000000000009E-002     3.7625432014465332     
   6.3600000000000004E-002     3.7874336242675781     
   6.3899999999999998E-002     3.5924494266510010     
   6.4199999999999993E-002     3.1794903278350830     
   6.4500000000000002E-002     2.5648138523101807     
   6.4800000000000010E-002     1.7749614715576172     
   6.5100000000000005E-002    0.84396862983703613     
   6.5400000000000000E-002   -0.19152006506919861     
   6.5700000000000008E-002    -1.2950872182846069     
   6.5999999999999989E-002    -2.4330739974975586     
   6.6299999999999998E-002    -3.5770313739776611     
   6.6600000000000006E-002    -4.7022061347961426     
   6.6900000000000001E-002    -5.7890944480895996     
   6.7199999999999996E-002    -6.8206701278686523     
   6.7500000000000004E-002    -7.7812128067016602     
   6.7800000000000013E-002    -8.6553688049316406     
   6.8099999999999994E-002    -9.4255180358886719     
   6.8400000000000002E-002    -10.072641372680664     
   6.8700000000000011E-002    -10.574862480163574     
   6.8999999999999992E-002    -10.908253669738770     
   6.9300000000000000E-002    -11.048511505126953     
   6.9600000000000009E-002    -10.970943450927734     
   6.9900000000000004E-002    -10.654098510742188     
   7.0199999999999999E-002    -10.079299926757812     
   7.0500000000000007E-002    -9.2337284088134766     
   7.0800000000000016E-002    -8.1118812561035156     
   7.1099999999999997E-002    -6.7159624099731445     
   7.1400000000000005E-002    -5.0585775375366211     
   7.1700000000000000E-002    -3.1625046730041504     
   7.1999999999999995E-002    -1.0616165399551392     
   7.2300000000000003E-002     1.1979620456695557     
   7.2600000000000012E-002     3.5595304965972900     
   7.2900000000000006E-002     5.9549188613891602     
   7.3200000000000001E-002     8.3075714111328125     
   7.3499999999999996E-002     10.533359527587891     
   7.3800000000000004E-002     12.544813156127930     
   7.4099999999999999E-002     14.255531311035156     
   7.4400000000000008E-002     15.583018302917480     
   7.4700000000000003E-002     16.455739974975586     
   7.5000000000000011E-002     16.817197799682617     
   7.5299999999999992E-002     16.631402969360352     
   7.5600000000000001E-002     15.885532379150391     
   7.5900000000000009E-002     14.593909263610840     
   7.6200000000000004E-002     12.798299789428711     
   7.6499999999999999E-002     10.565466880798340     
   7.6800000000000007E-002     7.9888820648193359     
   7.7099999999999988E-002     5.1798400878906250     
   7.7399999999999997E-002     2.2647464275360107     
   7.7700000000000005E-002   -0.62365740537643433     
   7.8000000000000014E-002    -3.3536350727081299     
   7.8299999999999995E-002    -5.7991943359375000     
   7.8600000000000003E-002    -7.8525967597961426     
   7.8900000000000012E-002    -9.4250822067260742     
   7.9199999999999993E-002    -10.454336166381836     
   7.9500000000000001E-002    -10.909669876098633     
   7.9800000000000010E-002    -10.789412498474121     
   8.0100000000000018E-002    -10.124266624450684     
   8.0399999999999999E-002    -8.9744148254394531     
   8.0700000000000008E-002    -7.4253511428833008     
   8.1000000000000003E-002    -5.5837697982788086     
   8.1299999999999997E-002    -3.5715584754943848     
   8.1600000000000006E-002    -1.5167275667190552     
   8.1900000000000014E-002    0.45097643136978149     
   8.2199999999999995E-002     2.2115447521209717     
   8.2500000000000004E-002     3.6591618061065674     
   8.2799999999999999E-002     4.7088546752929688     
   8.3100000000000007E-002     5.3067741394042969     
   8.3400000000000002E-002     5.4252305030822754     
   8.3700000000000011E-002     5.0722250938415527     
   8.4000000000000005E-002     4.2878398895263672     
   8.4300000000000000E-002     3.1390576362609863     
   8.4599999999999995E-002     1.7216908931732178     
   8.4900000000000003E-002    0.14434993267059326     
   8.5199999999999998E-002    -1.4713994264602661     
   8.5500000000000007E-002    -3.0038859844207764     
   8.5800000000000001E-002    -4.3429040908813477     
   8.6100000000000010E-002    -5.3905777931213379     
   8.6399999999999991E-002    -6.0784759521484375     
   8.6699999999999999E-002    -6.3659176826477051     
   8.7000000000000008E-002    -6.2443747520446777     
   8.7300000000000003E-002    -5.7415103912353516     
   8.7599999999999997E-002    -4.9115972518920898     
   8.7900000000000006E-002    -3.8375658988952637     
   8.8200000000000014E-002    -2.6192646026611328     
   8.8499999999999995E-002    -1.3639628887176514     
   8.8800000000000004E-002   -0.18067574501037598     
   8.9100000000000013E-002    0.83467090129852295     
   8.9399999999999993E-002     1.6047984361648560     
   8.9700000000000002E-002     2.0774996280670166     
   9.0000000000000011E-002     2.2323534488677979     
   9.0299999999999991E-002     2.0788450241088867     
   9.0600000000000000E-002     1.6566816568374634     
   9.0900000000000009E-002     1.0310845375061035     
   9.1200000000000017E-002    0.28242087364196777     
   9.1499999999999998E-002   -0.49864128232002258     
   9.1800000000000007E-002    -1.2234907150268555     
   9.2100000000000001E-002    -1.8147000074386597     
   9.2399999999999996E-002    -2.2098307609558105     
   9.2700000000000005E-002    -2.3732943534851074     
   9.3000000000000013E-002    -2.2934405803680420     
   9.3300000000000008E-002    -1.9842936992645264     
   9.3600000000000003E-002    -1.4843697547912598     
   9.3899999999999997E-002   -0.84625083208084106     
   9.4200000000000006E-002   -0.13529419898986816     
   9.4500000000000001E-002    0.58393734693527222     
   9.4800000000000009E-002     1.2525382041931152     
   9.5100000000000004E-002     1.8204271793365479     
   9.5399999999999999E-002     2.2574102878570557     
   9.5699999999999993E-002     2.5501658916473389     
   9.6000000000000002E-002     2.7031738758087158     
   9.6300000000000011E-002     2.7372472286224365     
   9.6600000000000005E-002     2.6830987930297852     
   9.6900000000000000E-002     2.5785667896270752     
   9.7200000000000009E-002     2.4612658023834229     
   9.7499999999999989E-002     2.3639006614685059     
   9.7799999999999998E-002     2.3128526210784912     
   9.8100000000000007E-002     2.3223824501037598     
   9.8400000000000015E-002     2.3958344459533691     
   9.8699999999999996E-002     2.5278880596160889     
   9.9000000000000005E-002     2.7015829086303711     
   9.9300000000000013E-002     2.8966770172119141     
   9.9599999999999994E-002     3.0900967121124268     
   9.9900000000000003E-002     3.2575216293334961     
  0.10020000000000001          3.3802335262298584     
  0.10049999999999999          3.4410064220428467     
  0.10080000000000000          3.4314513206481934     
  0.10110000000000001          3.3488163948059082     
  0.10140000000000000          3.1939446926116943     
  0.10170000000000000          2.9763417243957520     
  0.10200000000000001          2.7054944038391113     
  0.10230000000000002          2.3946869373321533     
  0.10260000000000000          2.0581345558166504     
  0.10290000000000001          1.7057275772094727     
  0.10320000000000000          1.3469064235687256     
  0.10350000000000001         0.98610121011734009     
  0.10380000000000000         0.62323403358459473     
  0.10410000000000001         0.25538146495819092     
  0.10440000000000001        -0.12593171000480652     
  0.10470000000000000        -0.52899837493896484     
  0.10500000000000000        -0.96186619997024536     
  0.10530000000000000         -1.4323569536209106     
  0.10560000000000000         -1.9412209987640381     
  0.10590000000000001         -2.4848394393920898     
  0.10620000000000000         -3.0546076297760010     
  0.10650000000000001         -3.6336672306060791     
  0.10679999999999999         -4.2038435935974121     
  0.10710000000000000         -4.7437701225280762     
  0.10740000000000001         -5.2349343299865723     
  0.10770000000000000         -5.6665301322937012     
  0.10800000000000000         -6.0309667587280273     
  0.10830000000000001         -6.3341217041015625     
  0.10859999999999999         -6.5877714157104492     
  0.10890000000000000         -6.8095369338989258     
  0.10920000000000001         -7.0225062370300293     
  0.10950000000000001         -7.2413740158081055     
  0.10979999999999999         -7.4766097068786621     
  0.11009999999999999         -7.7234044075012207     
  0.11040000000000001         -7.9609241485595703     
  0.11070000000000001         -8.1549978256225586     
  0.11100000000000000         -8.2541379928588867     
  0.11130000000000000         -8.2024354934692383     
  0.11160000000000002         -7.9431991577148438     
  0.11190000000000001         -7.4288878440856934     
  0.11220000000000001         -6.6304874420166016     
  0.11250000000000000         -5.5425901412963867     
  0.11280000000000000         -4.1880483627319336     
  0.11309999999999999         -2.6182782649993896     
  0.11340000000000001        -0.90506404638290405     
  0.11369999999999998         0.86604249477386475     
  0.11400000000000000          2.6096339225769043     
  0.11430000000000000          4.2547459602355957     
  0.11460000000000002          5.7541513442993164     
  0.11489999999999999          7.1009631156921387     
  0.11520000000000001          8.3261833190917969     
  0.11550000000000001          9.4996728897094727     
  0.11580000000000000          10.725196838378906     
  0.11609999999999999          12.117720603942871     
  0.11640000000000002          13.790991783142090     
  0.11670000000000001          15.826951980590820     
  0.11700000000000001          18.256746292114258     
  0.11730000000000000          21.041399002075195     
  0.11760000000000000          24.056119918823242     
  0.11789999999999999          27.090139389038086     
  0.11820000000000001          29.851064682006836     
  0.11850000000000001          31.986978530883789     
  0.11880000000000000          33.113574981689453     
  0.11910000000000000          32.855327606201172     
  0.11940000000000002          30.884193420410156     
  0.11970000000000001          26.964704513549805     
  0.12000000000000001          20.992662429809570     
  0.12030000000000000          13.017260551452637     
  0.12060000000000000          3.2662878036499023     
  0.12089999999999999         -7.8657999038696289     
  0.12119999999999999         -19.828075408935547     
  0.12150000000000001         -31.951713562011719     
  0.12180000000000001         -43.496738433837891     
  0.12210000000000000         -53.707153320312500     
  0.12239999999999999         -61.875198364257812     
  0.12270000000000002         -67.397277832031250     
  0.12300000000000001         -69.827407836914062     
  0.12330000000000001         -68.912811279296875     
  0.12360000000000000         -64.622375488281250     
  0.12390000000000000         -57.144050598144531     
  0.12419999999999999         -46.878208160400391     
  0.12450000000000001         -34.399154663085938     
  0.12480000000000001         -20.415306091308594     
  0.12509999999999999         -5.7194976806640625     
  0.12540000000000001          8.8797731399536133     
  0.12570000000000003          22.598142623901367     
  0.12600000000000000          34.742912292480469     
  0.12630000000000002          44.747119903564453     
  0.12659999999999999          52.192821502685547     
  0.12690000000000001          56.846763610839844     
  0.12719999999999998          58.636554718017578     
  0.12750000000000000          57.668239593505859     
  0.12780000000000002          54.189975738525391     
  0.12809999999999999          48.565189361572266     
  0.12840000000000001          41.257862091064453     
  0.12869999999999998          32.767982482910156     
  0.12900000000000000          23.627717971801758     
  0.12930000000000003          14.347936630249023     
  0.12959999999999999          5.3960800170898438     
  0.12990000000000002         -2.8165304660797119     
  0.13019999999999998         -9.9715957641601562     
  0.13050000000000000         -15.832610130310059     
  0.13080000000000003         -20.263736724853516     
  0.13109999999999999         -23.222105026245117     
  0.13140000000000002         -24.746633529663086     
  0.13169999999999998         -24.954833984375000     
  0.13200000000000001         -24.018920898437500     
  0.13229999999999997         -22.153146743774414     
  0.13260000000000000         -19.592226028442383     
  0.13290000000000002         -16.579153060913086     
  0.13319999999999999         -13.342233657836914     
  0.13350000000000001         -10.089566230773926     
  0.13380000000000003         -6.9934182167053223     
  0.13410000000000000         -4.1850934028625488     
  0.13440000000000002         -1.7608991861343384     
  0.13469999999999999         0.23302397131919861     
  0.13500000000000001          1.7755919694900513     
  0.13529999999999998          2.8823580741882324     
  0.13560000000000000          3.5917158126831055     
  0.13590000000000002          3.9505088329315186     
  0.13619999999999999          4.0260887145996094     
  0.13650000000000001          3.8757662773132324     
  0.13680000000000003          3.5636394023895264     
  0.13710000000000000          3.1468014717102051     
  0.13740000000000002          2.6705188751220703     
  0.13769999999999999          2.1814641952514648     
  0.13800000000000001          1.7079495191574097     
  0.13829999999999998          1.2775111198425293     
  0.13860000000000000         0.90743559598922729     
  0.13890000000000002         0.60816127061843872     
  0.13919999999999999         0.38549324870109558     
  0.13950000000000001         0.23699355125427246     
  0.13979999999999998         0.15892332792282104     
  0.14010000000000000         0.14032466709613800     
  0.14040000000000002         0.17079052329063416     
  0.14069999999999999         0.23390069603919983     
  0.14100000000000001         0.31681346893310547     
  0.14130000000000004         0.40598922967910767     
  0.14160000000000000         0.48749944567680359     
  0.14189999999999997         0.55665314197540283     
  0.14219999999999999         0.60274600982666016     
  0.14250000000000002         0.62814140319824219     
  0.14279999999999998         0.63230901956558228     
  0.14310000000000000         0.61729550361633301     
  0.14339999999999997         0.59272170066833496     
  0.14369999999999999         0.55778139829635620     
  0.14400000000000002         0.52305847406387329     
  0.14429999999999998         0.48888990283012390     
  0.14460000000000001         0.45626983046531677     
  0.14490000000000003         0.42920720577239990     
  0.14520000000000000         0.39950624108314514     
  0.14550000000000002         0.36958083510398865     
  0.14579999999999999         0.33276614546775818     
  0.14610000000000001         0.28646573424339294     
  0.14640000000000003         0.23099233210086823     
  0.14670000000000000         0.16395260393619537     
  0.14699999999999996          9.0688988566398621E-002
  0.14729999999999999          1.3205388560891151E-002
  0.14760000000000001         -6.3057951629161835E-002
  0.14789999999999998        -0.13228809833526611     
  0.14820000000000000        -0.18915924429893494     