  -1.4999999999999999E-002     0.0000000000000000     
  -1.4700000000000000E-002     0.0000000000000000     
  -1.4400000000000000E-002     0.0000000000000000     
  -1.4100000000000000E-002    -5.0664936097043335E-034
  -1.3800000000000000E-002     6.6857781100617179E-032
  -1.3500000000000000E-002     6.5741456151319238E-029
  -1.3200000000000000E-002     2.9495848209883844E-027
  -1.2899999999999998E-002     5.6041499153056988E-027
  -1.2600000000000000E-002    -9.5854725251676711E-025
  -1.2299999999999998E-002     3.5062500654358312E-025
  -1.2000000000000000E-002     4.6604046879608298E-023
  -1.1699999999999999E-002     8.8171109594297325E-023
  -1.1399999999999999E-002    -2.3716671703217873E-021
  -1.1099999999999999E-002     5.7795658698705567E-021
  -1.0799999999999999E-002     6.3111140702016930E-020
  -1.0499999999999999E-002    -7.2520909535994064E-019
  -1.0199999999999999E-002     2.5258363254855320E-018
  -9.8999999999999991E-003     5.0373223081141877E-018
  -9.5999999999999992E-003    -6.8553625586736635E-017
  -9.2999999999999992E-003     2.1825626330332625E-016
  -8.9999999999999993E-003    -2.3571187857567347E-016
  -8.6999999999999994E-003    -4.2558918971886104E-016
  -8.3999999999999995E-003     2.2753748653303336E-015
  -8.0999999999999996E-003    -5.5548649379832775E-015
  -7.7999999999999988E-003     9.6036273687172616E-015
  -7.4999999999999997E-003    -1.3204645642433781E-014
  -7.1999999999999998E-003     1.7084493609859260E-014
  -6.8999999999999981E-003    -2.1465343777893765E-015
  -6.5999999999999982E-003    -8.7069111957219919E-014
  -6.3000000000000000E-003     1.6670321264893040E-013
  -6.0000000000000001E-003     1.6505761059153190E-013
  -5.6999999999999985E-003    -9.7797757305645439E-013
  -5.3999999999999986E-003     8.4151555081873886E-013
  -5.1000000000000004E-003     2.6623729262875706E-012
  -4.7999999999999987E-003    -9.2884597582831852E-012
  -4.5000000000000005E-003     1.1006409325609035E-011
  -4.1999999999999989E-003     5.8889178256027463E-012
  -3.8999999999999990E-003    -4.1105629317028658E-011
  -3.5999999999999990E-003     6.0051283390372134E-011
  -3.2999999999999991E-003    -1.6082093989844282E-011
  -2.9999999999999992E-003    -8.0311556016621211E-011
  -2.6999999999999993E-003     1.3000762966175472E-010
  -2.3999999999999994E-003    -5.6181784918729605E-011
  -2.0999999999999977E-003    -5.7894938843006116E-011
  -1.7999999999999995E-003     1.0060707128500823E-010
  -1.4999999999999979E-003    -1.3963523393112354E-010
  -1.1999999999999997E-003     1.9475338008945187E-010
  -8.9999999999999976E-004     1.1505803254596714E-011
  -5.9999999999999810E-004    -7.2792072369765037E-010
  -2.9999999999999992E-004     1.8554670022652431E-009
   0.0000000000000000         -2.6501441041659746E-009
   3.0000000000000165E-004     5.4408832994568002E-010
   5.9999999999999984E-004     8.8701419542758231E-009
   9.0000000000000149E-004    -2.6483078841010865E-008
   1.2000000000000031E-003     3.7931680907377086E-008
   1.5000000000000013E-003     1.0412276374438534E-008
   1.8000000000000030E-003    -2.0623869545488560E-007
   2.1000000000000012E-003     3.9546085872643744E-007
   2.3999999999999994E-003     2.5615119625399529E-007
   2.7000000000000010E-003    -2.0092134036531206E-006
   2.9999999999999992E-003     5.5076679927879013E-007
   3.3000000000000008E-003     6.9356451604107860E-006
   3.6000000000000025E-003    -2.4617886538180755E-006
   3.9000000000000007E-003    -2.2580468794330955E-005
   4.2000000000000023E-003     1.6988171864795731E-006
   4.5000000000000005E-003     1.1592276860028505E-004
   4.7999999999999987E-003     3.0625748331658542E-004
   5.1000000000000004E-003     5.3941033547744155E-004
   5.4000000000000020E-003     8.1255019176751375E-004
   5.7000000000000037E-003     1.1694877175614238E-003
   5.9999999999999984E-003     1.7269602976739407E-003
   6.3000000000000000E-003     2.6601809076964855E-003
   6.6000000000000017E-003     4.1419896297156811E-003
   6.9000000000000034E-003     6.3544563017785549E-003
   7.2000000000000015E-003     9.5474682748317719E-003
   7.5000000000000032E-003     1.4079676009714603E-002
   7.8000000000000014E-003     2.0475188270211220E-002
   8.0999999999999996E-003     2.9425276443362236E-002
   8.4000000000000012E-003     4.1718110442161560E-002
   8.7000000000000029E-003     5.8244936168193817E-002
   9.0000000000000011E-003     8.0074153840541840E-002
   9.2999999999999992E-003    0.10839167237281799     
   9.6000000000000009E-003    0.14433629810810089     
   9.8999999999999991E-003    0.18893870711326599     
   1.0200000000000001E-002    0.24302993714809418     
   1.0500000000000002E-002    0.30696621537208557     
   1.0800000000000004E-002    0.38030552864074707     
   1.1099999999999999E-002    0.46151041984558105     
   1.1400000000000000E-002    0.54765212535858154     
   1.1700000000000002E-002    0.63405257463455200     
   1.2000000000000004E-002    0.71397221088409424     
   1.2300000000000002E-002    0.77846062183380127     
   1.2600000000000000E-002    0.81643289327621460     
   1.2900000000000002E-002    0.81490117311477661     
   1.3200000000000000E-002    0.75949251651763916     
   1.3500000000000002E-002    0.63524669408798218     
   1.3800000000000003E-002    0.42793917655944824     
   1.4100000000000001E-002    0.12566992640495300     
   1.4400000000000000E-002   -0.27945604920387268     
   1.4700000000000001E-002   -0.78925800323486328     
   1.4999999999999999E-002    -1.3976719379425049     
   1.5300000000000001E-002    -2.0893094539642334     
   1.5600000000000003E-002    -2.8384516239166260     
   1.5899999999999997E-002    -3.6089723110198975     
   1.6199999999999999E-002    -4.3549399375915527     
   1.6500000000000001E-002    -5.0224962234497070     
   1.6800000000000002E-002    -5.5529828071594238     
   1.7100000000000004E-002    -5.8869972229003906     
   1.7400000000000006E-002    -5.9691691398620605     
   1.7700000000000000E-002    -5.7534704208374023     
   1.8000000000000002E-002    -5.2082886695861816     
   1.8300000000000004E-002    -4.3210167884826660     
   1.8600000000000005E-002    -3.1012160778045654     
   1.8900000000000000E-002    -1.5827898979187012     
   1.9200000000000002E-002    0.17647719383239746     
   1.9500000000000003E-002     2.0966556072235107     
   1.9799999999999998E-002     4.0805139541625977     
   2.0100000000000000E-002     6.0192213058471680     
   2.0400000000000001E-002     7.8002400398254395     
   2.0700000000000003E-002     9.3154487609863281     
   2.0999999999999998E-002     10.468844413757324     
   2.1299999999999999E-002     11.184801101684570     
   2.1600000000000001E-002     11.413869857788086     
   2.1900000000000003E-002     11.137126922607422     
   2.2200000000000004E-002     10.368291854858398     
   2.2500000000000006E-002     9.1528472900390625     
   2.2800000000000001E-002     7.5652480125427246     
   2.3100000000000002E-002     5.7035422325134277     
   2.3400000000000004E-002     3.6818790435791016     
   2.3699999999999999E-002     1.6230568885803223     
   2.4000000000000000E-002   -0.35143899917602539     
   2.4300000000000002E-002    -2.1292238235473633     
   2.4599999999999997E-002    -3.6150841712951660     
   2.4900000000000005E-002    -4.7385511398315430     
   2.5200000000000000E-002    -5.4566049575805664     
   2.5499999999999995E-002    -5.7579169273376465     
   2.5800000000000003E-002    -5.6619734764099121     
   2.6099999999999998E-002    -5.2165079116821289     
   2.6400000000000007E-002    -4.4943976402282715     
   2.6700000000000002E-002    -3.5858280658721924     
   2.6999999999999996E-002    -2.5924282073974609     
   2.7300000000000005E-002    -1.6184397935867310     
   2.7600000000000000E-002   -0.76230001449584961     
   2.7900000000000008E-002   -0.11076676100492477     
   2.8200000000000003E-002    0.26871237158775330     
   2.8499999999999998E-002    0.33152201771736145     
   2.8800000000000006E-002     5.8667227625846863E-002
   2.9100000000000001E-002   -0.54195404052734375     
   2.9400000000000003E-002    -1.4382065534591675     
   2.9700000000000004E-002    -2.5756940841674805     
   3.0000000000000006E-002    -3.8827650547027588     
   3.0300000000000001E-002    -5.2758398056030273     
   3.0600000000000002E-002    -6.6644601821899414     
   3.0900000000000004E-002    -7.9577212333679199     
   3.1199999999999999E-002    -9.0683555603027344     
   3.1500000000000007E-002    -9.9175510406494141     
   3.1800000000000002E-002    -10.438365936279297     
   3.2099999999999997E-002    -10.577784538269043     
   3.2400000000000005E-002    -10.298675537109375     
   3.2700000000000000E-002    -9.5807533264160156     
   3.3000000000000002E-002    -8.4212274551391602     
   3.3300000000000003E-002    -6.8347005844116211     
   3.3599999999999998E-002    -4.8532609939575195     
   3.3900000000000000E-002    -2.5266921520233154     
   3.4200000000000001E-002     7.7572360634803772E-002
   3.4500000000000003E-002     2.8760199546813965     
   3.4799999999999998E-002     5.7694854736328125     
   3.5099999999999999E-002     8.6461048126220703     
   3.5400000000000001E-002     11.384886741638184     
   3.5699999999999996E-002     13.860097885131836     
   3.6000000000000004E-002     15.947651863098145     
   3.6299999999999999E-002     17.532169342041016     
   3.6600000000000008E-002     18.513965606689453     
   3.6900000000000002E-002     18.817361831665039     
   3.7199999999999997E-002     18.397405624389648     
   3.7500000000000006E-002     17.244777679443359     
   3.7800000000000000E-002     15.390365600585938     
   3.8100000000000009E-002     12.904537200927734     
   3.8400000000000004E-002     9.8958930969238281     
   3.8699999999999998E-002     6.5059747695922852     
   3.9000000000000007E-002     2.9009864330291748     
   3.9300000000000002E-002   -0.73816066980361938     
   3.9600000000000003E-002    -4.2275571823120117     
   3.9900000000000005E-002    -7.3929190635681152     
   4.0200000000000000E-002    -10.082217216491699     
   4.0500000000000001E-002    -12.174872398376465     
   4.0800000000000003E-002    -13.592039108276367     
   4.1100000000000005E-002    -14.300039291381836     
   4.1399999999999999E-002    -14.313155174255371     
   4.1700000000000008E-002    -13.692234039306641     
   4.2000000000000003E-002    -12.536936759948730     
   4.2299999999999997E-002    -10.979258537292480     
   4.2600000000000006E-002    -9.1701650619506836     
   4.2900000000000001E-002    -7.2677650451660156     
   4.3200000000000002E-002    -5.4245400428771973     
   4.3500000000000004E-002    -3.7733271121978760     
   4.3799999999999999E-002    -2.4201679229736328     
   4.4100000000000000E-002    -1.4337146282196045     
   4.4400000000000002E-002   -0.84332090616226196     
   4.4700000000000004E-002   -0.63954061269760132     
   4.4999999999999998E-002   -0.77507793903350830     
   4.5300000000000000E-002    -1.1750361919403076     
   4.5600000000000002E-002    -1.7428025007247925     
   4.5899999999999996E-002    -2.3713231086730957     
   4.6200000000000005E-002    -2.9547545909881592     
   4.6500000000000000E-002    -3.3952474594116211     
   4.6799999999999994E-002    -3.6139373779296875     
   4.7100000000000003E-002    -3.5547509193420410     
   4.7399999999999998E-002    -3.1871795654296875     
   4.7700000000000006E-002    -2.5093696117401123     
   4.8000000000000001E-002    -1.5428107976913452     
   4.8300000000000010E-002   -0.33065229654312134     
   4.8600000000000004E-002     1.0682008266448975     
   4.8899999999999999E-002     2.5875780582427979     
   4.9200000000000008E-002     4.1594514846801758     
   4.9500000000000002E-002     5.7219190597534180     
   4.9800000000000011E-002     7.2271537780761719     
   5.0100000000000006E-002     8.6432151794433594     
   5.0400000000000000E-002     9.9604368209838867     
   5.0700000000000009E-002     11.189992904663086     
   5.1000000000000004E-002     12.360427856445312     
   5.1299999999999998E-002     13.514125823974609     
   5.1600000000000007E-002     14.694331169128418     
   5.1900000000000002E-002     15.935603141784668     
   5.2200000000000010E-002     17.250864028930664     
   5.2500000000000005E-002     18.616092681884766     
   5.2800000000000000E-002     19.963151931762695     
   5.3099999999999994E-002     21.170553207397461     
   5.3400000000000003E-002     22.064748764038086     
   5.3699999999999998E-002     22.428661346435547     
   5.4000000000000006E-002     22.014871597290039     
   5.4300000000000001E-002     20.571266174316406     
   5.4599999999999996E-002     17.869386672973633     
   5.4900000000000004E-002     13.734651565551758     
   5.5199999999999999E-002     8.0828008651733398     
   5.5499999999999994E-002    0.94216066598892212     
   5.5800000000000002E-002    -7.5244035720825195     
   5.6099999999999997E-002    -17.010311126708984     
   5.6400000000000006E-002    -27.077415466308594     
   5.6700000000000000E-002    -37.169540405273438     
   5.6999999999999995E-002    -46.654796600341797     
   5.7300000000000004E-002    -54.868015289306641     
   5.7599999999999998E-002    -61.162487030029297     
   5.7900000000000007E-002    -64.974563598632812     
   5.8200000000000002E-002    -65.866462707519531     
   5.8499999999999996E-002    -63.576805114746094     
   5.8800000000000005E-002    -58.053672790527344     
   5.9100000000000000E-002    -49.458545684814453     
   5.9400000000000008E-002    -38.175457000732422     
   5.9700000000000003E-002    -24.778419494628906     
   6.0000000000000012E-002    -9.9913606643676758     
   6.0300000000000006E-002     5.3545885086059570     
   6.0600000000000001E-002     20.397491455078125     
   6.0900000000000010E-002     34.295894622802734     
   6.1200000000000004E-002     46.293140411376953     
   6.1500000000000013E-002     55.778232574462891     
   6.1800000000000008E-002     62.307964324951172     
   6.2100000000000002E-002     65.650840759277344     
   6.2399999999999997E-002     65.781669616699219     
   6.2700000000000006E-002     62.870830535888672     
   6.3000000000000000E-002     57.273235321044922     
   6.3300000000000009E-002     49.472347259521484     
   6.3600000000000004E-002     40.052894592285156     
   6.3899999999999998E-002     29.646486282348633     
   6.4199999999999993E-002     18.878723144531250     
   6.4500000000000002E-002     8.3428602218627930     
   6.4800000000000010E-002    -1.4518060684204102     
   6.5100000000000005E-002    -10.093695640563965     
   6.5400000000000000E-002    -17.283567428588867     
   6.5700000000000008E-002    -22.847389221191406     
   6.5999999999999989E-002    -26.719203948974609     
   6.6299999999999998E-002    -28.939247131347656     
   6.6600000000000006E-002    -29.632129669189453     
   6.6900000000000001E-002    -28.983783721923828     
   6.7199999999999996E-002    -27.228139877319336     
   6.7500000000000004E-002    -24.619297027587891     
   6.7800000000000013E-002    -21.416187286376953     
   6.8099999999999994E-002    -17.869852066040039     
   6.8400000000000002E-002    -14.205152511596680     
   6.8700000000000011E-002    -10.617691040039062     
   6.8999999999999992E-002    -7.2665295600891113     
   6.9300000000000000E-002    -4.2684288024902344     
   6.9600000000000009E-002    -1.7041981220245361     
   6.9900000000000004E-002    0.38596856594085693     
   7.0199999999999999E-002     1.9959589242935181     
   7.0500000000000007E-002     3.1457901000976562     
   7.0800000000000016E-002     3.8822462558746338     
   7.1099999999999997E-002     4.2651648521423340     
   7.1400000000000005E-002     4.3633966445922852     
   7.1700000000000000E-002     4.2519216537475586     
   7.1999999999999995E-002     3.9972345829010010     
   7.2300000000000003E-002     3.6614918708801270     
   7.2600000000000012E-002     3.2956855297088623     
   7.2900000000000006E-002     2.9337804317474365     
   7.3200000000000001E-002     2.6036291122436523     
   7.3499999999999996E-002     2.3154692649841309     
   7.3800000000000004E-002     2.0726516246795654     
   7.4099999999999999E-002     1.8747652769088745     
   7.4400000000000008E-002     1.7112207412719727     
   7.4700000000000003E-002     1.5780819654464722     
   7.5000000000000011E-002     1.4672729969024658     
   7.5299999999999992E-002     1.3725805282592773     
   7.5600000000000001E-002     1.2948849201202393     
   7.5900000000000009E-002     1.2282135486602783     
   7.6200000000000004E-002     1.1745043992996216     
   7.6499999999999999E-002     1.1328108310699463     
   7.6800000000000007E-002     1.0976012945175171     
   7.7099999999999988E-002     1.0692849159240723     
   7.7399999999999997E-002     1.0387151241302490     
   7.7700000000000005E-002     1.0019145011901855     
   7.8000000000000014E-002    0.95480215549468994     
   7.8299999999999995E-002    0.88984960317611694     
   7.8600000000000003E-002    0.80993485450744629     
   7.8900000000000012E-002    0.71294355392456055     
   7.9199999999999993E-002    0.60327965021133423     
   7.9500000000000001E-002    0.48889675736427307     
   7.9800000000000010E-002    0.37317547202110291     
   8.0100000000000018E-002    0.26604601740837097     
   8.0399999999999999E-002    0.17110231518745422     
   8.0700000000000008E-002     9.0671643614768982E-002
   8.1000000000000003E-002     2.6706960052251816E-002
   8.1299999999999997E-002    -2.6111470535397530E-002
   8.1600000000000006E-002    -7.1030989289283752E-002
   8.1900000000000014E-002   -0.11430805921554565     
   8.2199999999999995E-002   -0.16325663030147552     
   8.2500000000000004E-002   -0.22037868201732635     
   8.2799999999999999E-002   -0.28908580541610718     
   8.3100000000000007E-002   -0.36856871843338013     
   8.3400000000000002E-002   -0.45398405194282532     
   8.3700000000000011E-002   -0.54115599393844604     
   8.4000000000000005E-002   -0.62185508012771606     
   8.4300000000000000E-002   -0.68901586532592773     
   8.4599999999999995E-002   -0.73791223764419556     
   8.4900000000000003E-002   -0.76312071084976196     
   8.5199999999999998E-002   -0.76448333263397217     
   8.5500000000000007E-002   -0.74387031793594360     
   8.5800000000000001E-002   -0.70392459630966187     
   8.6100000000000010E-002   -0.65214914083480835     
   8.6399999999999991E-002   -0.59335696697235107     
   8.6699999999999999E-002   -0.53335994482040405     
   8.7000000000000008E-002   -0.47827878594398499     
   8.7300000000000003E-002   -0.42837125062942505     
   8.7599999999999997E-002   -0.38684049248695374     
   8.7900000000000006E-002   -0.35205641388893127     
   8.8200000000000014E-002   -0.32065096497535706     
   8.8499999999999995E-002   -0.29287484288215637     
   8.8800000000000004E-002   -0.26340436935424805     
   8.9100000000000013E-002   -0.23229393362998962     
   8.9399999999999993E-002   -0.19950997829437256     
   8.9700000000000002E-002   -0.16362221539020538     
   9.0000000000000011E-002   -0.13001669943332672     
   9.0299999999999991E-002    -9.8164275288581848E-002
   9.0600000000000000E-002    -7.1167752146720886E-002
   9.0900000000000009E-002    -5.2535839378833771E-002
   9.1200000000000017E-002    -3.9029493927955627E-002
   9.1499999999999998E-002    -3.2724454998970032E-002
   9.1800000000000007E-002    -2.8666002675890923E-002
   9.2100000000000001E-002    -2.2143969312310219E-002
   9.2399999999999996E-002    -1.0622898116707802E-002
   9.2700000000000005E-002     1.4418633654713631E-002
   9.3000000000000013E-002     5.3389377892017365E-002
   9.3300000000000008E-002    0.10886339843273163     
   9.3600000000000003E-002    0.18056499958038330     
   9.3899999999999997E-002    0.26116997003555298     
   9.4200000000000006E-002    0.34654319286346436     
   9.4500000000000001E-002    0.42527422308921814     
   9.4800000000000009E-002    0.48730844259262085     
   9.5100000000000004E-002    0.52462893724441528     
   9.5399999999999999E-002    0.52725267410278320     
   9.5699999999999993E-002    0.49380505084991455     
   9.6000000000000002E-002    0.42391687631607056     
   9.6300000000000011E-002    0.32292780280113220     
   9.6600000000000005E-002    0.20319063961505890     
   9.6900000000000000E-002     7.6478816568851471E-002
   9.7200000000000009E-002    -4.0150627493858337E-002
   9.7499999999999989E-002   -0.13215939700603485     
   9.7799999999999998E-002   -0.18766105175018311     
   9.8100000000000007E-002   -0.19861525297164917     
   9.8400000000000015E-002   -0.16462469100952148     
   9.8699999999999996E-002    -9.1182678937911987E-002
   9.9000000000000005E-002     9.2871282249689102E-003
   9.9300000000000013E-002    0.11946943402290344     
   9.9599999999999994E-002    0.21934586763381958     
   9.9900000000000003E-002    0.29031586647033691     
  0.10020000000000001         0.31538563966751099     
  0.10049999999999999         0.28552794456481934     
  0.10080000000000000         0.19970093667507172     
  0.10110000000000001          6.4820110797882080E-002
  0.10140000000000000        -0.10052804648876190     
  0.10170000000000000        -0.27338880300521851     
  0.10200000000000001        -0.42505353689193726     
  0.10230000000000002        -0.52638667821884155     
  0.10260000000000000        -0.55441766977310181     
  0.10290000000000001        -0.49069750308990479     
  0.10320000000000000        -0.33172446489334106     
  0.10350000000000001         -8.5966281592845917E-002
  0.10380000000000000         0.22574314475059509     
  0.10410000000000001         0.56647962331771851     
  0.10440000000000001         0.89560997486114502     
  0.10470000000000000          1.1646844148635864     
  0.10500000000000000          1.3283271789550781     
  0.10530000000000000          1.3516070842742920     
  0.10560000000000000          1.2083063125610352     
  0.10590000000000001         0.89554238319396973     
  0.10620000000000000         0.42649275064468384     
  0.10650000000000001        -0.16466614603996277     
  0.10679999999999999        -0.82442069053649902     
  0.10710000000000000         -1.4918645620346069     
  0.10740000000000001         -2.0950028896331787     
  0.10770000000000000         -2.5677154064178467     
  0.10800000000000000         -2.8528954982757568     
  0.10830000000000001         -2.9076218605041504     
  0.10859999999999999         -2.7151920795440674     
  0.10890000000000000         -2.2783296108245850     
  0.10920000000000001         -1.6266436576843262     
  0.10950000000000001        -0.81090694665908813     
  0.10979999999999999         0.10469499975442886     
  0.11009999999999999          1.0420935153961182     
  0.11040000000000001          1.9264423847198486     
  0.11070000000000001          2.6853270530700684     
  0.11100000000000000          3.2593243122100830     
  0.11130000000000000          3.6093614101409912     
  0.11160000000000002          3.7115778923034668     
  0.11190000000000001          3.5687010288238525     
  0.11220000000000001          3.1993436813354492     
  0.11250000000000000          2.6396300792694092     
  0.11280000000000000          1.9400428533554077     
  0.11309999999999999          1.1530951261520386     
  0.11340000000000001         0.33905836939811707     
  0.11369999999999998        -0.44921970367431641     
  0.11400000000000000         -1.1643806695938110     
  0.11430000000000000         -1.7659398317337036     
  0.11460000000000002         -2.2303419113159180     
  0.11489999999999999         -2.5388309955596924     
  0.11520000000000001         -2.6889629364013672     
  0.11550000000000001         -2.6869049072265625     
  0.11580000000000000         -2.5442132949829102     
  0.11609999999999999         -2.2858018875122070     
  0.11640000000000002         -1.9334725141525269     
  0.11670000000000001         -1.5174372196197510     
  0.11700000000000001         -1.0672081708908081     
  0.11730000000000000        -0.60826599597930908     
  0.11760000000000000        -0.17113083600997925     
  0.11789999999999999         0.22547894716262817     
  0.11820000000000001         0.56149017810821533     
  0.11850000000000001         0.82305753231048584     
  0.11880000000000000          1.0063700675964355     
  0.11910000000000000          1.1062393188476562     
  0.11940000000000002          1.1302514076232910     
  0.11970000000000001          1.0864156484603882     
  0.12000000000000001         0.98654049634933472     
  0.12030000000000000         0.84900808334350586     
  0.12060000000000000         0.68644833564758301     
  0.12089999999999999         0.51725339889526367     
  0.12119999999999999         0.35430377721786499     
  0.12150000000000001         0.20686897635459900     
  0.12180000000000001          8.4988549351692200E-002
  0.12210000000000000         -1.0794945061206818E-002
  0.12239999999999999         -7.8488834202289581E-002
  0.12270000000000002        -0.12131455540657043     
  0.12300000000000001        -0.14469714462757111     
  0.12330000000000001        -0.15198083221912384     
  0.12360000000000000        -0.15075275301933289     
  0.12390000000000000        -0.14379522204399109     
  0.12419999999999999        -0.13481335341930389     
  0.12450000000000001        -0.12606407701969147     
  0.12480000000000001        -0.11662615090608597     
  0.12509999999999999        -0.10718224197626114     
  0.12540000000000001         -9.5793902873992920E-002
  0.12570000000000003         -8.2169704139232635E-002
  0.12600000000000000         -6.5878570079803467E-002
  0.12630000000000002         -4.6836674213409424E-002
  0.12659999999999999         -2.7044082060456276E-002
  0.12690000000000001         -7.4414778500795364E-003
  0.12719999999999998          8.9251128956675529E-003
  0.12750000000000000          2.0655957981944084E-002
  0.12780000000000002          2.6642426848411560E-002
  0.12809999999999999          2.5572154670953751E-002
  0.12840000000000001          1.9607914611697197E-002
  0.12869999999999998          8.6266221478581429E-003
  0.12900000000000000         -4.0227351710200310E-003
  0.12930000000000003         -1.5724720433354378E-002
  0.12959999999999999         -2.5455774739384651E-002
  0.12990000000000002         -2.9168022796511650E-002
  0.13019999999999998         -2.8902282938361168E-002
  0.13050000000000000         -2.3256374523043633E-002
  0.13080000000000003         -1.3810682110488415E-002
  0.13109999999999999         -4.7824387438595295E-003
  0.13140000000000002          4.7976011410355568E-003
  0.13169999999999998          9.0799871832132339E-003
  0.13200000000000001          8.3660073578357697E-003
  0.13229999999999997          2.4342848919332027E-003
  0.13260000000000000         -1.0974596254527569E-002
  0.13290000000000002         -2.5937244296073914E-002
  0.13319999999999999         -4.3518193066120148E-002
  0.13350000000000001         -5.9321410953998566E-002
  0.13380000000000003         -6.9009810686111450E-002
  0.13410000000000000         -7.4174217879772186E-002
  0.13440000000000002         -6.8532191216945648E-002
  0.13469999999999999         -5.5614843964576721E-002
  0.13500000000000001         -3.6266125738620758E-002
  0.13529999999999998         -9.8467878997325897E-003
  0.13560000000000000          1.5692818909883499E-002
  0.13590000000000002          4.2210914194583893E-002
  0.13619999999999999          6.4033202826976776E-002
  0.13650000000000001          7.8678593039512634E-002
  0.13680000000000003          8.8607199490070343E-002
  0.13710000000000000          8.9055687189102173E-002
  0.13740000000000002          8.5653692483901978E-002
  0.13769999999999999          7.8729912638664246E-002
  0.13800000000000001          6.8922966718673706E-002
  0.13829999999999998          6.2418077141046524E-002
  0.13860000000000000          5.6154869496822357E-002
  0.13890000000000002          5.3534377366304398E-002
  0.13919999999999999          5.4288104176521301E-002
  0.13950000000000001          5.4361160844564438E-002
  0.13979999999999998          5.6102938950061798E-002
  0.14010000000000000          5.3836766630411148E-002
  0.14040000000000002          4.7567185014486313E-002
  0.14069999999999999          3.7924572825431824E-002
  0.14100000000000001          2.1771211177110672E-002
  0.14130000000000004          4.1996985673904419E-003
  0.14160000000000000         -1.5026709996163845E-002
  0.14189999999999997         -3.3254779875278473E-002
  0.14219999999999999         -4.5335453003644943E-002
  0.14250000000000002         -5.2675705403089523E-002
  0.14279999999999998         -5.1078028976917267E-002
  0.14310000000000000         -4.1593644767999649E-002
  0.14339999999999997         -2.7184240520000458E-002
  0.14369999999999999         -7.2215609252452850E-003
  0.14400000000000002          1.1857777833938599E-002
  0.14429999999999998          2.8800265863537788E-002
  0.14460000000000001          4.0899641811847687E-002
  0.14490000000000003          4.4048100709915161E-002
  0.14520000000000000          4.0944136679172516E-002
  0.14550000000000002          2.9921574518084526E-002
  0.14579999999999999          1.3796129263937473E-002
  0.14610000000000001         -3.5782787017524242E-003
  0.14640000000000003         -2.1751822903752327E-002
  0.14670000000000000         -3.5767115652561188E-002
  0.14699999999999996         -4.4923745095729828E-002
  0.14729999999999999         -4.9276314675807953E-002
  0.14760000000000001         -4.7785781323909760E-002
  0.14789999999999998         -4.3884605169296265E-002
  0.14820000000000000         -3.8585931062698364E-002