  -1.4999999999999999E-002     0.0000000000000000     
  -1.4700000000000000E-002     0.0000000000000000     
  -1.4400000000000000E-002     0.0000000000000000     
  -1.4100000000000000E-002     0.0000000000000000     
  -1.3800000000000000E-002     0.0000000000000000     
  -1.3500000000000000E-002     0.0000000000000000     
  -1.3200000000000000E-002     0.0000000000000000     
  -1.2899999999999998E-002     0.0000000000000000     
  -1.2600000000000000E-002     0.0000000000000000     
  -1.2299999999999998E-002     0.0000000000000000     
  -1.2000000000000000E-002     0.0000000000000000     
  -1.1699999999999999E-002     0.0000000000000000     
  -1.1399999999999999E-002     0.0000000000000000     
  -1.1099999999999999E-002     0.0000000000000000     
  -1.0799999999999999E-002     0.0000000000000000     
  -1.0499999999999999E-002     0.0000000000000000     
  -1.0199999999999999E-002     0.0000000000000000     
  -9.8999999999999991E-003     0.0000000000000000     
  -9.5999999999999992E-003     0.0000000000000000     
  -9.2999999999999992E-003     0.0000000000000000     
  -8.9999999999999993E-003     0.0000000000000000     
  -8.6999999999999994E-003     0.0000000000000000     
  -8.3999999999999995E-003     0.0000000000000000     
  -8.0999999999999996E-003     0.0000000000000000     
  -7.7999999999999988E-003     0.0000000000000000     
  -7.4999999999999997E-003     0.0000000000000000     
  -7.1999999999999998E-003     0.0000000000000000     
  -6.8999999999999981E-003     0.0000000000000000     
  -6.5999999999999982E-003     0.0000000000000000     
  -6.3000000000000000E-003     0.0000000000000000     
  -6.0000000000000001E-003     0.0000000000000000     
  -5.6999999999999985E-003     0.0000000000000000     
  -5.3999999999999986E-003     0.0000000000000000     
  -5.1000000000000004E-003     0.0000000000000000     
  -4.7999999999999987E-003    -2.0977250573259923E-036
  -4.5000000000000005E-003     1.2080358284069835E-035
  -4.1999999999999989E-003     8.4229875516615715E-035
  -3.8999999999999990E-003    -5.5137802304517528E-034
  -3.5999999999999990E-003    -3.3702558124807496E-033
  -3.2999999999999991E-003     1.7211520693814761E-032
  -2.9999999999999992E-003     7.2823297381605206E-032
  -2.6999999999999993E-003    -3.3081890495417604E-031
  -2.3999999999999994E-003    -1.0607211512780568E-030
  -2.0999999999999977E-003     4.6209627087886702E-030
  -1.7999999999999995E-003     9.2936938126293618E-030
  -1.4999999999999979E-003    -4.9796712234392694E-029
  -1.1999999999999997E-003    -2.8414469240618899E-029
  -8.9999999999999976E-004     3.8983860228884925E-028
  -5.9999999999999810E-004    -3.8412947185820494E-028
  -2.9999999999999992E-004    -1.6426997978707324E-027
   0.0000000000000000          5.5144920986046398E-027
   3.0000000000000165E-004    -3.8881004977239952E-027
   5.9999999999999984E-004    -2.1454449742581642E-026
   9.0000000000000149E-004     8.8086673867306994E-026
   1.2000000000000031E-003    -1.3912183291535405E-025
   1.5000000000000013E-003    -1.4888345660154337E-025
   1.8000000000000030E-003     1.4778127740110088E-024
   2.1000000000000012E-003    -3.8430995884219924E-024
   2.3999999999999994E-003     2.3411811972996925E-024
   2.7000000000000010E-003     1.7581904663625207E-023
   2.9999999999999992E-003    -6.8003281018034190E-023
   3.3000000000000008E-003     1.0454360213779734E-022
   3.6000000000000025E-003     4.4842015607270437E-023
   3.9000000000000007E-003    -6.2915456345495236E-022
   4.2000000000000023E-003     1.6188860618458451E-021
   4.5000000000000005E-003    -2.0767994962697239E-021
   4.7999999999999987E-003    -2.6572763184062954E-022
   5.1000000000000004E-003     8.3005643843071325E-021
   5.4000000000000020E-003    -2.2588877580971092E-020
   5.7000000000000037E-003     3.5777054295430164E-020
   5.9999999999999984E-003    -2.7041892933138078E-020
   6.3000000000000000E-003    -3.5448156297886569E-020
   6.6000000000000017E-003     1.7400155190419799E-019
   6.9000000000000034E-003    -3.6657330856021146E-019
   7.2000000000000015E-003     5.5505214969591840E-019
   7.5000000000000032E-003    -9.1788417204434080E-019
   7.8000000000000014E-003     3.1548228089096291E-018
   8.0999999999999996E-003    -1.5341603015735247E-017
   8.4000000000000012E-003     6.9466191090839836E-017
   8.7000000000000029E-003    -2.8536129711413552E-016
   9.0000000000000011E-003     1.1079064953935344E-015
   9.2999999999999992E-003    -4.1848615671164369E-015
   9.6000000000000009E-003     1.5468181951776815E-014
   9.8999999999999991E-003    -5.4910879310329438E-014
   1.0200000000000001E-002     1.7912526930480288E-013
   1.0500000000000002E-002    -4.9315033393698693E-013
   1.0800000000000004E-002     9.0534605637002108E-013
   1.1099999999999999E-002     5.0527615945428206E-013
   1.1400000000000000E-002    -1.3494206620168203E-011
   1.1700000000000002E-002     6.7154858063300793E-011
   1.2000000000000004E-002    -1.9829131392423704E-010
   1.2300000000000002E-002     2.9016333780162995E-010
   1.2600000000000000E-002     4.0247691290851151E-010
   1.2900000000000002E-002    -3.3736167193154643E-009
   1.3200000000000000E-002     7.4295929408663142E-009
   1.3500000000000002E-002     3.2956970485997772E-010
   1.3800000000000003E-002    -3.8537027791107903E-008
   1.4100000000000001E-002     6.4201806537766970E-008
   1.4400000000000000E-002     7.5898412887909217E-008
   1.4700000000000001E-002    -3.2004572858568281E-007
   1.4999999999999999E-002    -1.0174774445204093E-007
   1.5300000000000001E-002     1.0435816193421488E-006
   1.5600000000000003E-002     4.5003193349657522E-007
   1.5899999999999997E-002    -2.9632064979523420E-006
   1.6199999999999999E-002    -3.2625350741000148E-006
   1.6500000000000001E-002     8.9736058725975454E-006
   1.6800000000000002E-002     3.7847614294150844E-005
   1.7100000000000004E-002     8.0192105087917298E-005
   1.7400000000000006E-002     1.3237820530775934E-004
   1.7700000000000000E-002     1.9924031221307814E-004
   1.8000000000000002E-002     3.0056969262659550E-004
   1.8300000000000004E-002     4.6809972263872623E-004
   1.8600000000000005E-002     7.3443795554339886E-004
   1.8900000000000000E-002     1.1325608938932419E-003
   1.9200000000000002E-002     1.7119697295129299E-003
   1.9500000000000003E-002     2.5521919596940279E-003
   1.9799999999999998E-002     3.7634696345776320E-003
   2.0100000000000000E-002     5.4872059263288975E-003
   2.0400000000000001E-002     7.8994063660502434E-003
   2.0700000000000003E-002     1.1211195960640907E-002
   2.0999999999999998E-002     1.5673426911234856E-002
   2.1299999999999999E-002     2.1581372246146202E-002
   2.1600000000000001E-002     2.9266797006130219E-002
   2.1900000000000003E-002     3.9076659828424454E-002
   2.2200000000000004E-002     5.1342420279979706E-002
   2.2500000000000006E-002     6.6342487931251526E-002
   2.2800000000000001E-002     8.4250621497631073E-002
   2.3100000000000002E-002    0.10506889969110489     
   2.3400000000000004E-002    0.12854489684104919     
   2.3699999999999999E-002    0.15407674014568329     
   2.4000000000000000E-002    0.18062692880630493     
   2.4300000000000002E-002    0.20664592087268829     
   2.4599999999999997E-002    0.23001872003078461     
   2.4900000000000005E-002    0.24803562462329865     
   2.5200000000000000E-002    0.25743246078491211     
   2.5499999999999995E-002    0.25449761748313904     
   2.5800000000000003E-002    0.23525556921958923     
   2.6099999999999998E-002    0.19575728476047516     
   2.6400000000000007E-002    0.13241603970527649     
   2.6700000000000002E-002     4.2471908032894135E-002
   2.6999999999999996E-002    -7.5543239712715149E-002
   2.7300000000000005E-002   -0.22136098146438599     
   2.7600000000000000E-002   -0.39252817630767822     
   2.7900000000000008E-002   -0.58411002159118652     
   2.8200000000000003E-002   -0.78853130340576172     
   2.8499999999999998E-002   -0.99567753076553345     
   2.8800000000000006E-002    -1.1932436227798462     
   2.9100000000000001E-002    -1.3673309087753296     
   2.9400000000000003E-002    -1.5033197402954102     
   2.9700000000000004E-002    -1.5869376659393311     
   3.0000000000000006E-002    -1.6054959297180176     
   3.0300000000000001E-002    -1.5491235256195068     
   3.0600000000000002E-002    -1.4118914604187012     
   3.0900000000000004E-002    -1.1927492618560791     
   3.1199999999999999E-002   -0.89603513479232788     
   3.1500000000000007E-002   -0.53172975778579712     
   3.1800000000000002E-002   -0.11505131423473358     
   3.2099999999999997E-002    0.33436799049377441     
   3.2400000000000005E-002    0.79365974664688110     
   3.2700000000000000E-002     1.2383812665939331     
   3.3000000000000002E-002     1.6442654132843018     
   3.3300000000000003E-002     1.9890059232711792     
   3.3599999999999998E-002     2.2540054321289062     
   3.3900000000000000E-002     2.4256684780120850     
   3.4200000000000001E-002     2.4963510036468506     
   3.4500000000000003E-002     2.4649751186370850     
   3.4799999999999998E-002     2.3367197513580322     
   3.5099999999999999E-002     2.1225926876068115     
   3.5400000000000001E-002     1.8383344411849976     
   3.5699999999999996E-002     1.5030393600463867     
   3.6000000000000004E-002     1.1376975774765015     
   3.6299999999999999E-002    0.76344007253646851     
   3.6600000000000008E-002    0.40030103921890259     
   3.6900000000000002E-002     6.5800234675407410E-002
   3.7199999999999997E-002   -0.22599232196807861     
   3.7500000000000006E-002   -0.46489724516868591     
   3.7800000000000000E-002   -0.64503628015518188     
   3.8100000000000009E-002   -0.76456505060195923     
   3.8400000000000004E-002   -0.82534444332122803     
   3.8699999999999998E-002   -0.83230471611022949     
   3.9000000000000007E-002   -0.79278278350830078     
   3.9300000000000002E-002   -0.71574968099594116     
   3.9600000000000003E-002   -0.61116522550582886     
   3.9900000000000005E-002   -0.48932361602783203     
   4.0200000000000000E-002   -0.36043551564216614     
   4.0500000000000001E-002   -0.23442338407039642     
   4.0800000000000003E-002   -0.12053646892309189     
   4.1100000000000005E-002    -2.7505673468112946E-002
   4.1399999999999999E-002     3.6667119711637497E-002
   4.1700000000000008E-002     6.4875140786170959E-002
   4.2000000000000003E-002     5.0779446959495544E-002
   4.2299999999999997E-002    -1.0529519058763981E-002
   4.2600000000000006E-002   -0.12242146581411362     
   4.2900000000000001E-002   -0.28623041510581970     
   4.3200000000000002E-002   -0.50046133995056152     
   4.3500000000000004E-002   -0.76062494516372681     
   4.3799999999999999E-002    -1.0584267377853394     
   4.4100000000000000E-002    -1.3817222118377686     
   4.4400000000000002E-002    -1.7146593332290649     
   4.4700000000000004E-002    -2.0377535820007324     
   4.4999999999999998E-002    -2.3291423320770264     
   4.5300000000000000E-002    -2.5653715133666992     
   4.5600000000000002E-002    -2.7229151725769043     
   4.5899999999999996E-002    -2.7802064418792725     
   4.6200000000000005E-002    -2.7189607620239258     
   4.6500000000000000E-002    -2.5264234542846680     
   4.6799999999999994E-002    -2.1967802047729492     
   4.7100000000000003E-002    -1.7320019006729126     
   4.7399999999999998E-002    -1.1428248882293701     
   4.7700000000000006E-002   -0.44834461808204651     
   4.8000000000000001E-002    0.32450371980667114     
   4.8300000000000010E-002     1.1419463157653809     
   4.8600000000000004E-002     1.9660474061965942     
   4.8899999999999999E-002     2.7562279701232910     
   4.9200000000000008E-002     3.4722318649291992     
   4.9500000000000002E-002     4.0770354270935059     
   4.9800000000000011E-002     4.5388197898864746     
   5.0100000000000006E-002     4.8336544036865234     
   5.0400000000000000E-002     4.9466757774353027     
   5.0700000000000009E-002     4.8732414245605469     
   5.1000000000000004E-002     4.6193108558654785     
   5.1299999999999998E-002     4.2004356384277344     
   5.1600000000000007E-002     3.6409392356872559     
   5.1900000000000002E-002     2.9716978073120117     
   5.2200000000000010E-002     2.2278099060058594     
   5.2500000000000005E-002     1.4459705352783203     
   5.2800000000000000E-002    0.66152274608612061     
   5.3099999999999994E-002    -9.3848615884780884E-002
   5.3400000000000003E-002   -0.79429292678833008     
   5.3699999999999998E-002    -1.4216099977493286     
   5.4000000000000006E-002    -1.9653348922729492     
   5.4300000000000001E-002    -2.4234881401062012     
   5.4599999999999996E-002    -2.8010010719299316     
   5.4900000000000004E-002    -3.1084587574005127     
   5.5199999999999999E-002    -3.3600783348083496     
   5.5499999999999994E-002    -3.5706245899200439     
   5.5800000000000002E-002    -3.7533924579620361     
   5.6099999999999997E-002    -3.9173824787139893     
   5.6400000000000006E-002    -4.0654945373535156     
   5.6700000000000000E-002    -4.1936573982238770     
   5.6999999999999995E-002    -4.2901110649108887     
   5.7300000000000004E-002    -4.3366093635559082     
   5.7599999999999998E-002    -4.3100442886352539     
   5.7900000000000007E-002    -4.1846499443054199     
   5.8200000000000002E-002    -3.9356255531311035     
   5.8499999999999996E-002    -3.5419390201568604     
   5.8800000000000005E-002    -2.9899263381958008     
   5.9100000000000000E-002    -2.2758626937866211     
   5.9400000000000008E-002    -1.4082382917404175     
   5.9700000000000003E-002   -0.40822783112525940     
   6.0000000000000012E-002    0.69024014472961426     
   6.0300000000000006E-002     1.8419452905654907     
   6.0600000000000001E-002     2.9935379028320312     
   6.0900000000000010E-002     4.0859227180480957     
   6.1200000000000004E-002     5.0593023300170898     
   6.1500000000000013E-002     5.8570742607116699     
   6.1800000000000008E-002     6.4293236732482910     
   6.2100000000000002E-002     6.7380137443542480     
   6.2399999999999997E-002     6.7581448554992676     
   6.2700000000000006E-002     6.4809088706970215     
   6.3000000000000000E-002     5.9144921302795410     
   6.3300000000000009E-002     5.0827040672302246     
   6.3600000000000004E-002     4.0256557464599609     
   6.3899999999999998E-002     2.7956461906433105     
   6.4199999999999993E-002     1.4552547931671143     
   6.4500000000000002E-002     7.4223347008228302E-002
   6.4800000000000010E-002    -1.2758984565734863     
   6.5100000000000005E-002    -2.5238471031188965     
   6.5400000000000000E-002    -3.6043143272399902     
   6.5700000000000008E-002    -4.4607086181640625     
   6.5999999999999989E-002    -5.0484056472778320     
   6.6299999999999998E-002    -5.3382272720336914     
   6.6600000000000006E-002    -5.3171300888061523     
   6.6900000000000001E-002    -4.9899635314941406     
   6.7199999999999996E-002    -4.3793835639953613     
   6.7500000000000004E-002    -3.5243031978607178     
   6.7800000000000013E-002    -2.4785249233245850     
   6.8099999999999994E-002    -1.3071815967559814     
   6.8400000000000002E-002    -8.3198264241218567E-002
   6.8700000000000011E-002     1.1170399188995361     
   6.8999999999999992E-002     2.2187514305114746     
   6.9300000000000000E-002     3.1530189514160156     
   6.9600000000000009E-002     3.8613159656524658     
   6.9900000000000004E-002     4.2996659278869629     
   7.0199999999999999E-002     4.4413185119628906     
   7.0500000000000007E-002     4.2789206504821777     
   7.0800000000000016E-002     3.8254868984222412     
   7.1099999999999997E-002     3.1133093833923340     
   7.1400000000000005E-002     2.1927683353424072     
   7.1700000000000000E-002     1.1291167736053467     
   7.1999999999999995E-002    -2.0934976637363434E-003
   7.2300000000000003E-002    -1.1191668510437012     
   7.2600000000000012E-002    -2.1407415866851807     
   7.2900000000000006E-002    -2.9911379814147949     
   7.3200000000000001E-002    -3.6056625843048096     
   7.3499999999999996E-002    -3.9366292953491211     
   7.3800000000000004E-002    -3.9562044143676758     
   7.4099999999999999E-002    -3.6596844196319580     
   7.4400000000000008E-002    -3.0668308734893799     
   7.4700000000000003E-002    -2.2198154926300049     
   7.5000000000000011E-002    -1.1819653511047363     
   7.5299999999999992E-002    -3.1695768237113953E-002
   7.5600000000000001E-002     1.1428846120834351     
   7.5900000000000009E-002     2.2503383159637451     
   7.6200000000000004E-002     3.2047867774963379     
   7.6499999999999999E-002     3.9316279888153076     
   7.6800000000000007E-002     4.3752346038818359     
   7.7099999999999988E-002     4.5032730102539062     
   7.7399999999999997E-002     4.3087391853332520     
   7.7700000000000005E-002     3.8122336864471436     
   7.8000000000000014E-002     3.0582540035247803     
   7.8299999999999995E-002     2.1117846965789795     
   7.8600000000000003E-002     1.0527198314666748     
   7.8900000000000012E-002    -3.2996736466884613E-002
   7.9199999999999993E-002    -1.0593241453170776     
   7.9500000000000001E-002    -1.9497082233428955     
   7.9800000000000010E-002    -2.6432189941406250     
   8.0100000000000018E-002    -3.0985779762268066     
   8.0399999999999999E-002    -3.2992162704467773     
   8.0700000000000008E-002    -3.2515270709991455     
   8.1000000000000003E-002    -2.9846270084381104     
   8.1299999999999997E-002    -2.5462005138397217     
   8.1600000000000006E-002    -1.9953143596649170     
   8.1900000000000014E-002    -1.3982899188995361     
   8.2199999999999995E-002   -0.81977194547653198     
   8.2500000000000004E-002   -0.31735599040985107     
   8.2799999999999999E-002     6.3092410564422607E-002
   8.3100000000000007E-002    0.29241916537284851     
   8.3400000000000002E-002    0.35778445005416870     
   8.3700000000000011E-002    0.26365622878074646     
   8.4000000000000005E-002     2.9328297823667526E-002
   8.4300000000000000E-002   -0.31531947851181030     
   8.4599999999999995E-002   -0.73304849863052368     
   8.4900000000000003E-002    -1.1848310232162476     
   8.5199999999999998E-002    -1.6336933374404907     
   8.5500000000000007E-002    -2.0480525493621826     
   8.5800000000000001E-002    -2.4045815467834473     
   8.6100000000000010E-002    -2.6886720657348633     
   8.6399999999999991E-002    -2.8942923545837402     
   8.6699999999999999E-002    -3.0228433609008789     
   8.7000000000000008E-002    -3.0807154178619385     
   8.7300000000000003E-002    -3.0769641399383545     
   8.7599999999999997E-002    -3.0212500095367432     
   8.7900000000000006E-002    -2.9208180904388428     
   8.8200000000000014E-002    -2.7799596786499023     
   8.8499999999999995E-002    -2.5991234779357910     
   8.8800000000000004E-002    -2.3749444484710693     
   8.9100000000000013E-002    -2.1021010875701904     
   8.9399999999999993E-002    -1.7732504606246948     
   8.9700000000000002E-002    -1.3824754953384399     
   9.0000000000000011E-002   -0.92633366584777832     
   9.0299999999999991E-002   -0.40409120917320251     
   9.0600000000000000E-002    0.17900884151458740     
   9.0900000000000009E-002    0.81401085853576660     
   9.1200000000000017E-002     1.4877593517303467     
   9.1499999999999998E-002     2.1830000877380371     
   9.1800000000000007E-002     2.8828563690185547     
   9.2100000000000001E-002     3.5690054893493652     
   9.2399999999999996E-002     4.2257213592529297     
   9.2700000000000005E-002     4.8411598205566406     
   9.3000000000000013E-002     5.4060068130493164     
   9.3300000000000008E-002     5.9169096946716309     
   9.3600000000000003E-002     6.3726563453674316     
   9.3899999999999997E-002     6.7746834754943848     
   9.4200000000000006E-002     7.1257967948913574     
   9.4500000000000001E-002     7.4256215095520020     
   9.4800000000000009E-002     7.6722750663757324     
   9.5100000000000004E-002     7.8578367233276367     
   9.5399999999999999E-002     7.9688725471496582     
   9.5699999999999993E-002     7.9873681068420410     
   9.6000000000000002E-002     7.8891253471374512     
   9.6300000000000011E-002     7.6485548019409180     
   9.6600000000000005E-002     7.2388548851013184     
   9.6900000000000000E-002     6.6357874870300293     
   9.7200000000000009E-002     5.8218140602111816     
   9.7499999999999989E-002     4.7865343093872070     
   9.7799999999999998E-002     3.5313682556152344     
   9.8100000000000007E-002     2.0696051120758057     
   9.8400000000000015E-002    0.42716273665428162     
   9.8699999999999996E-002    -1.3579251766204834     
   9.9000000000000005E-002    -3.2365403175354004     
   9.9300000000000013E-002    -5.1517343521118164     
   9.9599999999999994E-002    -7.0407447814941406     
   9.9900000000000003E-002    -8.8388118743896484     
  0.10020000000000001         -10.482379913330078     
  0.10049999999999999         -11.911462783813477     
  0.10080000000000000         -13.073099136352539     
  0.10110000000000001         -13.922926902770996     
  0.10140000000000000         -14.427329063415527     
  0.10170000000000000         -14.563583374023438     
  0.10200000000000001         -14.320593833923340     
  0.10230000000000002         -13.699197769165039     
  0.10260000000000000         -12.711294174194336     
  0.10290000000000001         -11.379394531250000     
  0.10320000000000000         -9.7365198135375977     
  0.10350000000000001         -7.8251099586486816     
  0.10380000000000000         -5.6956577301025391     
  0.10410000000000001         -3.4078810214996338     
  0.10440000000000001         -1.0273938179016113     
  0.10470000000000000          1.3741667270660400     
  0.10500000000000000          3.7201871871948242     
  0.10530000000000000          5.9332604408264160     
  0.10560000000000000          7.9347629547119141     
  0.10590000000000001          9.6510028839111328     
  0.10620000000000000          11.014505386352539     
  0.10650000000000001          11.967957496643066     
  0.10679999999999999          12.470021247863770     
  0.10710000000000000          12.494580268859863     
  0.10740000000000001          12.037588119506836     
  0.10770000000000000          11.116864204406738     
  0.10800000000000000          9.7715759277343750     
  0.10830000000000001          8.0643644332885742     
  0.10859999999999999          6.0756435394287109     
  0.10890000000000000          3.9024558067321777     
  0.10920000000000001          1.6527098417282104     
  0.10950000000000001        -0.56181538105010986     
  0.10979999999999999         -2.6290366649627686     
  0.11009999999999999         -4.4459586143493652     
  0.11040000000000001         -5.9229249954223633     
  0.11070000000000001         -6.9889588356018066     
  0.11100000000000000         -7.5979208946228027     
  0.11130000000000000         -7.7281665802001953     
  0.11160000000000002         -7.3870391845703125     
  0.11190000000000001         -6.6086483001708984     
  0.11220000000000001         -5.4517312049865723     
  0.11250000000000000         -3.9976875782012939     
  0.11280000000000000         -2.3433485031127930     
  0.11309999999999999        -0.59720873832702637     
  0.11340000000000001          1.1286078691482544     
  0.11369999999999998          2.7250270843505859     
  0.11400000000000000          4.0918383598327637     
  0.11430000000000000          5.1460599899291992     
  0.11460000000000002          5.8252654075622559     
  0.11489999999999999          6.0926132202148438     
  0.11520000000000001          5.9399218559265137     
  0.11550000000000001          5.3861622810363770     
  0.11580000000000000          4.4784116744995117     
  0.11609999999999999          3.2873525619506836     
  0.11640000000000002          1.9021831750869751     
  0.11670000000000001         0.42574441432952881     
  0.11700000000000001         -1.0348069667816162     
  0.11730000000000000         -2.3733136653900146     
  0.11760000000000000         -3.4937562942504883     
  0.11789999999999999         -4.3172631263732910     
  0.11820000000000001         -4.7861838340759277     
  0.11850000000000001         -4.8707804679870605     
  0.11880000000000000         -4.5695137977600098     
  0.11910000000000000         -3.9094195365905762     
  0.11940000000000002         -2.9453415870666504     
  0.11970000000000001         -1.7534588575363159     
  0.12000000000000001        -0.42741176486015320     
  0.12030000000000000         0.92999541759490967     
  0.12060000000000000          2.2152910232543945     
  0.12089999999999999          3.3308134078979492     
  0.12119999999999999          4.1952581405639648     
  0.12150000000000001          4.7473239898681641     
  0.12180000000000001          4.9519500732421875     
  0.12210000000000000          4.8036646842956543     
  0.12239999999999999          4.3243861198425293     
  0.12270000000000002          3.5640101432800293     
  0.12300000000000001          2.5937995910644531     
  0.12330000000000001          1.5000442266464233     
  0.12360000000000000         0.37797188758850098     
  0.12390000000000000        -0.67934370040893555     
  0.12419999999999999         -1.5874602794647217     
  0.12450000000000001         -2.2787320613861084     
  0.12480000000000001         -2.7088544368743896     
  0.12509999999999999         -2.8584666252136230     
  0.12540000000000001         -2.7374155521392822     
  0.12570000000000003         -2.3806459903717041     
  0.12600000000000000         -1.8448421955108643     
  0.12630000000000002         -1.2038115262985229     
  0.12659999999999999        -0.53779053688049316     
  0.12690000000000001          7.2077646851539612E-002
  0.12719999999999998         0.55371481180191040     
  0.12750000000000000         0.85178011655807495     
  0.12780000000000002         0.93093621730804443     
  0.12809999999999999         0.78193533420562744     
  0.12840000000000001         0.42006680369377136     
  0.12869999999999998        -0.11708523333072662     
  0.12900000000000000        -0.77245670557022095     
  0.12930000000000003         -1.4794111251831055     
  0.12959999999999999         -2.1665198802947998     
  0.12990000000000002         -2.7666604518890381     
  0.13019999999999998         -3.2257871627807617     
  0.13050000000000000         -3.5048849582672119     
  0.13080000000000003         -3.5872426033020020     
  0.13109999999999999         -3.4772489070892334     
  0.13140000000000002         -3.1982424259185791     
  0.13169999999999998         -2.7908947467803955     
  0.13200000000000001         -2.3040428161621094     
  0.13229999999999997         -1.7908768653869629     
  0.13260000000000000         -1.3020402193069458     
  0.13290000000000002        -0.87755310535430908     
  0.13319999999999999        -0.54569762945175171     
  0.13350000000000001        -0.31834274530410767     
  0.13380000000000003        -0.19151286780834198     
  0.13410000000000000        -0.14872856438159943     
  0.13440000000000002        -0.16179871559143066     
  0.13469999999999999        -0.19828569889068604     
  0.13500000000000001        -0.22522804141044617     
  0.13529999999999998        -0.21257376670837402     
  0.13560000000000000        -0.13962458074092865     
  0.13590000000000002          5.3572794422507286E-003
  0.13619999999999999         0.22326172888278961     
  0.13650000000000001         0.50393128395080566     
  0.13680000000000003         0.83125591278076172     
  0.13710000000000000          1.1825779676437378     
  0.13740000000000002          1.5338214635848999     
  0.13769999999999999          1.8636758327484131     
  0.13800000000000001          2.1530849933624268     
  0.13829999999999998          2.3905336856842041     
  0.13860000000000000          2.5701749324798584     
  0.13890000000000002          2.6920886039733887     
  0.13919999999999999          2.7633495330810547     
  0.13950000000000001          2.7923452854156494     
  0.13979999999999998          2.7907414436340332     
  0.14010000000000000          2.7700655460357666     
  0.14040000000000002          2.7387094497680664     
  0.14069999999999999          2.7048060894012451     
  0.14100000000000001          2.6711511611938477     
  0.14130000000000004          2.6381454467773438     
  0.14160000000000000          2.6042301654815674     
  0.14189999999999997          2.5639722347259521     
  0.14219999999999999          2.5130712985992432     
  0.14250000000000002          2.4449238777160645     
  0.14279999999999998          2.3538200855255127     
  0.14310000000000000          2.2360215187072754     
  0.14339999999999997          2.0868098735809326     
  0.14369999999999999          1.9052779674530029     
  0.14400000000000002          1.6910237073898315     
  0.14429999999999998          1.4446758031845093     
  0.14460000000000001          1.1702032089233398     
  0.14490000000000003         0.87078619003295898     
  0.14520000000000000         0.55228406190872192     
  0.14550000000000002         0.22057369351387024     
  0.14579999999999999        -0.11959509551525116     
  0.14610000000000001        -0.46154367923736572     
  0.14640000000000003        -0.80204880237579346     
  0.14670000000000000         -1.1383482217788696     
  0.14699999999999996         -1.4683611392974854     
  0.14729999999999999         -1.7937864065170288     
  0.14760000000000001         -2.1146996021270752     
  0.14789999999999998         -2.4324958324432373     
  0.14820000000000000         -2.7481007575988770     