  -1.4999999999999999E-002     0.0000000000000000     
  -1.4700000000000000E-002     0.0000000000000000     
  -1.4400000000000000E-002     0.0000000000000000     
  -1.4100000000000000E-002     0.0000000000000000     
  -1.3800000000000000E-002     0.0000000000000000     
  -1.3500000000000000E-002     0.0000000000000000     
  -1.3200000000000000E-002     0.0000000000000000     
  -1.2899999999999998E-002     0.0000000000000000     
  -1.2600000000000000E-002     0.0000000000000000     
  -1.2299999999999998E-002     0.0000000000000000     
  -1.2000000000000000E-002     0.0000000000000000     
  -1.1699999999999999E-002     0.0000000000000000     
  -1.1399999999999999E-002     0.0000000000000000     
  -1.1099999999999999E-002     0.0000000000000000     
  -1.0799999999999999E-002     0.0000000000000000     
  -1.0499999999999999E-002     0.0000000000000000     
  -1.0199999999999999E-002     0.0000000000000000     
  -9.8999999999999991E-003     0.0000000000000000     
  -9.5999999999999992E-003     0.0000000000000000     
  -9.2999999999999992E-003     0.0000000000000000     
  -8.9999999999999993E-003     0.0000000000000000     
  -8.6999999999999994E-003     0.0000000000000000     
  -8.3999999999999995E-003     0.0000000000000000     
  -8.0999999999999996E-003     0.0000000000000000     
  -7.7999999999999988E-003     0.0000000000000000     
  -7.4999999999999997E-003     0.0000000000000000     
  -7.1999999999999998E-003     0.0000000000000000     
  -6.8999999999999981E-003    -2.1903353257997149E-037
  -6.5999999999999982E-003    -6.7813784092723682E-036
  -6.3000000000000000E-003    -3.9365520756581838E-035
  -6.0000000000000001E-003     6.6949275152400455E-034
  -5.6999999999999985E-003     3.8773515857980069E-033
  -5.3999999999999986E-003    -2.5376157683792878E-032
  -5.1000000000000004E-003    -9.2003433158421438E-032
  -4.7999999999999987E-003     6.1018844402314398E-031
  -4.5000000000000005E-003     1.3359690780146236E-030
  -4.1999999999999989E-003    -1.1908182832587030E-029
  -3.8999999999999990E-003    -9.2884042761297576E-030
  -3.5999999999999990E-003     1.8171694304209075E-028
  -3.2999999999999991E-003    -7.7633261056215131E-029
  -2.9999999999999992E-003    -1.9938314934715244E-027
  -2.6999999999999993E-003     2.9933484974866733E-027
  -2.3999999999999994E-003     1.4275964957234119E-026
  -2.0999999999999977E-003    -4.0866815935458076E-026
  -1.7999999999999995E-003    -4.7391499889980620E-026
  -1.4999999999999979E-003     3.2935776027308383E-025
  -1.1999999999999997E-003    -2.3663194333359179E-025
  -8.9999999999999976E-004    -1.4163601150638393E-024
  -5.9999999999999810E-004     3.9594127901618518E-024
  -2.9999999999999992E-004    -9.3104736414553633E-025
   0.0000000000000000         -1.8596783684522902E-023
   3.0000000000000165E-004     5.1100099655486658E-023
   5.9999999999999984E-004    -3.1685431295317853E-023
   9.0000000000000149E-004    -2.0367539127383783E-022
   1.2000000000000031E-003     7.6403175435378289E-022
   1.5000000000000013E-003    -1.0703777710953699E-021
   1.8000000000000030E-003    -1.0318128984157858E-021
   2.1000000000000012E-003     8.5643364488963809E-021
   2.3999999999999994E-003    -1.9876377868999254E-020
   2.7000000000000010E-003     1.8026113779211646E-020
   2.9999999999999992E-003     3.4791846642962562E-020
   3.3000000000000008E-003    -1.7556719800860774E-019
   3.6000000000000025E-003     3.7159708661297570E-019
   3.9000000000000007E-003    -4.1793933759398209E-019
   4.2000000000000023E-003    -1.1538313930168627E-019
   4.5000000000000005E-003     1.7140043593911554E-018
   4.7999999999999987E-003    -4.3026899712160430E-018
   5.1000000000000004E-003     6.0333974853189051E-018
   5.4000000000000020E-003    -1.6066523425061406E-018
   5.7000000000000037E-003    -1.9289426713901753E-017
   5.9999999999999984E-003     7.2278386797838416E-017
   6.3000000000000000E-003    -1.7563593444276421E-016
   6.6000000000000017E-003     3.4355486934044971E-016
   6.9000000000000034E-003    -5.8258820233032371E-016
   7.2000000000000015E-003     9.3808665974353268E-016
   7.5000000000000032E-003    -1.7475242613921877E-015
   7.8000000000000014E-003     4.2960494645201408E-015
   8.0999999999999996E-003    -1.0342887231894714E-014
   8.4000000000000012E-003     6.0043920993547127E-015
   8.7000000000000029E-003     1.4601949478113690E-013
   9.0000000000000011E-003    -1.1867553380978668E-012
   9.2999999999999992E-003     5.9734691151835939E-012
   9.6000000000000009E-003    -2.2103048558097527E-011
   9.8999999999999991E-003     5.8058315099973612E-011
   1.0200000000000001E-002    -7.6828411688101284E-011
   1.0500000000000002E-002    -1.6209461550786841E-010
   1.0800000000000004E-002     1.2652104919297358E-009
   1.1099999999999999E-002    -3.3645617403266215E-009
   1.1400000000000000E-002     2.3595938536402628E-009
   1.1700000000000002E-002     1.3194616954592675E-008
   1.2000000000000004E-002    -4.2145337886267953E-008
   1.2300000000000002E-002     1.5522093832487371E-008
   1.2600000000000000E-002     1.5850800139105559E-007
   1.2900000000000002E-002    -2.3482175492972601E-007
   1.3200000000000000E-002    -4.2244482756359503E-007
   1.3500000000000002E-002     9.1158591430939850E-007
   1.3800000000000003E-002     1.3194377288527903E-006
   1.4100000000000001E-002    -2.4281548576254863E-006
   1.4400000000000000E-002    -5.2443292588577606E-006
   1.4700000000000001E-002     4.8892634367803112E-006
   1.4999999999999999E-002     3.3566062484169379E-005
   1.5300000000000001E-002     7.7044991485308856E-005
   1.5600000000000003E-002     1.3532914454117417E-004
   1.5899999999999997E-002     2.1713883324991912E-004
   1.6199999999999999E-002     3.3475912641733885E-004
   1.6500000000000001E-002     5.0808262312784791E-004
   1.6800000000000002E-002     7.7279296237975359E-004
   1.7100000000000004E-002     1.1805352987721562E-003
   1.7400000000000006E-002     1.7982491990551353E-003
   1.7700000000000000E-002     2.7125172782689333E-003
   1.8000000000000002E-002     4.0338304825127125E-003
   1.8300000000000004E-002     5.9050945565104485E-003
   1.8600000000000005E-002     8.5166506469249725E-003
   1.8900000000000000E-002     1.2110650539398193E-002
   1.9200000000000002E-002     1.6976440325379372E-002
   1.9500000000000003E-002     2.3449964821338654E-002
   1.9799999999999998E-002     3.1906466931104660E-002
   2.0100000000000000E-002     4.2735494673252106E-002
   2.0400000000000001E-002     5.6309454143047333E-002
   2.0700000000000003E-002     7.2953142225742340E-002
   2.0999999999999998E-002     9.2885464429855347E-002
   2.1299999999999999E-002    0.11612369120121002     
   2.1600000000000001E-002    0.14239038527011871     
   2.1900000000000003E-002    0.17102144658565521     
   2.2200000000000004E-002    0.20086048543453217     
   2.2500000000000006E-002    0.23015441000461578     
   2.2800000000000001E-002    0.25647810101509094     
   2.3100000000000002E-002    0.27672910690307617     
   2.3400000000000004E-002    0.28715902566909790     
   2.3699999999999999E-002    0.28348404169082642     
   2.4000000000000000E-002    0.26109933853149414     
   2.4300000000000002E-002    0.21538591384887695     
   2.4599999999999997E-002    0.14218480885028839     
   2.4900000000000005E-002     3.8223743438720703E-002
   2.5200000000000000E-002    -9.8246984183788300E-002
   2.5499999999999995E-002   -0.26695895195007324     
   2.5800000000000003E-002   -0.46509596705436707     
   2.6099999999999998E-002   -0.68690913915634155     
   2.6400000000000007E-002   -0.92362546920776367     
   2.6700000000000002E-002    -1.1634331941604614     
   2.6999999999999996E-002    -1.3919769525527954     
   2.7300000000000005E-002    -1.5929980278015137     
   2.7600000000000000E-002    -1.7493935823440552     
   2.7900000000000008E-002    -1.8445397615432739     
   2.8200000000000003E-002    -1.8636265993118286     
   2.8499999999999998E-002    -1.7951738834381104     
   2.8800000000000006E-002    -1.6323331594467163     
   2.9100000000000001E-002    -1.3739775419235229     
   2.9400000000000003E-002    -1.0254073143005371     
   2.9700000000000004E-002   -0.59833556413650513     
   3.0000000000000006E-002   -0.11073028296232224     
   3.0300000000000001E-002    0.41444721817970276     
   3.0600000000000002E-002    0.95054626464843750     
   3.0900000000000004E-002     1.4691430330276489     
   3.1199999999999999E-002     1.9422168731689453     
   3.1500000000000007E-002     2.3440189361572266     
   3.1800000000000002E-002     2.6532487869262695     
   3.2099999999999997E-002     2.8546500205993652     
   3.2400000000000005E-002     2.9397768974304199     
   3.2700000000000000E-002     2.9079058170318604     
   3.3000000000000002E-002     2.7654352188110352     
   3.3300000000000003E-002     2.5254848003387451     
   3.3599999999999998E-002     2.2065613269805908     
   3.3900000000000000E-002     1.8308025598526001     
   3.4200000000000001E-002     1.4224934577941895     
   3.4500000000000003E-002     1.0057829618453979     
   3.4799999999999998E-002    0.60347217321395874     
   3.5099999999999999E-002    0.23523169755935669     
   3.5400000000000001E-002    -8.3311751484870911E-002
   3.5699999999999996E-002   -0.34124666452407837     
   3.6000000000000004E-002   -0.53279936313629150     
   3.6299999999999999E-002   -0.65696394443511963     
   3.6600000000000008E-002   -0.71729636192321777     
   3.6900000000000002E-002   -0.72106188535690308     
   3.7199999999999997E-002   -0.67850482463836670     
   3.7500000000000006E-002   -0.60232859849929810     
   3.7800000000000000E-002   -0.50630211830139160     
   3.8100000000000009E-002   -0.40536981821060181     
   3.8400000000000004E-002   -0.31416627764701843     
   3.8699999999999998E-002   -0.24695520102977753     
   3.9000000000000007E-002   -0.21702580153942108     
   3.9300000000000002E-002   -0.23579913377761841     
   3.9600000000000003E-002   -0.31296104192733765     
   3.9900000000000005E-002   -0.45495823025703430     
   4.0200000000000000E-002   -0.66491425037384033     
   4.0500000000000001E-002   -0.94163382053375244     
   4.0800000000000003E-002    -1.2789516448974609     
   4.1100000000000005E-002    -1.6653184890747070     
   4.1399999999999999E-002    -2.0834095478057861     
   4.1700000000000008E-002    -2.5104820728302002     
   4.2000000000000003E-002    -2.9188039302825928     
   4.2299999999999997E-002    -3.2771618366241455     
   4.2600000000000006E-002    -3.5523667335510254     
   4.2900000000000001E-002    -3.7116940021514893     
   4.3200000000000002E-002    -3.7255809307098389     
   4.3500000000000004E-002    -3.5699491500854492     
   4.3799999999999999E-002    -3.2292344570159912     
   4.4100000000000000E-002    -2.6981885433197021     
   4.4400000000000002E-002    -1.9836163520812988     
   4.4700000000000004E-002    -1.1049770116806030     
   4.4999999999999998E-002    -9.4102695584297180E-002
   4.5300000000000000E-002     1.0062593221664429     
   4.5600000000000002E-002     2.1446077823638916     
   4.5899999999999996E-002     3.2641713619232178     
   4.6200000000000005E-002     4.3063340187072754     
   4.6500000000000000E-002     5.2148094177246094     
   4.6799999999999994E-002     5.9392032623291016     
   4.7100000000000003E-002     6.4389338493347168     
   4.7399999999999998E-002     6.6855716705322266     
   4.7700000000000006E-002     6.6648879051208496     
   4.8000000000000001E-002     6.3777661323547363     
   4.8300000000000010E-002     5.8391418457031250     
   4.8600000000000004E-002     5.0775036811828613     
   4.8899999999999999E-002     4.1318268775939941     
   4.9200000000000008E-002     3.0485558509826660     
   4.9500000000000002E-002     1.8791086673736572     
   4.9800000000000011E-002    0.67474079132080078     
   5.0100000000000006E-002   -0.51500141620635986     
   5.0400000000000000E-002    -1.6463167667388916     
   5.0700000000000009E-002    -2.6829690933227539     
   5.1000000000000004E-002    -3.5967075824737549     
   5.1299999999999998E-002    -4.3689188957214355     
   5.1600000000000007E-002    -4.9888930320739746     
   5.1900000000000002E-002    -5.4531731605529785     
   5.2200000000000010E-002    -5.7640876770019531     
   5.2500000000000005E-002    -5.9268555641174316     
   5.2800000000000000E-002    -5.9487257003784180     
   5.3099999999999994E-002    -5.8365731239318848     
   5.3400000000000003E-002    -5.5961608886718750     
   5.3699999999999998E-002    -5.2323265075683594     
   5.4000000000000006E-002    -4.7480864524841309     
   5.4300000000000001E-002    -4.1472167968750000     
   5.4599999999999996E-002    -3.4347739219665527     
   5.4900000000000004E-002    -2.6186661720275879     
   5.5199999999999999E-002    -1.7126765251159668     
   5.5499999999999994E-002   -0.73648232221603394     
   5.5800000000000002E-002    0.28270906209945679     
   5.6099999999999997E-002     1.3105192184448242     
   5.6400000000000006E-002     2.3067917823791504     
   5.6700000000000000E-002     3.2269175052642822     
   5.6999999999999995E-002     4.0249667167663574     
   5.7300000000000004E-002     4.6574254035949707     
   5.7599999999999998E-002     5.0856742858886719     
   5.7900000000000007E-002     5.2811779975891113     
   5.8200000000000002E-002     5.2272472381591797     
   5.8499999999999996E-002     4.9218769073486328     
   5.8800000000000005E-002     4.3797011375427246     
   5.9100000000000000E-002     3.6300928592681885     
   5.9400000000000008E-002     2.7177510261535645     
   5.9700000000000003E-002     1.6993879079818726     
   6.0000000000000012E-002    0.63970875740051270     
   6.0300000000000006E-002   -0.39197778701782227     
   6.0600000000000001E-002    -1.3281964063644409     
   6.0900000000000010E-002    -2.1066110134124756     
   6.1200000000000004E-002    -2.6754839420318604     
   6.1500000000000013E-002    -2.9985821247100830     
   6.1800000000000008E-002    -3.0560104846954346     
   6.2100000000000002E-002    -2.8477618694305420     
   6.2399999999999997E-002    -2.3930735588073730     
   6.2700000000000006E-002    -1.7289662361145020     
   6.3000000000000000E-002   -0.90849226713180542     
   6.3300000000000009E-002     4.0699429810047150E-003
   6.3600000000000004E-002    0.93732535839080811     
   6.3899999999999998E-002     1.8188246488571167     
   6.4199999999999993E-002     2.5801236629486084     
   6.4500000000000002E-002     3.1619296073913574     
   6.4800000000000010E-002     3.5193362236022949     
   6.5100000000000005E-002     3.6250896453857422     
   6.5400000000000000E-002     3.4713346958160400     
   6.5700000000000008E-002     3.0712041854858398     
   6.5999999999999989E-002     2.4572315216064453     
   6.6299999999999998E-002     1.6785614490509033     
   6.6600000000000006E-002    0.79793959856033325     
   6.6900000000000001E-002   -0.11460430175065994     
   6.7199999999999996E-002   -0.98640275001525879     
   6.7500000000000004E-002    -1.7486577033996582     
   6.7800000000000013E-002    -2.3425726890563965     
   6.8099999999999994E-002    -2.7229666709899902     
   6.8400000000000002E-002    -2.8641445636749268     
   6.8700000000000011E-002    -2.7597019672393799     
   6.8999999999999992E-002    -2.4243779182434082     
   6.9300000000000000E-002    -1.8929669857025146     
   6.9600000000000009E-002    -1.2152035236358643     
   6.9900000000000004E-002   -0.45322936773300171     
   7.0199999999999999E-002    0.32575494050979614     
   7.0500000000000007E-002     1.0545818805694580     
   7.0800000000000016E-002     1.6725997924804688     
   7.1099999999999997E-002     2.1317660808563232     
   7.1400000000000005E-002     2.3992896080017090     
   7.1700000000000000E-002     2.4620022773742676     
   7.1999999999999995E-002     2.3254308700561523     
   7.2300000000000003E-002     2.0133118629455566     
   7.2600000000000012E-002     1.5645570755004883     
   7.2900000000000006E-002     1.0283211469650269     
   7.3200000000000001E-002    0.45907470583915710     
   7.3499999999999996E-002    -8.9670583605766296E-002
   7.3800000000000004E-002   -0.56985336542129517     
   7.4099999999999999E-002   -0.94488781690597534     
   7.4400000000000008E-002    -1.1916860342025757     
   7.4700000000000003E-002    -1.3024779558181763     
   7.5000000000000011E-002    -1.2855211496353149     
   7.5299999999999992E-002    -1.1621640920639038     
   7.5600000000000001E-002   -0.96536868810653687     
   7.5900000000000009E-002   -0.73381888866424561     
   7.6200000000000004E-002   -0.50916832685470581     
   7.6499999999999999E-002   -0.33164912462234497     
   7.6800000000000007E-002   -0.23511213064193726     
   7.7099999999999988E-002   -0.24556516110897064     
   7.7399999999999997E-002   -0.37849175930023193     
   7.7700000000000005E-002   -0.63886666297912598     
   7.8000000000000014E-002    -1.0211333036422729     
   7.8299999999999995E-002    -1.5109026432037354     
   7.8600000000000003E-002    -2.0867323875427246     
   7.8900000000000012E-002    -2.7212836742401123     
   7.9199999999999993E-002    -3.3852055072784424     
   7.9500000000000001E-002    -4.0475635528564453     
   7.9800000000000010E-002    -4.6776437759399414     
   8.0100000000000018E-002    -5.2454805374145508     
   8.0399999999999999E-002    -5.7235608100891113     
   8.0700000000000008E-002    -6.0866255760192871     
   8.1000000000000003E-002    -6.3112468719482422     
   8.1299999999999997E-002    -6.3778233528137207     
   8.1600000000000006E-002    -6.2687973976135254     
   8.1900000000000014E-002    -5.9711198806762695     
   8.2199999999999995E-002    -5.4760928153991699     
   8.2500000000000004E-002    -4.7803711891174316     
   8.2799999999999999E-002    -3.8871958255767822     
   8.3100000000000007E-002    -2.8052771091461182     
   8.3400000000000002E-002    -1.5526330471038818     
   8.3700000000000011E-002   -0.15274846553802490     
   8.4000000000000005E-002     1.3627363443374634     
   8.4300000000000000E-002     2.9562072753906250     
   8.4599999999999995E-002     4.5858745574951172     
   8.4900000000000003E-002     6.2059473991394043     
   8.5199999999999998E-002     7.7694153785705566     
   8.5500000000000007E-002     9.2293310165405273     
   8.5800000000000001E-002     10.540261268615723     
   8.6100000000000010E-002     11.659759521484375     
   8.6399999999999991E-002     12.549975395202637     
   8.6699999999999999E-002     13.176873207092285     
   8.7000000000000008E-002     13.513550758361816     
   8.7300000000000003E-002     13.538606643676758     
   8.7599999999999997E-002     13.237704277038574     
   8.7900000000000006E-002     12.604525566101074     
   8.8200000000000014E-002     11.638707160949707     
   8.8499999999999995E-002     10.351366996765137     
   8.8800000000000004E-002     8.7618865966796875     
   8.9100000000000013E-002     6.8997321128845215     
   8.9399999999999993E-002     4.8064131736755371     
   8.9700000000000002E-002     2.5319902896881104     
   9.0000000000000011E-002    0.13855704665184021     
   9.0299999999999991E-002    -2.3045954704284668     
   9.0600000000000000E-002    -4.7212023735046387     
   9.0900000000000009E-002    -7.0295038223266602     
   9.1200000000000017E-002    -9.1500816345214844     
   9.1499999999999998E-002    -11.002875328063965     
   9.1800000000000007E-002    -12.516179084777832     
   9.2100000000000001E-002    -13.628856658935547     
   9.2399999999999996E-002    -14.292233467102051     
   9.2700000000000005E-002    -14.476244926452637     
   9.3000000000000013E-002    -14.166748046875000     
   9.3300000000000008E-002    -13.373840332031250     
   9.3600000000000003E-002    -12.126155853271484     
   9.3899999999999997E-002    -10.473108291625977     
   9.4200000000000006E-002    -8.4854278564453125     
   9.4500000000000001E-002    -6.2465028762817383     
   9.4800000000000009E-002    -3.8572144508361816     
   9.5100000000000004E-002    -1.4242680072784424     
   9.5399999999999999E-002    0.93979817628860474     
   9.5699999999999993E-002     3.1245574951171875     
   9.6000000000000002E-002     5.0293960571289062     
   9.6300000000000011E-002     6.5627641677856445     
   9.6600000000000005E-002     7.6561360359191895     
   9.6900000000000000E-002     8.2604742050170898     
   9.7200000000000009E-002     8.3544082641601562     
   9.7499999999999989E-002     7.9457535743713379     
   9.7799999999999998E-002     7.0683536529541016     
   9.8100000000000007E-002     5.7855081558227539     
   9.8400000000000015E-002     4.1813859939575195     
   9.8699999999999996E-002     2.3608281612396240     
   9.9000000000000005E-002    0.44047257304191589     
   9.9300000000000013E-002    -1.4588825702667236     
   9.9599999999999994E-002    -3.2171790599822998     
   9.9900000000000003E-002    -4.7254538536071777     
  0.10020000000000001         -5.8901119232177734     
  0.10049999999999999         -6.6419305801391602     
  0.10080000000000000         -6.9368987083435059     
  0.10110000000000001         -6.7624206542968750     
  0.10140000000000000         -6.1369104385375977     
  0.10170000000000000         -5.1067447662353516     
  0.10200000000000001         -3.7463803291320801     
  0.10230000000000002         -2.1495115756988525     
  0.10260000000000000        -0.42770886421203613     
  0.10290000000000001          1.3025232553482056     
  0.10320000000000000          2.9255089759826660     
  0.10350000000000001          4.3326864242553711     
  0.10380000000000000          5.4353170394897461     
  0.10410000000000001          6.1643114089965820     
  0.10440000000000001          6.4821267127990723     
  0.10470000000000000          6.3801765441894531     
  0.10500000000000000          5.8810620307922363     
  0.10530000000000000          5.0390229225158691     
  0.10560000000000000          3.9293344020843506     
  0.10590000000000001          2.6512494087219238     
  0.10620000000000000          1.3112316131591797     
  0.10650000000000001          1.8679425120353699E-002
  0.10679999999999999         -1.1220035552978516     
  0.10710000000000000         -2.0249068737030029     
  0.10740000000000001         -2.6228263378143311     
  0.10770000000000000         -2.8802266120910645     
  0.10800000000000000         -2.7891292572021484     
  0.10830000000000001         -2.3732738494873047     
  0.10859999999999999         -1.6857509613037109     
  0.10890000000000000        -0.80008596181869507     
  0.10920000000000001         0.19142311811447144     
  0.10950000000000001          1.1929185390472412     
  0.10979999999999999          2.1080565452575684     
  0.11009999999999999          2.8537931442260742     
  0.11040000000000001          3.3651947975158691     
  0.11070000000000001          3.6010117530822754     
  0.11100000000000000          3.5519690513610840     
  0.11130000000000000          3.2328317165374756     
  0.11160000000000002          2.6886992454528809     
  0.11190000000000001          1.9825757741928101     
  0.11220000000000001          1.1918940544128418     
  0.11250000000000000         0.39993938803672791     
  0.11280000000000000        -0.31690967082977295     
  0.11309999999999999        -0.88965916633605957     
  0.11340000000000001         -1.2737810611724854     
  0.11369999999999998         -1.4444878101348877     
  0.11400000000000000         -1.4031895399093628     
  0.11430000000000000         -1.1764900684356689     
  0.11460000000000002        -0.80732315778732300     
  0.11489999999999999        -0.35657787322998047     
  0.11520000000000001         0.11299934238195419     
  0.11550000000000001         0.53650408983230591     
  0.11580000000000000         0.85946512222290039     
  0.11609999999999999          1.0435724258422852     
  0.11640000000000002          1.0647927522659302     
  0.11670000000000001         0.92334640026092529     
  0.11700000000000001         0.63440889120101929     
  0.11730000000000000         0.23049977421760559     
  0.11760000000000000        -0.24685935676097870     
  0.11789999999999999        -0.75281393527984619     
  0.11820000000000001         -1.2410130500793457     
  0.11850000000000001         -1.6756707429885864     
  0.11880000000000000         -2.0278143882751465     
  0.11910000000000000         -2.2830042839050293     
  0.11940000000000002         -2.4392998218536377     
  0.11970000000000001         -2.5054881572723389     
  0.12000000000000001         -2.4998853206634521     
  0.12030000000000000         -2.4447927474975586     
  0.12060000000000000         -2.3666343688964844     
  0.12089999999999999         -2.2863659858703613     
  0.12119999999999999         -2.2223262786865234     
  0.12150000000000001         -2.1859068870544434     
  0.12180000000000001         -2.1808419227600098     
  0.12210000000000000         -2.2046771049499512     
  0.12239999999999999         -2.2464344501495361     
  0.12270000000000002         -2.2949039936065674     
  0.12300000000000001         -2.3336076736450195     
  0.12330000000000001         -2.3480942249298096     
  0.12360000000000000         -2.3262150287628174     
  0.12390000000000000         -2.2565822601318359     
  0.12419999999999999         -2.1365618705749512     
  0.12450000000000001         -1.9636970758438110     
  0.12480000000000001         -1.7429676055908203     
  0.12509999999999999         -1.4811872243881226     
  0.12540000000000001         -1.1866335868835449     
  0.12570000000000003        -0.87130224704742432     
  0.12600000000000000        -0.54212391376495361     
  0.12630000000000002        -0.20916706323623657     
  0.12659999999999999         0.12332715094089508     
  0.12690000000000001         0.45222938060760498     
  0.12719999999999998         0.77591580152511597     
  0.12750000000000000          1.0974932909011841     
  0.12780000000000002          1.4161279201507568     
  0.12809999999999999          1.7351531982421875     
  0.12840000000000001          2.0536086559295654     
  0.12869999999999998          2.3697760105133057     
  0.12900000000000000          2.6809499263763428     
  0.12930000000000003          2.9795000553131104     
  0.12959999999999999          3.2614583969116211     
  0.12990000000000002          3.5198624134063721     
  0.13019999999999998          3.7514936923980713     
  0.13050000000000000          3.9547173976898193     
  0.13080000000000003          4.1296401023864746     
  0.13109999999999999          4.2812242507934570     
  0.13140000000000002          4.4127650260925293     
  0.13169999999999998          4.5307202339172363     
  0.13200000000000001          4.6368193626403809     
  0.13229999999999997          4.7291402816772461     
  0.13260000000000000          4.8015270233154297     
  0.13290000000000002          4.8408536911010742     
  0.13319999999999999          4.8322129249572754     
  0.13350000000000001          4.7559509277343750     
  0.13380000000000003          4.5951232910156250     
  0.13410000000000000          4.3348875045776367     
  0.13440000000000002          3.9685695171356201     
  0.13469999999999999          3.4996683597564697     
  0.13500000000000001          2.9400844573974609     
  0.13529999999999998          2.3125355243682861     
  0.13560000000000000          1.6428381204605103     
  0.13590000000000002         0.96259564161300659     
  0.13619999999999999         0.29683780670166016     
  0.13650000000000001        -0.33727428317070007     
  0.13680000000000003        -0.93327575922012329     
  0.13710000000000000         -1.5033055543899536     
  0.13740000000000002         -2.0684931278228760     
  0.13769999999999999         -2.6657731533050537     
  0.13800000000000001         -3.3339838981628418     
  0.13829999999999998         -4.1114144325256348     
  0.13860000000000000         -5.0268597602844238     
  0.13890000000000002         -6.0864710807800293     
  0.13919999999999999         -7.2791934013366699     
  0.13950000000000001         -8.5623731613159180     
  0.13979999999999998         -9.8720378875732422     
  0.14010000000000000         -11.123447418212891     
  0.14040000000000002         -12.219366073608398     
  0.14069999999999999         -13.068800926208496     
  0.14100000000000001         -13.588336944580078     
  0.14130000000000004         -13.724344253540039     
  0.14160000000000000         -13.454983711242676     
  0.14189999999999997         -12.797901153564453     
  0.14219999999999999         -11.811229705810547     
  0.14250000000000002         -10.581257820129395     
  0.14279999999999998         -9.2174968719482422     
  0.14310000000000000         -7.8297104835510254     
  0.14339999999999997         -6.5148048400878906     
  0.14369999999999999         -5.3349103927612305     
  0.14400000000000002         -4.3030176162719727     
  0.14429999999999998         -3.3775634765625000     
  0.14460000000000001         -2.4552471637725830     
  0.14490000000000003         -1.3841540813446045     
  0.14520000000000000          2.3597478866577148E-002
  0.14550000000000002          1.9630968570709229     
  0.14579999999999999          4.6099762916564941     
  0.14610000000000001          8.0878219604492188     
  0.14640000000000003          12.434924125671387     
  0.14670000000000000          17.587980270385742     
  0.14699999999999996          23.361217498779297     
  0.14729999999999999          29.451282501220703     
  0.14760000000000001          35.448966979980469     
  0.14789999999999998          40.866336822509766     
  0.14820000000000000          45.179161071777344     