  -1.4999999999999999E-002     0.0000000000000000     
  -1.4700000000000000E-002     0.0000000000000000     
  -1.4400000000000000E-002     0.0000000000000000     
  -1.4100000000000000E-002     0.0000000000000000     
  -1.3800000000000000E-002     1.2659414779493622E-033
  -1.3500000000000000E-002     1.0205572599672402E-031
  -1.3200000000000000E-002    -1.2422855636778176E-030
  -1.2899999999999998E-002    -2.4719775466809256E-028
  -1.2600000000000000E-002    -1.7295484050066595E-028
  -1.2299999999999998E-002     3.9237568565655894E-026
  -1.2000000000000000E-002     1.4723306098020786E-026
  -1.1699999999999999E-002    -1.6677123014964684E-024
  -1.1399999999999999E-002    -1.0987314641347049E-023
  -1.1099999999999999E-002     1.9656276891687552E-022
  -1.0799999999999999E-002    -6.9855685457851618E-022
  -1.0499999999999999E-002    -5.3117649412130591E-021
  -1.0199999999999999E-002     7.5102254591966791E-020
  -9.8999999999999991E-003    -3.6099671536432037E-019
  -9.5999999999999992E-003     5.0905170525365541E-019
  -9.2999999999999992E-003     2.7491283551702402E-018
  -8.9999999999999993E-003    -1.7420989491905749E-017
  -8.6999999999999994E-003     5.1573162710574576E-017
  -8.3999999999999995E-003    -1.0853222412093502E-016
  -8.0999999999999996E-003     1.8176334431342222E-016
  -7.7999999999999988E-003    -2.0609973908856114E-016
  -7.4999999999999997E-003     1.9157238288932104E-018
  -7.1999999999999998E-003     7.3937633020769965E-016
  -6.8999999999999981E-003    -2.2134230873263909E-015
  -6.5999999999999982E-003     1.9594895977613665E-015
  -6.3000000000000000E-003     7.4070964476997264E-015
  -6.0000000000000001E-003    -1.8960236213092646E-014
  -5.6999999999999985E-003    -2.8332120449638815E-014
  -5.3999999999999986E-003     2.1281023818153777E-013
  -5.1000000000000004E-003    -4.4058013530870466E-013
  -4.7999999999999987E-003     2.6680987605907924E-013
  -4.5000000000000005E-003     9.4499679349074883E-013
  -4.1999999999999989E-003    -3.2060536950956342E-012
  -3.8999999999999990E-003     4.6537253217682206E-012
  -3.5999999999999990E-003    -1.8123011771842279E-012
  -3.2999999999999991E-003    -6.6762268456643792E-012
  -2.9999999999999992E-003     1.5735123273796781E-011
  -2.6999999999999993E-003    -1.5588710877700862E-011
  -2.3999999999999994E-003     9.0346935661955730E-013
  -2.0999999999999977E-003     2.1956459220207059E-011
  -1.7999999999999995E-003    -3.7601706470713481E-011
  -1.4999999999999979E-003     2.4754481450783850E-011
  -1.1999999999999997E-003     3.5198895881327630E-011
  -8.9999999999999976E-004    -1.1254583376363314E-010
  -5.9999999999999810E-004     1.1369712810127552E-010
  -2.9999999999999992E-004    -7.7162738004732390E-012
   0.0000000000000000         -1.1537092114988212E-010
   3.0000000000000165E-004     3.6642447409640511E-010
   5.9999999999999984E-004    -1.2585937847475748E-009
   9.0000000000000149E-004     2.5155311167424088E-009
   1.2000000000000031E-003    -6.2901017727767794E-010
   1.5000000000000013E-003    -9.6406580496477545E-009
   1.8000000000000030E-003     2.1891089829750854E-008
   2.1000000000000012E-003    -4.1332817168893143E-009
   2.3999999999999994E-003    -6.3138372752291616E-008
   2.7000000000000010E-003     8.2441069082506147E-008
   2.9999999999999992E-003     1.0961160512579227E-007
   3.3000000000000008E-003    -2.7781780431723746E-007
   3.6000000000000025E-003    -3.1113398790694191E-007
   3.9000000000000007E-003     6.9385231427077088E-007
   4.2000000000000023E-003     1.4962090517656179E-006
   4.5000000000000005E-003    -1.2848290680267382E-006
   4.7999999999999987E-003    -6.9648717726522591E-006
   5.1000000000000004E-003     2.6012139642261900E-006
   5.4000000000000020E-003     5.9833346313098446E-005
   5.7000000000000037E-003     1.8096256826538593E-004
   5.9999999999999984E-003     3.5497979843057692E-004
   6.3000000000000000E-003     5.7441979879513383E-004
   6.6000000000000017E-003     8.6556363385170698E-004
   6.9000000000000034E-003     1.2975108111277223E-003
   7.2000000000000015E-003     1.9817797001451254E-003
   7.5000000000000032E-003     3.0605543870478868E-003
   7.8000000000000014E-003     4.6959393657743931E-003
   8.0999999999999996E-003     7.0915431715548038E-003
   8.4000000000000012E-003     1.0533398017287254E-002
   8.7000000000000029E-003     1.5422499738633633E-002
   9.0000000000000011E-003     2.2296808660030365E-002
   9.2999999999999992E-003     3.1824961304664612E-002
   9.6000000000000009E-003     4.4779393821954727E-002
   9.8999999999999991E-003     6.2048517167568207E-002
   1.0200000000000001E-002     8.4666840732097626E-002
   1.0500000000000002E-002    0.11374869942665100     
   1.0800000000000004E-002    0.15036296844482422     
   1.1099999999999999E-002    0.19544315338134766     
   1.1400000000000000E-002    0.24964655935764313     
   1.1700000000000002E-002    0.31310886144638062     
   1.2000000000000004E-002    0.38515970110893250     
   1.2300000000000002E-002    0.46403047442436218     
   1.2600000000000000E-002    0.54657322168350220     
   1.2900000000000002E-002    0.62796378135681152     
   1.3200000000000000E-002    0.70145797729492188     
   1.3500000000000002E-002    0.75826531648635864     
   1.3800000000000003E-002    0.78762912750244141     
   1.4100000000000001E-002    0.77708590030670166     
   1.4400000000000000E-002    0.71300417184829712     
   1.4700000000000001E-002    0.58145052194595337     
   1.4999999999999999E-002    0.36952736973762512     
   1.5300000000000001E-002     6.6856399178504944E-002
   1.5600000000000003E-002   -0.33290788531303406     
   1.5899999999999997E-002   -0.83036124706268311     
   1.6199999999999999E-002    -1.4185687303543091     
   1.6500000000000001E-002    -2.0818552970886230     
   1.6800000000000002E-002    -2.7949364185333252     
   1.7100000000000004E-002    -3.5228869915008545     
   1.7400000000000006E-002    -4.2219576835632324     
   1.7700000000000000E-002    -4.8414902687072754     
   1.8000000000000002E-002    -5.3270030021667480     
   1.8300000000000004E-002    -5.6235194206237793     
   1.8600000000000005E-002    -5.6802659034729004     
   1.8900000000000000E-002    -5.4552316665649414     
   1.9200000000000002E-002    -4.9199614524841309     
   1.9500000000000003E-002    -4.0635843276977539     
   1.9799999999999998E-002    -2.8954463005065918     
   2.0100000000000000E-002    -1.4471073150634766     
   2.0400000000000001E-002    0.22790585458278656     
   2.0700000000000003E-002     2.0564169883728027     
   2.0999999999999998E-002     3.9489243030548096     
   2.1299999999999999E-002     5.8055710792541504     
   2.1600000000000001E-002     7.5225911140441895     
   2.1900000000000003E-002     8.9986104965209961     
   2.2200000000000004E-002     10.143250465393066     
   2.2500000000000006E-002     10.882478713989258     
   2.2800000000000001E-002     11.165019989013672     
   2.3100000000000002E-002     10.965813636779785     
   2.3400000000000004E-002     10.288069725036621     
   2.3699999999999999E-002     9.1635570526123047     
   2.4000000000000000E-002     7.6501502990722656     
   2.4300000000000002E-002     5.8281917572021484     
   2.4599999999999997E-002     3.7958362102508545     
   2.4900000000000005E-002     1.6621347665786743     
   2.5200000000000000E-002   -0.45953258872032166     
   2.5499999999999995E-002    -2.4578266143798828     
   2.5800000000000003E-002    -4.2313685417175293     
   2.6099999999999998E-002    -5.6932301521301270     
   2.6400000000000007E-002    -6.7772698402404785     
   2.6700000000000002E-002    -7.4401192665100098     
   2.6999999999999996E-002    -7.6647810935974121     
   2.7300000000000005E-002    -7.4609375000000000     
   2.7600000000000000E-002    -6.8627529144287109     
   2.7900000000000008E-002    -5.9289107322692871     
   2.8200000000000003E-002    -4.7357640266418457     
   2.8499999999999998E-002    -3.3740758895874023     
   2.8800000000000006E-002    -1.9427703619003296     
   2.9100000000000001E-002   -0.54183483123779297     
   2.9400000000000003E-002    0.73260134458541870     
   2.9700000000000004E-002     1.7963657379150391     
   3.0000000000000006E-002     2.5810267925262451     
   3.0300000000000001E-002     3.0384957790374756     
   3.0600000000000002E-002     3.1434288024902344     
   3.0900000000000004E-002     2.8938465118408203     
   3.1199999999999999E-002     2.3107523918151855     
   3.1500000000000007E-002     1.4345285892486572     
   3.1800000000000002E-002    0.32228401303291321     
   3.2099999999999997E-002   -0.95804333686828613     
   3.2400000000000005E-002    -2.3314192295074463     
   3.2700000000000000E-002    -3.7225680351257324     
   3.3000000000000002E-002    -5.0597467422485352     
   3.3300000000000003E-002    -6.2778677940368652     
   3.3599999999999998E-002    -7.3227806091308594     
   3.3900000000000000E-002    -8.1499223709106445     
   3.4200000000000001E-002    -8.7273826599121094     
   3.4500000000000003E-002    -9.0330247879028320     
   3.4799999999999998E-002    -9.0525398254394531     
   3.5099999999999999E-002    -8.7797250747680664     
   3.5400000000000001E-002    -8.2113533020019531     
   3.5699999999999996E-002    -7.3497576713562012     
   3.6000000000000004E-002    -6.1996321678161621     
   3.6299999999999999E-002    -4.7692093849182129     
   3.6600000000000008E-002    -3.0743653774261475     
   3.6900000000000002E-002    -1.1367567777633667     
   3.7199999999999997E-002     1.0099519491195679     
   3.7500000000000006E-002     3.3195281028747559     
   3.7800000000000000E-002     5.7323374748229980     
   3.8100000000000009E-002     8.1711826324462891     
   3.8400000000000004E-002     10.546891212463379     
   3.8699999999999998E-002     12.758243560791016     
   3.9000000000000007E-002     14.696961402893066     
   3.9300000000000002E-002     16.256027221679688     
   3.9600000000000003E-002     17.333583831787109     
   3.9900000000000005E-002     17.844932556152344     
   4.0200000000000000E-002     17.725372314453125     
   4.0500000000000001E-002     16.939561843872070     
   4.0800000000000003E-002     15.486640930175781     
   4.1100000000000005E-002     13.400012969970703     
   4.1399999999999999E-002     10.750761985778809     
   4.1700000000000008E-002     7.6412820816040039     
   4.2000000000000003E-002     4.2037630081176758     
   4.2299999999999997E-002    0.59163618087768555     
   4.2600000000000006E-002    -3.0305500030517578     
   4.2900000000000001E-002    -6.4931139945983887     
   4.3200000000000002E-002    -9.6354322433471680     
   4.3500000000000004E-002    -12.313529968261719     
   4.3799999999999999E-002    -14.407751083374023     
   4.4100000000000000E-002    -15.832029342651367     
   4.4400000000000002E-002    -16.538179397583008     
   4.4700000000000004E-002    -16.519477844238281     
   4.4999999999999998E-002    -15.810059547424316     
   4.5300000000000000E-002    -14.483602523803711     
   4.5600000000000002E-002    -12.647899627685547     
   4.5899999999999996E-002    -10.438778877258301     
   4.6200000000000005E-002    -8.0089578628540039     
   4.6500000000000000E-002    -5.5192613601684570     
   4.6799999999999994E-002    -3.1267070770263672     
   4.7100000000000003E-002   -0.97172027826309204     
   4.7399999999999998E-002    0.82841068506240845     
   4.7700000000000006E-002     2.1922931671142578     
   4.8000000000000001E-002     3.0770764350891113     
   4.8300000000000010E-002     3.4795148372650146     
   4.8600000000000004E-002     3.4389047622680664     
   4.8899999999999999E-002     3.0270028114318848     
   4.9200000000000008E-002     2.3447732925415039     
   4.9500000000000002E-002     1.5084058046340942     
   4.9800000000000011E-002    0.63926243782043457     
   5.0100000000000006E-002   -0.14614398777484894     
   5.0400000000000000E-002   -0.75156074762344360     
   5.0700000000000009E-002    -1.1029661893844604     
   5.1000000000000004E-002    -1.1593394279479980     
   5.1299999999999998E-002   -0.91139560937881470     
   5.1600000000000007E-002   -0.37951308488845825     
   5.1900000000000002E-002    0.38896673917770386     
   5.2200000000000010E-002     1.3310039043426514     
   5.2500000000000005E-002     2.3725028038024902     
   5.2800000000000000E-002     3.4415793418884277     
   5.3099999999999994E-002     4.4729814529418945     
   5.3400000000000003E-002     5.4152765274047852     
   5.3699999999999998E-002     6.2357425689697266     
   5.4000000000000006E-002     6.9176197052001953     
   5.4300000000000001E-002     7.4617257118225098     
   5.4599999999999996E-002     7.8789048194885254     
   5.4900000000000004E-002     8.1880102157592773     
   5.5199999999999999E-002     8.4097261428833008     
   5.5499999999999994E-002     8.5619077682495117     
   5.5800000000000002E-002     8.6590967178344727     
   5.6099999999999997E-002     8.7083911895751953     
   5.6400000000000006E-002     8.7143239974975586     
   5.6700000000000000E-002     8.6771011352539062     
   5.6999999999999995E-002     8.5960159301757812     
   5.7300000000000004E-002     8.4710884094238281     
   5.7599999999999998E-002     8.2996492385864258     
   5.7900000000000007E-002     8.0767097473144531     
   5.8200000000000002E-002     7.7885737419128418     
   5.8499999999999996E-002     7.4090042114257812     
   5.8800000000000005E-002     6.8915729522705078     
   5.9100000000000000E-002     6.1666393280029297     
   5.9400000000000008E-002     5.1415967941284180     
   5.9700000000000003E-002     3.7031288146972656     
   6.0000000000000012E-002     1.7289975881576538     
   6.0300000000000006E-002   -0.89937889575958252     
   6.0600000000000001E-002    -4.2748441696166992     
   6.0900000000000010E-002    -8.4464673995971680     
   6.1200000000000004E-002    -13.392956733703613     
   6.1500000000000013E-002    -19.008584976196289     
   6.1800000000000008E-002    -25.091176986694336     
   6.2100000000000002E-002    -31.336072921752930     
   6.2399999999999997E-002    -37.354206085205078     
   6.2700000000000006E-002    -42.683795928955078     
   6.3000000000000000E-002    -46.832977294921875     
   6.3300000000000009E-002    -49.315109252929688     
   6.3600000000000004E-002    -49.694992065429688     
   6.3899999999999998E-002    -47.644199371337891     
   6.4199999999999993E-002    -42.968421936035156     
   6.4500000000000002E-002    -35.654697418212891     
   6.4800000000000010E-002    -25.881780624389648     
   6.5100000000000005E-002    -14.020526885986328     
   6.5400000000000000E-002   -0.62730234861373901     
   6.5700000000000008E-002     13.604071617126465     
   6.5999999999999989E-002     27.874265670776367     
   6.6299999999999998E-002     41.346637725830078     
   6.6600000000000006E-002     53.211212158203125     
   6.6900000000000001E-002     62.736984252929688     
   6.7199999999999996E-002     69.343437194824219     
   6.7500000000000004E-002     72.633117675781250     
   6.7800000000000013E-002     72.424911499023438     
   6.8099999999999994E-002     68.770278930664062     
   6.8400000000000002E-002     61.933002471923828     
   6.8700000000000011E-002     52.378787994384766     
   6.8999999999999992E-002     40.725704193115234     
   6.9300000000000000E-002     27.696195602416992     
   6.9600000000000009E-002     14.065571784973145     
   6.9900000000000004E-002    0.59564310312271118     
   7.0199999999999999E-002    -12.007865905761719     
   7.0500000000000007E-002    -23.143610000610352     
   7.0800000000000016E-002    -32.347030639648438     
   7.1099999999999997E-002    -39.307426452636719     
   7.1400000000000005E-002    -43.876338958740234     
   7.1700000000000000E-002    -46.059844970703125     
   7.1999999999999995E-002    -45.998691558837891     
   7.2300000000000003E-002    -43.946063995361328     
   7.2600000000000012E-002    -40.238784790039062     
   7.2900000000000006E-002    -35.259502410888672     
   7.3200000000000001E-002    -29.417121887207031     
   7.3499999999999996E-002    -23.106826782226562     
   7.3800000000000004E-002    -16.696767807006836     
   7.4099999999999999E-002    -10.508411407470703     
   7.4400000000000008E-002    -4.7998232841491699     
   7.4700000000000003E-002    0.22622501850128174     
   7.5000000000000011E-002     4.4443907737731934     
   7.5299999999999992E-002     7.7821483612060547     
   7.5600000000000001E-002     10.227848052978516     
   7.5900000000000009E-002     11.822279930114746     
   7.6200000000000004E-002     12.635416030883789     
   7.6499999999999999E-002     12.779082298278809     
   7.6800000000000007E-002     12.370796203613281     
   7.7099999999999988E-002     11.544963836669922     
   7.7399999999999997E-002     10.433370590209961     
   7.7700000000000005E-002     9.1528978347778320     
   7.8000000000000014E-002     7.8163385391235352     
   7.8299999999999995E-002     6.5048723220825195     
   7.8600000000000003E-002     5.2865505218505859     
   7.8900000000000012E-002     4.2021751403808594     
   7.9199999999999993E-002     3.2724003791809082     
   7.9500000000000001E-002     2.5034716129302979     
   7.9800000000000010E-002     1.8826203346252441     
   8.0100000000000018E-002     1.3947820663452148     
   8.0399999999999999E-002     1.0142731666564941     
   8.0700000000000008E-002    0.72101706266403198     
   8.1000000000000003E-002    0.49215912818908691     
   8.1299999999999997E-002    0.31230384111404419     
   8.1600000000000006E-002    0.17145366966724396     
   8.1900000000000014E-002     5.7326640933752060E-002
   8.2199999999999995E-002    -2.8570128604769707E-002
   8.2500000000000004E-002    -9.5680452883243561E-002
   8.2799999999999999E-002   -0.14443753659725189     
   8.3100000000000007E-002   -0.17940282821655273     
   8.3400000000000002E-002   -0.20984590053558350     
   8.3700000000000011E-002   -0.23572316765785217     
   8.4000000000000005E-002   -0.27147144079208374     
   8.4300000000000000E-002   -0.31628477573394775     
   8.4599999999999995E-002   -0.37596127390861511     
   8.4900000000000003E-002   -0.45299836993217468     
   8.5199999999999998E-002   -0.53919684886932373     
   8.5500000000000007E-002   -0.63647490739822388     
   8.5800000000000001E-002   -0.73148012161254883     
   8.6100000000000010E-002   -0.82058274745941162     
   8.6399999999999991E-002   -0.89673388004302979     
   8.6699999999999999E-002   -0.95274251699447632     
   8.7000000000000008E-002   -0.99089485406875610     
   8.7300000000000003E-002    -1.0070495605468750     
   8.7599999999999997E-002    -1.0083707571029663     
   8.7900000000000006E-002   -0.99723988771438599     
   8.8200000000000014E-002   -0.97921895980834961     
   8.8499999999999995E-002   -0.95882302522659302     
   8.8800000000000004E-002   -0.93684142827987671     
   8.9100000000000013E-002   -0.91550320386886597     
   8.9399999999999993E-002   -0.88943457603454590     
   8.9700000000000002E-002   -0.85765671730041504     
   9.0000000000000011E-002   -0.81246238946914673     
   9.0299999999999991E-002   -0.75155681371688843     
   9.0600000000000000E-002   -0.67286604642868042     
   9.0900000000000009E-002   -0.57337176799774170     
   9.1200000000000017E-002   -0.46025851368904114     
   9.1499999999999998E-002   -0.33454051613807678     
   9.1800000000000007E-002   -0.20796287059783936     
   9.2100000000000001E-002    -8.7300784885883331E-002
   9.2399999999999996E-002     2.0781021565198898E-002
   9.2700000000000005E-002    0.10664088279008865     
   9.3000000000000013E-002    0.17128542065620422     
   9.3300000000000008E-002    0.20973038673400879     
   9.3600000000000003E-002    0.22831180691719055     
   9.3899999999999997E-002    0.23159985244274139     
   9.4200000000000006E-002    0.22593037784099579     
   9.4500000000000001E-002    0.22107537090778351     
   9.4800000000000009E-002    0.22017575800418854     
   9.5100000000000004E-002    0.23078323900699615     
   9.5399999999999999E-002    0.25091513991355896     
   9.5699999999999993E-002    0.28181949257850647     
   9.6000000000000002E-002    0.31719642877578735     
   9.6300000000000011E-002    0.35166004300117493     
   9.6600000000000005E-002    0.38063317537307739     
   9.6900000000000000E-002    0.39299499988555908     
   9.7200000000000009E-002    0.39121809601783752     
   9.7499999999999989E-002    0.36755478382110596     
   9.7799999999999998E-002    0.32766038179397583     
   9.8100000000000007E-002    0.27694332599639893     
   9.8400000000000015E-002    0.21653413772583008     
   9.8699999999999996E-002    0.16262251138687134     
   9.9000000000000005E-002    0.11409778147935867     
   9.9300000000000013E-002     8.3400510251522064E-002
   9.9599999999999994E-002     7.3184706270694733E-002
   9.9900000000000003E-002     7.9050853848457336E-002
  0.10020000000000001         0.10500528663396835     
  0.10049999999999999         0.13585254549980164     
  0.10080000000000000         0.16871471703052521     
  0.10110000000000001         0.19243121147155762     
  0.10140000000000000         0.19513827562332153     
  0.10170000000000000         0.17594830691814423     
  0.10200000000000001         0.12700526416301727     
  0.10230000000000002          5.4249525070190430E-002
  0.10260000000000000         -3.7187427282333374E-002
  0.10290000000000001        -0.13757903873920441     
  0.10320000000000000        -0.23225654661655426     
  0.10350000000000001        -0.30849754810333252     
  0.10380000000000000        -0.35406261682510376     
  0.10410000000000001        -0.36030402779579163     
  0.10440000000000001        -0.32390478253364563     
  0.10470000000000000        -0.24999098479747772     
  0.10500000000000000        -0.14374814927577972     
  0.10530000000000000         -2.3359488695859909E-002
  0.10560000000000000          9.6179023385047913E-002
  0.10590000000000001         0.19780796766281128     
  0.10620000000000000         0.26051455736160278     
  0.10650000000000001         0.28108704090118408     
  0.10679999999999999         0.24771699309349060     
  0.10710000000000000         0.16916146874427795     
  0.10740000000000001          5.8539822697639465E-002
  0.10770000000000000         -7.1120873093605042E-002
  0.10800000000000000        -0.18717874586582184     
  0.10830000000000001        -0.27364566922187805     
  0.10859999999999999        -0.30355691909790039     
  0.10890000000000000        -0.26120263338088989     
  0.10920000000000001        -0.14704835414886475     
  0.10950000000000001          4.1235867887735367E-002
  0.10979999999999999         0.27788528800010681     
  0.11009999999999999         0.53724586963653564     
  0.11040000000000001         0.78297466039657593     
  0.11070000000000001         0.97121244668960571     
  0.11100000000000000          1.0682238340377808     
  0.11130000000000000          1.0407799482345581     
  0.11160000000000002         0.87207132577896118     
  0.11190000000000001         0.56126153469085693     
  0.11220000000000001         0.12432486563920975     
  0.11250000000000000        -0.40356206893920898     
  0.11280000000000000        -0.97056496143341064     
  0.11309999999999999         -1.5191149711608887     
  0.11340000000000001         -1.9845659732818604     
  0.11369999999999998         -2.3055765628814697     
  0.11400000000000000         -2.4391424655914307     
  0.11430000000000000         -2.3471930027008057     
  0.11460000000000002         -2.0266196727752686     
  0.11489999999999999         -1.4911710023880005     
  0.11520000000000001        -0.77511501312255859     
  0.11550000000000001          5.5588513612747192E-002
  0.11580000000000000         0.93901324272155762     
  0.11609999999999999          1.7895759344100952     
  0.11640000000000002          2.5327732563018799     
  0.11670000000000001          3.1061749458312988     
  0.11700000000000001          3.4490301609039307     
  0.11730000000000000          3.5406260490417480     
  0.11760000000000000          3.3662607669830322     
  0.11789999999999999          2.9430251121520996     
  0.11820000000000001          2.3116915225982666     
  0.11850000000000001          1.5178360939025879     
  0.11880000000000000         0.63083195686340332     
  0.11910000000000000        -0.28515118360519409     
  0.11940000000000002         -1.1633905172348022     
  0.11970000000000001         -1.9411938190460205     
  0.12000000000000001         -2.5740258693695068     
  0.12030000000000000         -3.0259048938751221     
  0.12060000000000000         -3.2779705524444580     
  0.12089999999999999         -3.3290812969207764     
  0.12119999999999999         -3.1877131462097168     
  0.12150000000000001         -2.8754532337188721     
  0.12180000000000001         -2.4272661209106445     
  0.12210000000000000         -1.8748233318328857     
  0.12239999999999999         -1.2620472908020020     
  0.12270000000000002        -0.62805575132369995     
  0.12300000000000001         -6.4338594675064087E-003
  0.12330000000000001         0.56215101480484009     
  0.12360000000000000          1.0589418411254883     
  0.12390000000000000          1.4569696187973022     
  0.12419999999999999          1.7429969310760498     
  0.12450000000000001          1.9175008535385132     
  0.12480000000000001          1.9707088470458984     
  0.12509999999999999          1.9204163551330566     
  0.12540000000000001          1.7751376628875732     
  0.12570000000000003          1.5521388053894043     
  0.12600000000000000          1.2790881395339966     
  0.12630000000000002         0.96909087896347046     
  0.12659999999999999         0.65249699354171753     
  0.12690000000000001         0.34608653187751770     
  0.12719999999999998          6.5998815000057220E-002
  0.12750000000000000        -0.16915719211101532     
  0.12780000000000002        -0.35784342885017395     
  0.12809999999999999        -0.49240323901176453     
  0.12840000000000001        -0.57435619831085205     
  0.12869999999999998        -0.61113506555557251     
  0.12900000000000000        -0.60702598094940186     
  0.12930000000000003        -0.57260322570800781     
  0.12959999999999999        -0.51833862066268921     
  0.12990000000000002        -0.44993591308593750     
  0.13019999999999998        -0.37790605425834656     
  0.13050000000000000        -0.30709329247474670     
  0.13080000000000003        -0.23803181946277618     
  0.13109999999999999        -0.17859716713428497     
  0.13140000000000002        -0.12345340847969055     
  0.13169999999999998         -7.5932256877422333E-002
  0.13200000000000001         -3.7313006818294525E-002
  0.13229999999999997         -1.0492565343156457E-003
  0.13260000000000000          2.3530675098299980E-002
  0.13290000000000002          4.3768979609012604E-002
  0.13319999999999999          5.6045316159725189E-002
  0.13350000000000001          5.7014059275388718E-002
  0.13380000000000003          5.4150938987731934E-002
  0.13410000000000000          3.8535922765731812E-002
  0.13440000000000002          1.9029155373573303E-002
  0.13469999999999999         -4.2625772766768932E-003
  0.13500000000000001         -3.0704982578754425E-002
  0.13529999999999998         -5.1247160881757736E-002
  0.13560000000000000         -6.9193847477436066E-002
  0.13590000000000002         -7.6803609728813171E-002
  0.13619999999999999         -7.4031852185726166E-002
  0.13650000000000001         -6.2309846282005310E-002
  0.13680000000000003         -3.9363872259855270E-002
  0.13710000000000000         -9.8578296601772308E-003
  0.13740000000000002          2.3457467555999756E-002
  0.13769999999999999          5.7341784238815308E-002
  0.13800000000000001          8.8222779333591461E-002
  0.13829999999999998         0.11241127550601959     
  0.13860000000000000         0.13023163378238678     
  0.13890000000000002         0.13818164169788361     
  0.13919999999999999         0.13837035000324249     
  0.13950000000000001         0.13306815922260284     
  0.13979999999999998         0.12171786278486252     
  0.14010000000000000         0.11184326559305191     
  0.14040000000000002         0.10021985322237015     
  0.14069999999999999          9.0247817337512970E-002
  0.14100000000000001          8.4602922201156616E-002
  0.14130000000000004          7.7518872916698456E-002
  0.14160000000000000          7.4312724173069000E-002
  0.14189999999999997          6.8428903818130493E-002
  0.14219999999999999          5.9120114892721176E-002
  0.14250000000000002          4.7879181802272797E-002
  0.14279999999999998          2.9291223734617233E-002
  0.14310000000000000          9.6849510446190834E-003
  0.14339999999999997         -1.2210996821522713E-002
  0.14369999999999999         -3.4499201923608780E-002
  0.14400000000000002         -5.1521707326173782E-002
  0.14429999999999998         -6.4805544912815094E-002
  0.14460000000000001         -6.9284826517105103E-002
  0.14490000000000003         -6.4290292561054230E-002
  0.14520000000000000         -5.3137462586164474E-002
  0.14550000000000002         -3.4989736974239349E-002
  0.14579999999999999         -1.3970847241580486E-002
  0.14610000000000001          4.8394645564258099E-003
  0.14640000000000003          2.2116271778941154E-002
  0.14670000000000000          3.0523817986249924E-002
  0.14699999999999996          3.0845796689391136E-002
  0.14729999999999999          2.4176830425858498E-002
  0.14760000000000001          6.9274455308914185E-003
  0.14789999999999998         -1.1393330059945583E-002
  0.14820000000000000         -3.3894184976816177E-002