  -1.4999999999999999E-002     0.0000000000000000     
  -1.4700000000000000E-002     0.0000000000000000     
  -1.4400000000000000E-002     0.0000000000000000     
  -1.4100000000000000E-002     0.0000000000000000     
  -1.3800000000000000E-002     0.0000000000000000     
  -1.3500000000000000E-002     0.0000000000000000     
  -1.3200000000000000E-002     0.0000000000000000     
  -1.2899999999999998E-002     0.0000000000000000     
  -1.2600000000000000E-002     0.0000000000000000     
  -1.2299999999999998E-002     0.0000000000000000     
  -1.2000000000000000E-002     0.0000000000000000     
  -1.1699999999999999E-002     0.0000000000000000     
  -1.1399999999999999E-002     0.0000000000000000     
  -1.1099999999999999E-002     0.0000000000000000     
  -1.0799999999999999E-002     0.0000000000000000     
  -1.0499999999999999E-002     0.0000000000000000     
  -1.0199999999999999E-002     0.0000000000000000     
  -9.8999999999999991E-003     0.0000000000000000     
  -9.5999999999999992E-003     0.0000000000000000     
  -9.2999999999999992E-003     0.0000000000000000     
  -8.9999999999999993E-003     0.0000000000000000     
  -8.6999999999999994E-003     0.0000000000000000     
  -8.3999999999999995E-003     0.0000000000000000     
  -8.0999999999999996E-003     0.0000000000000000     
  -7.7999999999999988E-003     0.0000000000000000     
  -7.4999999999999997E-003     0.0000000000000000     
  -7.1999999999999998E-003     0.0000000000000000     
  -6.8999999999999981E-003     0.0000000000000000     
  -6.5999999999999982E-003     0.0000000000000000     
  -6.3000000000000000E-003     0.0000000000000000     
  -6.0000000000000001E-003     0.0000000000000000     
  -5.6999999999999985E-003     0.0000000000000000     
  -5.3999999999999986E-003     0.0000000000000000     
  -5.1000000000000004E-003     0.0000000000000000     
  -4.7999999999999987E-003     0.0000000000000000     
  -4.5000000000000005E-003     0.0000000000000000     
  -4.1999999999999989E-003     0.0000000000000000     
  -3.8999999999999990E-003     0.0000000000000000     
  -3.5999999999999990E-003     0.0000000000000000     
  -3.2999999999999991E-003     0.0000000000000000     
  -2.9999999999999992E-003     0.0000000000000000     
  -2.6999999999999993E-003     0.0000000000000000     
  -2.3999999999999994E-003     0.0000000000000000     
  -2.0999999999999977E-003     0.0000000000000000     
  -1.7999999999999995E-003     0.0000000000000000     
  -1.4999999999999979E-003     0.0000000000000000     
  -1.1999999999999997E-003     0.0000000000000000     
  -8.9999999999999976E-004     0.0000000000000000     
  -5.9999999999999810E-004     0.0000000000000000     
  -2.9999999999999992E-004     0.0000000000000000     
   0.0000000000000000          0.0000000000000000     
   3.0000000000000165E-004     0.0000000000000000     
   5.9999999999999984E-004     0.0000000000000000     
   9.0000000000000149E-004     0.0000000000000000     
   1.2000000000000031E-003     0.0000000000000000     
   1.5000000000000013E-003     0.0000000000000000     
   1.8000000000000030E-003     0.0000000000000000     
   2.1000000000000012E-003     0.0000000000000000     
   2.3999999999999994E-003     0.0000000000000000     
   2.7000000000000010E-003     0.0000000000000000     
   2.9999999999999992E-003     0.0000000000000000     
   3.3000000000000008E-003     0.0000000000000000     
   3.6000000000000025E-003     0.0000000000000000     
   3.9000000000000007E-003     0.0000000000000000     
   4.2000000000000023E-003     0.0000000000000000     
   4.5000000000000005E-003     0.0000000000000000     
   4.7999999999999987E-003     0.0000000000000000     
   5.1000000000000004E-003     0.0000000000000000     
   5.4000000000000020E-003     0.0000000000000000     
   5.7000000000000037E-003     0.0000000000000000     
   5.9999999999999984E-003     0.0000000000000000     
   6.3000000000000000E-003     0.0000000000000000     
   6.6000000000000017E-003     0.0000000000000000     
   6.9000000000000034E-003     0.0000000000000000     
   7.2000000000000015E-003     0.0000000000000000     
   7.5000000000000032E-003    -5.6858181731313034E-065
   7.8000000000000014E-003    -2.6649088221277830E-063
   8.0999999999999996E-003     9.5703197717718598E-063
   8.4000000000000012E-003    -2.3029727168752291E-062
   8.7000000000000029E-003     3.2967377507849234E-037
   9.0000000000000011E-003     7.0651945858818764E-036
   9.2999999999999992E-003    -2.9769816333295229E-035
   9.6000000000000009E-003     9.0607292658135241E-035
   9.8999999999999991E-003    -1.6825255687992091E-034
   1.0200000000000001E-002     3.4013471213026586E-036
   1.0500000000000002E-002    -3.7068656552488511E-034
   1.0800000000000004E-002    -6.9632855282808364E-034
   1.1099999999999999E-002     3.8886025665816042E-033
   1.1400000000000000E-002    -2.4266680305275552E-033
   1.1700000000000002E-002    -5.3146402390425971E-033
   1.2000000000000004E-002     1.3543989779310411E-032
   1.2300000000000002E-002    -2.0489663249209387E-032
   1.2600000000000000E-002     2.0184166375669706E-032
   1.2900000000000002E-002     9.8740883407673127E-033
   1.3200000000000000E-002    -8.7594813980902178E-032
   1.3500000000000002E-002     1.9287088119374155E-031
   1.3800000000000003E-002    -2.3681128630070237E-031
   1.4100000000000001E-002     3.4848900452625371E-032
   1.4400000000000000E-002     6.0090327680334140E-031
   1.4700000000000001E-002    -1.5521978695886863E-030
   1.4999999999999999E-002     2.1437501823335710E-030
   1.5300000000000001E-002    -1.4096279911733688E-030
   1.5600000000000003E-002    -1.4382116853044286E-030
   1.5899999999999997E-002     7.4490216799959257E-030
   1.6199999999999999E-002    -1.8784008304226151E-029
   1.6500000000000001E-002     3.5118923511257992E-029
   1.6800000000000002E-002    -3.9472251025240694E-029
   1.7100000000000004E-002    -2.0430401838759791E-029
   1.7400000000000006E-002     2.2015330175245050E-028
   1.7700000000000000E-002    -5.5474805574694275E-028
   1.8000000000000002E-002     7.1459628801831659E-028
   1.8300000000000004E-002     1.0446780381956707E-028
   1.8600000000000005E-002    -2.8336175127830632E-027
   1.8900000000000000E-002     6.8735057417628951E-027
   1.9200000000000002E-002    -7.4038728625275539E-027
   1.9500000000000003E-002    -4.9557505344040514E-027
   1.9799999999999998E-002     3.5547232736658809E-026
   2.0100000000000000E-002    -6.5799125214005164E-026
   2.0400000000000001E-002     3.8869274952740245E-026
   2.0700000000000003E-002     1.0877467258689745E-025
   2.0999999999999998E-002    -3.4247951082498463E-025
   2.1299999999999999E-002     4.1544370964390323E-025
   2.1600000000000001E-002     6.2836097307562354E-026
   2.1900000000000003E-002    -1.2030444027017828E-024
   2.2200000000000004E-002     2.2369027469832314E-024
   2.2500000000000006E-002    -1.4640574578420486E-024
   2.2800000000000001E-002    -2.4551812841651674E-024
   2.3100000000000002E-002     8.1235938423597756E-024
   2.3400000000000004E-002    -1.0058971418844654E-023
   2.3699999999999999E-002     1.3045002214332635E-024
   2.4000000000000000E-002     1.9245799726951002E-023
   2.4300000000000002E-002    -3.9102602452265168E-023
   2.4599999999999997E-002     3.3290226806373621E-023
   2.4900000000000005E-002     1.6671961776199062E-023
   2.5200000000000000E-002    -9.0242074603646721E-023
   2.5499999999999995E-002     1.1899425516717576E-022
   2.5800000000000003E-002    -6.6341180876370593E-023
   2.6099999999999998E-002     7.6319035377547518E-023
   2.6400000000000007E-002    -3.5003686586050594E-022
   2.6700000000000002E-002     1.7072579928921864E-022
   2.6999999999999996E-002     3.1882526990403255E-021
   2.7300000000000005E-002    -1.0776386408685448E-020
   2.7600000000000000E-002     7.7260913585184897E-021
   2.7900000000000008E-002     4.4605100185871843E-020
   2.8200000000000003E-002    -1.4377360969981929E-019
   2.8499999999999998E-002     7.6499399530414741E-020
   2.8800000000000006E-002     5.6649370045264706E-019
   2.9100000000000001E-002    -1.5508604809294981E-018
   2.9400000000000003E-002     6.8960487048740141E-019
   2.9700000000000004E-002     4.7489462734935731E-018
   3.0000000000000006E-002    -1.1595284595129907E-017
   3.0300000000000001E-002     7.5937173333580270E-018
   3.0600000000000002E-002     1.9856345528772210E-017
   3.0900000000000004E-002    -8.5929689471646879E-017
   3.1199999999999999E-002     1.7473444501625329E-016
   3.1500000000000007E-002     1.5640853545296793E-016
   3.1800000000000002E-002    -2.1323796348533088E-015
   3.2099999999999997E-002     4.0350579440908884E-015
   3.2400000000000005E-002     8.9359126700797854E-015
   3.2700000000000000E-002    -5.1886327550734159E-014
   3.3000000000000002E-002     4.2832196720138336E-014
   3.3300000000000003E-002     2.6995047262832283E-013
   3.3599999999999998E-002    -7.9895646058606859E-013
   3.3900000000000000E-002    -1.2312779809881982E-013
   3.4200000000000001E-002     4.7879263309290259E-012
   3.4500000000000003E-002    -8.0817749820157443E-012
   3.4799999999999998E-002    -9.6750631915848453E-012
   3.5099999999999999E-002     5.5514785377146519E-011
   3.5400000000000001E-002    -5.3559104108536365E-011
   3.5699999999999996E-002    -1.4004690546525475E-010
   3.6000000000000004E-002     4.4305413042526284E-010
   3.6299999999999999E-002    -2.1105477891897413E-010
   3.6600000000000008E-002    -1.1816384767829975E-009
   3.6900000000000002E-002     2.5091840110382747E-009
   3.7199999999999997E-002    -2.1497775081040663E-010
   3.7500000000000006E-002    -6.8182317833605544E-009
   3.7800000000000000E-002     1.0218519582957060E-008
   3.8100000000000009E-002     3.8579079146327995E-009
   3.8400000000000004E-002    -3.1134699679100811E-008
   3.8699999999999998E-002     1.9036944302614216E-008
   3.9000000000000007E-002     6.2502985228032981E-008
   3.9300000000000002E-002    -7.7702039395067243E-008
   3.9600000000000003E-002    -2.9194401689209384E-007
   3.9900000000000005E-002     2.1538817415630651E-006
   4.0200000000000000E-002     1.5696487388319652E-005
   4.0500000000000001E-002     4.3744640322605038E-005
   4.0800000000000003E-002     7.1294053402778699E-005
   4.1100000000000005E-002     8.6755041534137205E-005
   4.1399999999999999E-002     1.0853653795039707E-004
   4.1700000000000008E-002     1.6408929001120087E-004
   4.2000000000000003E-002     2.6421810943268929E-004
   4.2299999999999997E-002     4.0933848248972675E-004
   4.2600000000000006E-002     6.0307502978917970E-004
   4.2900000000000001E-002     8.7043975842954419E-004
   4.3200000000000002E-002     1.2585661759748682E-003
   4.3500000000000004E-002     1.8050897845568372E-003
   4.3799999999999999E-002     2.5348873175410069E-003
   4.4100000000000000E-002     3.4889853974530904E-003
   4.4400000000000002E-002     4.7218879312357718E-003
   4.4700000000000004E-002     6.2780045709109784E-003
   4.4999999999999998E-002     8.1809238556810656E-003
   4.5300000000000000E-002     1.0426272760111027E-002
   4.5600000000000002E-002     1.2983355822990495E-002
   4.5899999999999996E-002     1.5781488453795539E-002
   4.6200000000000005E-002     1.8658302941238072E-002
   4.6500000000000000E-002     2.1344743916511037E-002
   4.6799999999999994E-002     2.3487622190908455E-002
   4.7100000000000003E-002     2.4618419173249993E-002
   4.7399999999999998E-002     2.4104854371529410E-002
   4.7700000000000006E-002     2.1187452845447020E-002
   4.8000000000000001E-002     1.5060636392453482E-002
   4.8300000000000010E-002     4.9213302028961806E-003
   4.8600000000000004E-002    -1.0001798264672681E-002
   4.8899999999999999E-002    -3.0343611125897643E-002
   4.9200000000000008E-002    -5.6423899410034700E-002
   4.9500000000000002E-002    -8.8092849635044074E-002
   4.9800000000000011E-002   -0.12461559612724359     
   5.0100000000000006E-002   -0.16454470340150534     
   5.0400000000000000E-002   -0.20562713076183792     
   5.0700000000000009E-002   -0.24480414661890798     
   5.1000000000000004E-002   -0.27827671478560334     
   5.1299999999999998E-002   -0.30165091491251100     
   5.1600000000000007E-002   -0.31025135861249264     
   5.1900000000000002E-002   -0.29952162837255653     
   5.2200000000000010E-002   -0.26546520291686149     
   5.2500000000000005E-002   -0.20518765086144181     
   5.2800000000000000E-002   -0.11742489923746835     
   5.3099999999999994E-002    -2.9944215697407951E-003
   5.3400000000000003E-002    0.13488522302253259     
   5.3699999999999998E-002    0.29049468336293793     
   5.4000000000000006E-002    0.45572904224212868     
   5.4300000000000001E-002    0.62042648247632404     
   5.4599999999999996E-002    0.77305585956291889     
   5.4900000000000004E-002    0.90159739011563067     
   5.5199999999999999E-002    0.99453813885739262     
   5.5499999999999994E-002     1.0419831386133713     
   5.5800000000000002E-002     1.0367081275444414     
   5.6099999999999997E-002    0.97495413868748426     
   5.6400000000000006E-002    0.85709477396114309     
   5.6700000000000000E-002    0.68787915270392885     
   5.6999999999999995E-002    0.47615296191567286     
   5.7300000000000004E-002    0.23432971835006516     
   5.7599999999999998E-002    -2.2476104642494592E-002
   5.7900000000000007E-002   -0.27778023701999610     
   5.8200000000000002E-002   -0.51511395439730223     
   5.8499999999999996E-002   -0.71934921222435666     
   5.8800000000000005E-002   -0.87791002636111970     
   5.9100000000000000E-002   -0.98188985344788715     
   5.9400000000000008E-002    -1.0267700057278557     
   5.9700000000000003E-002    -1.0126977066987195     
   6.0000000000000012E-002   -0.94415057652505596     
   6.0300000000000006E-002   -0.82958615673101221     
   6.0600000000000001E-002   -0.68067074534179461     
   6.0900000000000010E-002   -0.51117885671097740     
   6.1200000000000004E-002   -0.33576822681543844     
   6.1500000000000013E-002   -0.16876505566017092     
   6.1800000000000008E-002    -2.3152304133685603E-002
   6.2100000000000002E-002     9.0266279713813666E-002
   6.2399999999999997E-002    0.16364653455433240     
   6.2700000000000006E-002    0.19264082678579780     
   6.3000000000000000E-002    0.17647762646362949     
   6.3300000000000009E-002    0.11785883450859906     
   6.3600000000000004E-002     2.2652179918119648E-002
   6.3899999999999998E-002   -0.10055236728319511     
   6.4199999999999993E-002   -0.24089363555214133     
   6.4500000000000002E-002   -0.38621646631614132     
   6.4800000000000010E-002   -0.52380514728371019     
   6.5100000000000005E-002   -0.64117348876201719     
   6.5400000000000000E-002   -0.72676862034377498     
   6.5700000000000008E-002   -0.77077073629663417     
   6.5999999999999989E-002   -0.76591796428156922     
   6.6299999999999998E-002   -0.70792085601025123     
   6.6600000000000006E-002   -0.59579712692784037     
   6.6900000000000001E-002   -0.43212432031834680     
   6.7199999999999996E-002   -0.22310760758353251     
   6.7500000000000004E-002     2.1745692212396528E-002
   6.7800000000000013E-002    0.29012364537295704     
   6.8099999999999994E-002    0.56744784785648794     
   6.8400000000000002E-002    0.83792323815588710     
   6.8700000000000011E-002     1.0853425383182493     
   6.8999999999999992E-002     1.2940774103204054     
   6.9300000000000000E-002     1.4504259978928529     
   6.9600000000000009E-002     1.5432785912079019     
   6.9900000000000004E-002     1.5648404523750012     
   7.0199999999999999E-002     1.5113859334065622     
   7.0500000000000007E-002     1.3833756590070456     
   7.0800000000000016E-002     1.1855858686460876     
   7.1099999999999997E-002    0.92669160123262428     
   7.1400000000000005E-002    0.61874843272312896     
   7.1700000000000000E-002    0.27633336459303059     
   7.1999999999999995E-002    -8.4052474296456361E-002
   7.2300000000000003E-002   -0.44516543024547067     
   7.2600000000000012E-002   -0.79008496630867642     
   7.2900000000000006E-002    -1.1028486604722434     
   7.3200000000000001E-002    -1.3694275759455494     
   7.3499999999999996E-002    -1.5782964392839487     
   7.3800000000000004E-002    -1.7206638037384228     
   7.4099999999999999E-002    -1.7911818213322062     
   7.4400000000000008E-002    -1.7876701541230164     
   7.4700000000000003E-002    -1.7110183418188991     
   7.5000000000000011E-002    -1.5651419328017691     
   7.5299999999999992E-002    -1.3569034483273228     
   7.5600000000000001E-002    -1.0952292800766079     
   7.5900000000000009E-002   -0.79060984560063985     
   7.6200000000000004E-002   -0.45549715133234092     
   7.6499999999999999E-002   -0.10282529358225455     
   7.6800000000000007E-002    0.25399938370159270     
   7.7099999999999988E-002    0.60182565951263278     
   7.7399999999999997E-002    0.92814124474998039     
   7.7700000000000005E-002     1.2213928815906099     
   7.8000000000000014E-002     1.4715752745542876     
   7.8299999999999995E-002     1.6703227925097563     
   7.8600000000000003E-002     1.8116618579340156     
   7.8900000000000012E-002     1.8915628391475374     
   7.9199999999999993E-002     1.9081315004477046     
   7.9500000000000001E-002     1.8619538746661892     
   7.9800000000000010E-002     1.7556793883205406     
   8.0100000000000018E-002     1.5938337029395073     
   8.0399999999999999E-002     1.3828590077339906     
   8.0700000000000008E-002     1.1304689782221653     
   8.1000000000000003E-002    0.84570385100340340     
   8.1299999999999997E-002    0.53899098193462991     
   8.1600000000000006E-002    0.22102135827945765     
   8.1900000000000014E-002    -9.6640750240374329E-002
   8.2199999999999995E-002   -0.40240076487918974     
   8.2500000000000004E-002   -0.68456215310761870     
   8.2799999999999999E-002   -0.93195129392649112     
   8.3100000000000007E-002    -1.1343392254884623     
   8.3400000000000002E-002    -1.2831207655629120     
   8.3700000000000011E-002    -1.3718507445730801     
   8.4000000000000005E-002    -1.3964885635699424     
   8.4300000000000000E-002    -1.3565830152919554     
   8.4599999999999995E-002    -1.2551884802216511     
   8.4900000000000003E-002    -1.0993614330986943     
   8.5199999999999998E-002   -0.89956678073145080     
   8.5500000000000007E-002   -0.66966200709838752     
   8.5800000000000001E-002   -0.42587197354297868     
   8.6100000000000010E-002   -0.18571906004925268     
   8.6399999999999991E-002     3.3490405326793503E-002
   8.6699999999999999E-002    0.21583359286758205     
   8.7000000000000008E-002    0.34835821939489020     
   8.7300000000000003E-002    0.42235780443985832     
   8.7599999999999997E-002    0.43356502793843033     
   8.7900000000000006E-002    0.38374427670186434     
   8.8200000000000014E-002    0.27954486616648816     
   8.8499999999999995E-002    0.13222840860147969     
   8.8800000000000004E-002    -4.3153529767259849E-002
   8.9100000000000013E-002   -0.22943718777751099     
   8.9399999999999993E-002   -0.40860829069708821     
   8.9700000000000002E-002   -0.56369877428249060     
   9.0000000000000011E-002   -0.67971081331285488     
   9.0299999999999991E-002   -0.74525905617176946     
   9.0600000000000000E-002   -0.75301689979688924     
   9.0900000000000009E-002   -0.70021624479743705     
   9.1200000000000017E-002   -0.58840299721051670     
   9.1499999999999998E-002   -0.42327729820781390     
   9.1800000000000007E-002   -0.21374849251502354     
   9.2100000000000001E-002     2.8648497954093893E-002
   9.2399999999999996E-002    0.29066082617684480     
   9.2700000000000005E-002    0.55830723161627516     
   9.3000000000000013E-002    0.81746310461878424     
   9.3300000000000008E-002     1.0548462949913771     
   9.3600000000000003E-002     1.2579275485493093     
   9.3899999999999997E-002     1.4155115035174353     
   9.4200000000000006E-002     1.5188569001223156     
   9.4500000000000001E-002     1.5606550166784501     
   9.4800000000000009E-002     1.5360964734908815     
   9.5100000000000004E-002     1.4435632427479481     
   9.5399999999999999E-002     1.2839474867317153     
   9.5699999999999993E-002     1.0613341501335933     
   9.6000000000000002E-002    0.78333808406603989     
   9.6300000000000011E-002    0.46097446537456938     
   9.6600000000000005E-002    0.10763007282313168     
   9.6900000000000000E-002   -0.26030695279321203     
   9.7200000000000009E-002   -0.62507927740512603     
   9.7499999999999989E-002   -0.96828234986490125     
   9.7799999999999998E-002    -1.2717747809834270     
   9.8100000000000007E-002    -1.5194989599743076     
   9.8400000000000015E-002    -1.6983097975519561     
   9.8699999999999996E-002    -1.7989309034872556     
   9.9000000000000005E-002    -1.8165320364957849     
   9.9300000000000013E-002    -1.7519644700142327     
   9.9599999999999994E-002    -1.6106398291171551     
   9.9900000000000003E-002    -1.4032387895280451     
  0.10020000000000001         -1.1442978513996771     
  0.10049999999999999        -0.85081482911458217     
  0.10080000000000000        -0.54197788855185969     
  0.10110000000000001        -0.23714034532679362     
  0.10140000000000000          4.5405630273197974E-002
  0.10170000000000000         0.29009199406094688     
  0.10200000000000001         0.48451954565308147     
  0.10230000000000002         0.62065691294219649     
  0.10260000000000000         0.69446343736967209     
  0.10290000000000001         0.70732683435294175     
  0.10320000000000000         0.66504788772613810     
  0.10350000000000001         0.57695478430485114     
  0.10380000000000000         0.45598843754285145     
  0.10410000000000001         0.31646990669098157     
  0.10440000000000001         0.17455318315757104     
  0.10470000000000000          4.5778580312972911E-002
  0.10500000000000000         -5.5476490341738870E-002
  0.10530000000000000        -0.11767332577467225     
  0.10560000000000000        -0.13210502476038138     
  0.10590000000000001         -9.4241671507649713E-002
  0.10620000000000000         -3.9272419898822601E-003
  0.10650000000000001         0.13477136728983588     
  0.10679999999999999         0.31259665748324611     
  0.10710000000000000         0.51777340151724349     
  0.10740000000000001         0.73533208646784254     
  0.10770000000000000         0.94849612053622667     
  0.10800000000000000          1.1402079058065118     
  0.10830000000000001          1.2942925892289929     
  0.10859999999999999          1.3968225918679456     
  0.10890000000000000          1.4373401596062507     
  0.10920000000000001          1.4091085370809577     
  0.10950000000000001          1.3096742779275685     
  0.10979999999999999          1.1413852092568495     
  0.11009999999999999         0.91064227412340537     
  0.11040000000000001         0.62722933674972681     
  0.11070000000000001         0.30337262123388242     
  0.11100000000000000         -4.6905350644028017E-002
  0.11130000000000000        -0.40890578271049960     
  0.11160000000000002        -0.76804764273662518     
  0.11190000000000001         -1.1103092583568308     
  0.11220000000000001         -1.4230604351021221     
  0.11250000000000000         -1.6942202055397930     
  0.11280000000000000         -1.9132032615501808     
  0.11309999999999999         -2.0702173944230600     
  0.11340000000000001         -2.1565151456378686     
  0.11369999999999998         -2.1641710047006573     
  0.11400000000000000         -2.0865502593574896     
  0.11430000000000000         -1.9190113765776160     
  0.11460000000000002         -1.6589034993132643     
  0.11489999999999999         -1.3075266047357146     
  0.11520000000000001        -0.86979438056301006     
  0.11550000000000001        -0.35578048866213974     
  0.11580000000000000         0.21904045340817035     
  0.11609999999999999         0.83439374669422306     
  0.11640000000000002          1.4647886897774474     
  0.11670000000000001          2.0810201388165623     
  0.11700000000000001          2.6516175562216251     
  0.11730000000000000          3.1442332624129867     
  0.11760000000000000          3.5284369400570328     
  0.11789999999999999          3.7768414466288989     
  0.11820000000000001          3.8677940832311797     
  0.11850000000000001          3.7862058145884738     
  0.11880000000000000          3.5257263617185064     
  0.11910000000000000          3.0883384136277114     
  0.11940000000000002          2.4856195766275397     
  0.11970000000000001          1.7377550830434454     
  0.12000000000000001         0.87256122889701515     
  0.12030000000000000         -7.3821476351165427E-002
  0.12060000000000000         -1.0604632005677530     
  0.12089999999999999         -2.0422685367773306     
  0.12119999999999999         -2.9715741012606300     
  0.12150000000000001         -3.8006747199911644     
  0.12180000000000001         -4.4841218506684024     
  0.12210000000000000         -4.9805222128217457     
  0.12239999999999999         -5.2563782342109686     
  0.12270000000000002         -5.2877808227464769     
  0.12300000000000001         -5.0622039430093322     
  0.12330000000000001         -4.5820317806824802     
  0.12360000000000000         -3.8644288048097550     
  0.12390000000000000         -2.9425733453145195     
  0.12419999999999999         -1.8650059949886859     
  0.12450000000000001        -0.69255716871617246     
  0.12480000000000001         0.50365996366985144     
  0.12509999999999999          1.6476273659556937     
  0.12540000000000001          2.6625800364118768     
  0.12570000000000003          3.4780769666252871     
  0.12600000000000000          4.0354824444598050     
  0.12630000000000002          4.2932744435329591     
  0.12659999999999999          4.2311358859041954     
  0.12690000000000001          3.8525162115269955     
  0.12719999999999998          3.1868448564516982     
  0.12750000000000000          2.2868011216900879     
  0.12780000000000002          1.2259413120703546     
  0.12809999999999999          9.2659943569021769E-002
  0.12840000000000001         -1.0162173607807772     
  0.12869999999999998         -2.0026021193031167     
  0.12900000000000000         -2.7759828822974604     
  0.12930000000000003         -3.2616052916945293     
  0.12959999999999999         -3.4063465882335793     
  0.12990000000000002         -3.1839235074925103     
  0.13019999999999998         -2.5980756449214799     
  0.13050000000000000         -1.6826129012874136     
  0.13080000000000003        -0.50041686636602822     
  0.13109999999999999         0.86238601200145959     
  0.13140000000000002          2.3022311126903263     
  0.13169999999999998          3.7062631192423212     
  0.13200000000000001          4.9608584112633114     
  0.13229999999999997          5.9609046734550066     
  0.13260000000000000          6.6189032400368495     
  0.13290000000000002          6.8704291189459603     
  0.13319999999999999          6.6809111391247562     
  0.13350000000000001          6.0473905262016103     
  0.13380000000000003          4.9995093858424013     
  0.13410000000000000          3.5970976692235741     
  0.13440000000000002          1.9255008840919514     
  0.13469999999999999          8.9247391805509238E-002
  0.13500000000000001         -1.7953106432150396     
  0.13529999999999998         -3.6093109110445769     
  0.13560000000000000         -5.2390332841370491     
  0.13590000000000002         -6.5849257262753387     
  0.13619999999999999         -7.5673981547507525     
  0.13650000000000001         -8.1325999184005457     
  0.13680000000000003         -8.2554493826920243     
  0.13710000000000000         -7.9405771135468406     
  0.13740000000000002         -7.2216096678972255     
  0.13769999999999999         -6.1573968579974059     
  0.13800000000000001         -4.8288307707315221     
  0.13829999999999998         -3.3314471622122861     
  0.13860000000000000         -1.7696938750343243     
  0.13890000000000002        -0.24954239540108922     
  0.13919999999999999          1.1282651445426037     
  0.13950000000000001          2.2748427511504725     
  0.13979999999999998          3.1175041392571385     
  0.14010000000000000          3.6056859730604556     
  0.14040000000000002          3.7125568641015749     
  0.14069999999999999          3.4363248583741863     
  0.14100000000000001          2.7999353599051164     
  0.14130000000000004          1.8497067809576135     
  0.14160000000000000         0.65247571757058820     
  0.14189999999999997        -0.70972204954807194     
  0.14219999999999999         -2.1440355963924511     
  0.14250000000000002         -3.5523953736744347     
  0.14279999999999998         -4.8376384186165167     
  0.14310000000000000         -5.9081373710481788     
  0.14339999999999997         -6.6848621933360164     
  0.14369999999999999         -7.1048918377123300     
  0.14400000000000002         -7.1247201583588042     
  0.14429999999999998         -6.7229242917808758     
  0.14460000000000001         -5.9019146497011361     
  0.14490000000000003         -4.6863565877067161     
  0.14520000000000000         -3.1235091985959267     
  0.14550000000000002         -1.2793958326566550     
  0.14579999999999999         0.76496959186580704     
  0.14610000000000001          2.9173276671323922     
  0.14640000000000003          5.0780477979096430     
  0.14670000000000000          7.1474257175132898     
  0.14699999999999996          9.0287104503533708     
  0.14729999999999999          10.634837252651392     
  0.14760000000000001          11.891908761825356     
  0.14789999999999998          12.741965420443664     
  0.14820000000000000          13.148214472816798     