  -1.4999999999999999E-002     0.0000000000000000     
  -1.4700000000000000E-002     0.0000000000000000     
  -1.4400000000000000E-002     0.0000000000000000     
  -1.4100000000000000E-002     0.0000000000000000     
  -1.3800000000000000E-002     0.0000000000000000     
  -1.3500000000000000E-002     0.0000000000000000     
  -1.3200000000000000E-002     0.0000000000000000     
  -1.2899999999999998E-002     0.0000000000000000     
  -1.2600000000000000E-002     0.0000000000000000     
  -1.2299999999999998E-002     0.0000000000000000     
  -1.2000000000000000E-002     0.0000000000000000     
  -1.1699999999999999E-002     0.0000000000000000     
  -1.1399999999999999E-002     0.0000000000000000     
  -1.1099999999999999E-002     0.0000000000000000     
  -1.0799999999999999E-002     0.0000000000000000     
  -1.0499999999999999E-002     0.0000000000000000     
  -1.0199999999999999E-002     0.0000000000000000     
  -9.8999999999999991E-003     0.0000000000000000     
  -9.5999999999999992E-003     0.0000000000000000     
  -9.2999999999999992E-003     0.0000000000000000     
  -8.9999999999999993E-003     0.0000000000000000     
  -8.6999999999999994E-003     0.0000000000000000     
  -8.3999999999999995E-003     0.0000000000000000     
  -8.0999999999999996E-003     0.0000000000000000     
  -7.7999999999999988E-003     0.0000000000000000     
  -7.4999999999999997E-003     0.0000000000000000     
  -7.1999999999999998E-003     0.0000000000000000     
  -6.8999999999999981E-003     0.0000000000000000     
  -6.5999999999999982E-003     0.0000000000000000     
  -6.3000000000000000E-003     0.0000000000000000     
  -6.0000000000000001E-003     0.0000000000000000     
  -5.6999999999999985E-003     0.0000000000000000     
  -5.3999999999999986E-003     0.0000000000000000     
  -5.1000000000000004E-003     0.0000000000000000     
  -4.7999999999999987E-003     0.0000000000000000     
  -4.5000000000000005E-003     0.0000000000000000     
  -4.1999999999999989E-003     0.0000000000000000     
  -3.8999999999999990E-003     0.0000000000000000     
  -3.5999999999999990E-003     0.0000000000000000     
  -3.2999999999999991E-003     0.0000000000000000     
  -2.9999999999999992E-003     0.0000000000000000     
  -2.6999999999999993E-003     0.0000000000000000     
  -2.3999999999999994E-003     0.0000000000000000     
  -2.0999999999999977E-003     0.0000000000000000     
  -1.7999999999999995E-003     0.0000000000000000     
  -1.4999999999999979E-003     0.0000000000000000     
  -1.1999999999999997E-003     0.0000000000000000     
  -8.9999999999999976E-004     0.0000000000000000     
  -5.9999999999999810E-004     0.0000000000000000     
  -2.9999999999999992E-004     0.0000000000000000     
   0.0000000000000000          0.0000000000000000     
   3.0000000000000165E-004     0.0000000000000000     
   5.9999999999999984E-004     0.0000000000000000     
   9.0000000000000149E-004     0.0000000000000000     
   1.2000000000000031E-003     0.0000000000000000     
   1.5000000000000013E-003     0.0000000000000000     
   1.8000000000000030E-003     0.0000000000000000     
   2.1000000000000012E-003     0.0000000000000000     
   2.3999999999999994E-003     0.0000000000000000     
   2.7000000000000010E-003     0.0000000000000000     
   2.9999999999999992E-003     0.0000000000000000     
   3.3000000000000008E-003     0.0000000000000000     
   3.6000000000000025E-003     0.0000000000000000     
   3.9000000000000007E-003     0.0000000000000000     
   4.2000000000000023E-003     0.0000000000000000     
   4.5000000000000005E-003     0.0000000000000000     
   4.7999999999999987E-003     0.0000000000000000     
   5.1000000000000004E-003     0.0000000000000000     
   5.4000000000000020E-003     0.0000000000000000     
   5.7000000000000037E-003     0.0000000000000000     
   5.9999999999999984E-003     0.0000000000000000     
   6.3000000000000000E-003     0.0000000000000000     
   6.6000000000000017E-003     0.0000000000000000     
   6.9000000000000034E-003     0.0000000000000000     
   7.2000000000000015E-003     0.0000000000000000     
   7.5000000000000032E-003     0.0000000000000000     
   7.8000000000000014E-003     0.0000000000000000     
   8.0999999999999996E-003     0.0000000000000000     
   8.4000000000000012E-003     0.0000000000000000     
   8.7000000000000029E-003     0.0000000000000000     
   9.0000000000000011E-003     0.0000000000000000     
   9.2999999999999992E-003     0.0000000000000000     
   9.6000000000000009E-003     0.0000000000000000     
   9.8999999999999991E-003     0.0000000000000000     
   1.0200000000000001E-002     0.0000000000000000     
   1.0500000000000002E-002     0.0000000000000000     
   1.0800000000000004E-002     0.0000000000000000     
   1.1099999999999999E-002     0.0000000000000000     
   1.1400000000000000E-002     0.0000000000000000     
   1.1700000000000002E-002     0.0000000000000000     
   1.2000000000000004E-002     0.0000000000000000     
   1.2300000000000002E-002     0.0000000000000000     
   1.2600000000000000E-002     0.0000000000000000     
   1.2900000000000002E-002     0.0000000000000000     
   1.3200000000000000E-002     0.0000000000000000     
   1.3500000000000002E-002     0.0000000000000000     
   1.3800000000000003E-002     0.0000000000000000     
   1.4100000000000001E-002     0.0000000000000000     
   1.4400000000000000E-002     0.0000000000000000     
   1.4700000000000001E-002     0.0000000000000000     
   1.4999999999999999E-002     0.0000000000000000     
   1.5300000000000001E-002     0.0000000000000000     
   1.5600000000000003E-002     0.0000000000000000     
   1.5899999999999997E-002     0.0000000000000000     
   1.6199999999999999E-002     0.0000000000000000     
   1.6500000000000001E-002     0.0000000000000000     
   1.6800000000000002E-002     0.0000000000000000     
   1.7100000000000004E-002     0.0000000000000000     
   1.7400000000000006E-002     0.0000000000000000     
   1.7700000000000000E-002     0.0000000000000000     
   1.8000000000000002E-002     0.0000000000000000     
   1.8300000000000004E-002     0.0000000000000000     
   1.8600000000000005E-002     0.0000000000000000     
   1.8900000000000000E-002     0.0000000000000000     
   1.9200000000000002E-002     0.0000000000000000     
   1.9500000000000003E-002     0.0000000000000000     
   1.9799999999999998E-002     0.0000000000000000     
   2.0100000000000000E-002     0.0000000000000000     
   2.0400000000000001E-002     0.0000000000000000     
   2.0700000000000003E-002     0.0000000000000000     
   2.0999999999999998E-002     0.0000000000000000     
   2.1299999999999999E-002     0.0000000000000000     
   2.1600000000000001E-002     0.0000000000000000     
   2.1900000000000003E-002     0.0000000000000000     
   2.2200000000000004E-002     0.0000000000000000     
   2.2500000000000006E-002     0.0000000000000000     
   2.2800000000000001E-002     0.0000000000000000     
   2.3100000000000002E-002     0.0000000000000000     
   2.3400000000000004E-002     0.0000000000000000     
   2.3699999999999999E-002     0.0000000000000000     
   2.4000000000000000E-002     0.0000000000000000     
   2.4300000000000002E-002     0.0000000000000000     
   2.4599999999999997E-002     0.0000000000000000     
   2.4900000000000005E-002     0.0000000000000000     
   2.5200000000000000E-002     0.0000000000000000     
   2.5499999999999995E-002     0.0000000000000000     
   2.5800000000000003E-002     0.0000000000000000     
   2.6099999999999998E-002     0.0000000000000000     
   2.6400000000000007E-002     0.0000000000000000     
   2.6700000000000002E-002     0.0000000000000000     
   2.6999999999999996E-002     0.0000000000000000     
   2.7300000000000005E-002     0.0000000000000000     
   2.7600000000000000E-002     0.0000000000000000     
   2.7900000000000008E-002     0.0000000000000000     
   2.8200000000000003E-002     0.0000000000000000     
   2.8499999999999998E-002     0.0000000000000000     
   2.8800000000000006E-002     0.0000000000000000     
   2.9100000000000001E-002     0.0000000000000000     
   2.9400000000000003E-002     0.0000000000000000     
   2.9700000000000004E-002     0.0000000000000000     
   3.0000000000000006E-002     0.0000000000000000     
   3.0300000000000001E-002     0.0000000000000000     
   3.0600000000000002E-002     0.0000000000000000     
   3.0900000000000004E-002     0.0000000000000000     
   3.1199999999999999E-002     0.0000000000000000     
   3.1500000000000007E-002     0.0000000000000000     
   3.1800000000000002E-002     0.0000000000000000     
   3.2099999999999997E-002     0.0000000000000000     
   3.2400000000000005E-002     0.0000000000000000     
   3.2700000000000000E-002    -4.3493664830293186E-045
   3.3000000000000002E-002     1.0848292840023752E-043
   3.3300000000000003E-002    -1.0132159203178938E-042
   3.3599999999999998E-002    -2.8885819725722509E-036
   3.3900000000000000E-002    -8.5133200782489936E-035
   3.4200000000000001E-002     4.1933355304133979E-034
   3.4500000000000003E-002    -1.7139996148954201E-033
   3.4799999999999998E-002     5.8877702446985885E-033
   3.5099999999999999E-002    -1.7970659050084973E-032
   3.5400000000000001E-002     4.4388987678040554E-032
   3.5699999999999996E-002    -8.5587352801248903E-032
   3.6000000000000004E-002     1.0054782447804235E-031
   3.6299999999999999E-002     1.0813762209844157E-031
   3.6600000000000008E-002    -1.1531625383477958E-030
   3.6900000000000002E-002     4.4777846798669713E-030
   3.7199999999999997E-002    -1.2528697494348430E-029
   3.7500000000000006E-002     2.6938388406857953E-029
   3.7800000000000000E-002    -3.9588845024814431E-029
   3.8100000000000009E-002     5.1491897847770803E-030
   3.8400000000000004E-002     2.2308875815036318E-028
   3.8699999999999998E-002    -1.0031561115877413E-027
   3.9000000000000007E-002     2.9887060810286684E-027
   3.9300000000000002E-002    -6.8291091383419954E-027
   3.9600000000000003E-002     1.1413162350792681E-026
   3.9900000000000005E-002    -8.3835770482260115E-027
   4.0200000000000000E-002    -2.9929665331508663E-026
   4.0500000000000001E-002     1.6722703479881882E-025
   4.0800000000000003E-002    -5.0080070456016884E-025
   4.1100000000000005E-002     1.0602776748477579E-024
   4.1399999999999999E-002    -1.4422365068129336E-024
   4.1700000000000008E-002     9.0582955509519631E-027
   4.2000000000000003E-002     7.0847812951961795E-024
   4.2299999999999997E-002    -2.5241255390529734E-023
   4.2600000000000006E-002     5.4411458784875578E-023
   4.2900000000000001E-002    -6.9080282683353996E-023
   4.3200000000000002E-002    -1.3217591844942126E-023
   4.3500000000000004E-002     3.3875955031016895E-022
   4.3799999999999999E-002    -9.9681437275303405E-022
   4.4100000000000000E-002     1.6245440082703127E-021
   4.4400000000000002E-002    -7.6266449929590787E-022
   4.4700000000000004E-002    -4.2956929164606757E-021
   4.4999999999999998E-002     1.5005543345909978E-020
   4.5300000000000000E-002    -2.3376587146618577E-020
   4.5600000000000002E-002     6.2313850363869735E-023
   4.5899999999999996E-002     9.7147545644382963E-020
   4.6200000000000005E-002    -2.3084884098455931E-019
   4.6500000000000000E-002     6.9147976342526117E-020
   4.6799999999999994E-002     1.0501445140733736E-018
   4.7100000000000003E-002    -2.9042077525668821E-018
   4.7399999999999998E-002     1.1557166510326058E-018
   4.7700000000000006E-002     1.2342579509185326E-017
   4.8000000000000001E-002    -2.5542845294099385E-017
   4.8300000000000010E-002    -5.6497089980020705E-017
   4.8600000000000004E-002     4.1714243953199048E-016
   4.8899999999999999E-002    -9.4006051699882882E-016
   4.9200000000000008E-002     2.1022441488142463E-016
   4.9500000000000002E-002     4.6270886592217361E-015
   4.9800000000000011E-002    -1.3092932741593620E-014
   5.0100000000000006E-002     1.3715733069461325E-014
   5.0400000000000000E-002    -6.8433306526237275E-015
   5.0700000000000009E-002     1.2091266612526003E-013
   5.1000000000000004E-002    -7.4155260329971524E-013
   5.1299999999999998E-002     2.0087306389999741E-012
   5.1600000000000007E-002    -1.4038149420561315E-012
   5.1900000000000002E-002    -1.0526827445528933E-011
   5.2200000000000010E-002     4.9648244974539774E-011
   5.2500000000000005E-002    -1.1309054016350461E-010
   5.2800000000000000E-002     9.7267149677110642E-011
   5.3099999999999994E-002     3.4082746984435211E-010
   5.3400000000000003E-002    -1.7265682652214315E-009
   5.3699999999999998E-002     3.5294201129773744E-009
   5.4000000000000006E-002    -5.2763188689525275E-010
   5.4300000000000001E-002    -1.8396253677427367E-008
   5.4599999999999996E-002     4.5779367504256637E-008
   5.4900000000000004E-002     2.1249887672688200E-010
   5.5199999999999999E-002    -2.3226948629390870E-007
   5.5499999999999994E-002     2.6932509197886857E-007
   5.5800000000000002E-002     1.4757540768590390E-006
   5.6099999999999997E-002     2.0094865248050597E-006
   5.6400000000000006E-002     1.8182290093400724E-006
   5.6700000000000000E-002     1.5230154341870161E-006
   5.6999999999999995E-002     2.6892896260375626E-006
   5.7300000000000004E-002     6.8077734083831938E-006
   5.7599999999999998E-002     1.1718753835315465E-005
   5.7900000000000007E-002     1.6131442908090224E-005
   5.8200000000000002E-002     2.2033289638048274E-005
   5.8499999999999996E-002     3.2009187015576403E-005
   5.8800000000000005E-002     4.8172656628988764E-005
   5.9100000000000000E-002     6.9943833807669723E-005
   5.9400000000000008E-002     9.7345591249418115E-005
   5.9700000000000003E-002     1.3304896880246274E-004
   6.0000000000000012E-002     1.8015259972627766E-004
   6.0300000000000006E-002     2.4139830521074295E-004
   6.0600000000000001E-002     3.1839277766549995E-004
   6.0900000000000010E-002     4.1391038330490650E-004
   6.1200000000000004E-002     5.2995599849949275E-004
   6.1500000000000013E-002     6.6499951947096873E-004
   6.1800000000000008E-002     8.1523547380849091E-004
   6.2100000000000002E-002     9.7550596527658207E-004
   6.2399999999999997E-002     1.1410253370178786E-003
   6.2700000000000006E-002     1.3047838735616960E-003
   6.3000000000000000E-002     1.4524875787493578E-003
   6.3300000000000009E-002     1.5603793473086317E-003
   6.3600000000000004E-002     1.6020899432126617E-003
   6.3899999999999998E-002     1.5520176577823780E-003
   6.4199999999999993E-002     1.3810368938420310E-003
   6.4500000000000002E-002     1.0605239130943972E-003
   6.4800000000000010E-002     5.6192424626694336E-004
   6.5100000000000005E-002    -1.3934091599983829E-004
   6.5400000000000000E-002    -1.0592141807287390E-003
   6.5700000000000008E-002    -2.2011152709333799E-003
   6.5999999999999989E-002    -3.5390984289316988E-003
   6.6299999999999998E-002    -5.0215981938219294E-003
   6.6600000000000006E-002    -6.5841754375917799E-003
   6.6900000000000001E-002    -8.1352047892011906E-003
   6.7199999999999996E-002    -9.5445567392282403E-003
   6.7500000000000004E-002    -1.0653311343114171E-002
   6.7800000000000013E-002    -1.1292002352951700E-002
   6.8099999999999994E-002    -1.1278273080162831E-002
   6.8400000000000002E-002    -1.0428501169677269E-002
   6.8700000000000011E-002    -8.5856414112082096E-003
   6.8999999999999992E-002    -5.6368277358092118E-003
   6.9300000000000000E-002    -1.5322399592998465E-003
   6.9600000000000009E-002     3.6747899877952119E-003
   6.9900000000000004E-002     9.8156221994684101E-003
   7.0199999999999999E-002     1.6593887276159413E-002
   7.0500000000000007E-002     2.3568675486602537E-002
   7.0800000000000016E-002     3.0146658942184084E-002
   7.1099999999999997E-002     3.5598744338709173E-002
   7.1400000000000005E-002     3.9095540516363457E-002
   7.1700000000000000E-002     3.9759097146535242E-002
   7.1999999999999995E-002     3.6716142851594059E-002
   7.2300000000000003E-002     2.9165281996848345E-002
   7.2600000000000012E-002     1.6475608705018501E-002
   7.2900000000000006E-002    -1.7211948869793731E-003
   7.3200000000000001E-002    -2.5447904552358801E-002
   7.3499999999999996E-002    -5.4300200400372443E-002
   7.3800000000000004E-002    -8.7438340362041664E-002
   7.4099999999999999E-002   -0.12354462042638081     
   7.4400000000000008E-002   -0.16086957727470033     
   7.4700000000000003E-002   -0.19725393586463333     
   7.5000000000000011E-002   -0.23030171618298304     
   7.5299999999999992E-002   -0.25751423194538559     
   7.5600000000000001E-002   -0.27646839043346599     
   7.5900000000000009E-002   -0.28499167684703658     
   7.6200000000000004E-002   -0.28141131656826945     
   7.6499999999999999E-002   -0.26467907244914213     
   7.6800000000000007E-002   -0.23453794407516040     
   7.7099999999999988E-002   -0.19162139459282895     
   7.7399999999999997E-002   -0.13745804462502567     
   7.7700000000000005E-002    -7.4465309422452927E-002
   7.8000000000000014E-002    -5.7453051860792579E-003
   7.8299999999999995E-002     6.5018624647119480E-002
   7.8600000000000003E-002    0.13386312887370397     
   7.8900000000000012E-002    0.19675756264660085     
   7.9199999999999993E-002    0.24995208599116972     
   7.9500000000000001E-002    0.29020994315284865     
   7.9800000000000010E-002    0.31510498659940822     
   8.0100000000000018E-002    0.32315510209092135     
   8.0399999999999999E-002    0.31403136126258180     
   8.0700000000000008E-002    0.28850328980691953     
   8.1000000000000003E-002    0.24852262680271706     
   8.1299999999999997E-002    0.19701907457883269     
   8.1600000000000006E-002    0.13780287484191880     
   8.1900000000000014E-002     7.5221217815595653E-002
   8.2199999999999995E-002     1.3993603855615541E-002
   8.2500000000000004E-002    -4.1219113864910763E-002
   8.2799999999999999E-002    -8.6093200474627499E-002
   8.3100000000000007E-002   -0.11697637114372766     
   8.3400000000000002E-002   -0.13120009610001401     
   8.3700000000000011E-002   -0.12720895490130915     
   8.4000000000000005E-002   -0.10485601462674576     
   8.4300000000000000E-002    -6.5426381202033243E-002
   8.4599999999999995E-002    -1.1522342204203517E-002
   8.4900000000000003E-002     5.3023552632050219E-002
   8.5199999999999998E-002    0.12342964086734230     
   8.5500000000000007E-002    0.19433991339286491     
   8.5800000000000001E-002    0.26015480826530529     
   8.6100000000000010E-002    0.31567104865895529     
   8.6399999999999991E-002    0.35628150858795771     
   8.6699999999999999E-002    0.37857298778290926     
   8.7000000000000008E-002    0.38051258057806181     
   8.7300000000000003E-002    0.36164010943965041     
   8.7599999999999997E-002    0.32314397186569971     
   8.7900000000000006E-002    0.26765589185579647     
   8.8200000000000014E-002    0.19906319499880490     
   8.8499999999999995E-002    0.12208624132315446     
   8.8800000000000004E-002     4.1808427860372123E-002
   8.9100000000000013E-002    -3.6671541250985706E-002
   8.9399999999999993E-002   -0.10880631973056848     
   8.9700000000000002E-002   -0.17086905652235959     
   9.0000000000000011E-002   -0.22018690449674763     
   9.0299999999999991E-002   -0.25535943776777081     
   9.0600000000000000E-002   -0.27600728786770218     
   9.0900000000000009E-002   -0.28273512918227395     
   9.1200000000000017E-002   -0.27683244873449608     
   9.1499999999999998E-002   -0.26003171519744417     
   9.1800000000000007E-002   -0.23398423061713355     
   9.2100000000000001E-002   -0.20010983724754422     
   9.2399999999999996E-002   -0.15948547175808556     
   9.2700000000000005E-002   -0.11259048958639317     
   9.3000000000000013E-002    -5.9429454125612305E-002
   9.3300000000000008E-002     2.6496247011201978E-004
   9.3600000000000003E-002     6.6713421281065180E-002
   9.3899999999999997E-002    0.13976959578898016     
   9.4200000000000006E-002    0.21868285028724171     
   9.4500000000000001E-002    0.30159092708377572     
   9.4800000000000009E-002    0.38535604402009876     
   9.5100000000000004E-002    0.46565962112033349     
   9.5399999999999999E-002    0.53702509427790268     
   9.5699999999999993E-002    0.59311163206673145     
   9.6000000000000002E-002    0.62727373395861685     
   9.6300000000000011E-002    0.63327299912947621     
   9.6600000000000005E-002    0.60588692836150260     
   9.6900000000000000E-002    0.54169361913457725     
   9.7200000000000009E-002    0.43974124495930589     
   9.7499999999999989E-002    0.30191584589858139     
   9.7799999999999998E-002    0.13320509387647342     
   9.8100000000000007E-002    -5.8491316991741996E-002
   9.8400000000000015E-002   -0.26259815949110221     
   9.8699999999999996E-002   -0.46682617047348207     
   9.9000000000000005E-002   -0.65794205371399861     
   9.9300000000000013E-002   -0.82305311619574295     
   9.9599999999999994E-002   -0.95054452897886199     
   9.9900000000000003E-002    -1.0313281932886513     
  0.10020000000000001         -1.0596268099697419     
  0.10049999999999999         -1.0336698231031527     
  0.10080000000000000        -0.95564925317234428     
  0.10110000000000001        -0.83173751856772737     
  0.10140000000000000        -0.67135239139282699     
  0.10170000000000000        -0.48646319917139208     
  0.10200000000000001        -0.29022200445822632     
  0.10230000000000002         -9.6100670892008355E-002
  0.10260000000000000          8.3569606678069758E-002
  0.10290000000000001         0.23818920812257316     
  0.10320000000000000         0.36011347281080580     
  0.10350000000000001         0.44440966966420953     
  0.10380000000000000         0.48947486584966843     
  0.10410000000000001         0.49652302911983831     
  0.10440000000000001         0.46908060852161826     
  0.10470000000000000         0.41240756462438405     
  0.10500000000000000         0.33269217052516165     
  0.10530000000000000         0.23655182293076818     
  0.10560000000000000         0.13033572741303992     
  0.10590000000000001          1.9792746030193795E-002
  0.10620000000000000         -8.9959017868706859E-002
  0.10650000000000001        -0.19463783685814426     
  0.10679999999999999        -0.29046836233380946     
  0.10710000000000000        -0.37416242964103624     
  0.10740000000000001        -0.44252436561350356     
  0.10770000000000000        -0.49248244496652577     
  0.10800000000000000        -0.52106656826258069     
  0.10830000000000001        -0.52564724676477792     
  0.10859999999999999        -0.50423016869785131     
  0.10890000000000000        -0.45570272397755235     
  0.10920000000000001        -0.38052133505087071     
  0.10950000000000001        -0.28095151488214970     
  0.10979999999999999        -0.16141793966853299     
  0.11009999999999999         -2.8409351469981723E-002
  0.11040000000000001         0.10973596804954185     
  0.11070000000000001         0.24318208492364585     
  0.11100000000000000         0.36143508227583188     
  0.11130000000000000         0.45443175935452118     
  0.11160000000000002         0.51318151605232898     
  0.11190000000000001         0.53099197317080116     
  0.11220000000000001         0.50411635349634787     
  0.11250000000000000         0.43250208610906793     
  0.11280000000000000         0.31976779916332754     
  0.11309999999999999         0.17309431766041178     
  0.11340000000000001          2.7831327244676870E-003
  0.11369999999999998        -0.17867500833358549     
  0.11400000000000000        -0.35757479087974758     
  0.11430000000000000        -0.52024437597469009     
  0.11460000000000002        -0.65410649883408634     
  0.11489999999999999        -0.74870793598798346     
  0.11520000000000001        -0.79635933155736061     
  0.11550000000000001        -0.79294838292915582     
  0.11580000000000000        -0.73737538513833756     
  0.11609999999999999        -0.63200622579702015     
  0.11640000000000002        -0.48202996641678597     
  0.11670000000000001        -0.29477505783583346     
  0.11700000000000001         -7.8951333075888308E-002
  0.11730000000000000         0.15567589602507886     
  0.11760000000000000         0.39910567066744945     
  0.11789999999999999         0.64156651017281752     
  0.11820000000000001         0.87382762240413636     
  0.11850000000000001          1.0869014619499169     
  0.11880000000000000          1.2728098878446803     
  0.11910000000000000          1.4240307945116888     
  0.11940000000000002          1.5339144496372363     
  0.11970000000000001          1.5963952465339186     
  0.12000000000000001          1.6066411561281226     
  0.12030000000000000          1.5611419419494055     
  0.12060000000000000          1.4580009843800836     
  0.12089999999999999          1.2977139558111590     
  0.12119999999999999          1.0833866159919703     
  0.12150000000000001         0.82091690429086017     
  0.12180000000000001         0.51945449127231080     
  0.12210000000000000         0.19081596815462168     
  0.12239999999999999        -0.15029270926875446     
  0.12270000000000002        -0.48773549067429361     
  0.12300000000000001        -0.80422768494117314     
  0.12330000000000001         -1.0829661170868292     
  0.12360000000000000         -1.3086054523571429     
  0.12390000000000000         -1.4683781972451431     
  0.12419999999999999         -1.5532164593428643     
  0.12450000000000001         -1.5589785505585287     
  0.12480000000000001         -1.4861358249998369     
  0.12509999999999999         -1.3404172430205876     
  0.12540000000000001         -1.1320556113966573     
  0.12570000000000003        -0.87549814254770997     
  0.12600000000000000        -0.58767559578334039     
  0.12630000000000002        -0.28724699657633890     
  0.12659999999999999          7.0984211288465677E-003
  0.12690000000000001         0.27778604551489861     
  0.12719999999999998         0.50995626370530989     
  0.12750000000000000         0.69206233394283589     
  0.12780000000000002         0.81656569963651693     
  0.12809999999999999         0.88026118113722207     
  0.12840000000000001         0.88425218015615525     
  0.12869999999999998         0.83321933094665968     
  0.12900000000000000         0.73522928806136678     
  0.12930000000000003         0.60040315921174303     
  0.12959999999999999         0.44048162922855150     
  0.12990000000000002         0.26782115834627568     
  0.13019999999999998          9.4353151287812159E-002
  0.13050000000000000         -6.8360640841734349E-002
  0.13080000000000003        -0.21050333312685604     
  0.13109999999999999        -0.32367356185487783     
  0.13140000000000002        -0.40145615421694952     
  0.13169999999999998        -0.43973332369301016     
  0.13200000000000001        -0.43620606023613806     
  0.13229999999999997        -0.39110554101033712     
  0.13260000000000000        -0.30684274465606887     
  0.13290000000000002        -0.18807775653387088     
  0.13319999999999999         -4.1489307237245240E-002
  0.13350000000000001         0.12436634126029890     
  0.13380000000000003         0.29921845913229750     
  0.13410000000000000         0.47175980685545205     
  0.13440000000000002         0.63013652567304612     
  0.13469999999999999         0.76263132611970974     
  0.13500000000000001         0.85840882912339167     
  0.13529999999999998         0.90816141223412949     
  0.13560000000000000         0.90496838055389872     
  0.13590000000000002         0.84460960660150297     
  0.13619999999999999         0.72642961859851485     
  0.13650000000000001         0.55290075831197372     
  0.13680000000000003         0.33011471023189232     
  0.13710000000000000          6.7003633324934780E-002
  0.13740000000000002        -0.22488709694209505     
  0.13769999999999999        -0.53225171191713305     
  0.13800000000000001        -0.84076237239328200     
  0.13829999999999998         -1.1360985556377330     
  0.13860000000000000         -1.4044329379963854     
  0.13890000000000002         -1.6336330538619115     
  0.13919999999999999         -1.8136209502907306     
  0.13950000000000001         -1.9365824590965526     
  0.13979999999999998         -1.9975335596810113     
  0.14010000000000000         -1.9941264259157097     
  0.14040000000000002         -1.9269631846875219     
  0.14069999999999999         -1.7988211748333185     
  0.14100000000000001         -1.6147888453596884     
  0.14130000000000004         -1.3818119260975261     
  0.14160000000000000         -1.1083138649375788     
  0.14189999999999997        -0.80395395218318122     
  0.14219999999999999        -0.47932268143902063     
  0.14250000000000002        -0.14559105064970412     
  0.14279999999999998         0.18585240051910820     
  0.14310000000000000         0.50393762969114841     
  0.14339999999999997         0.79768283946131402     
  0.14369999999999999          1.0572757795852570     
  0.14400000000000002          1.2740961290367994     
  0.14429999999999998          1.4414090998202864     
  0.14460000000000001          1.5545104554372315     
  0.14490000000000003          1.6113239278122000     
  0.14520000000000000          1.6123028701354911     
  0.14550000000000002          1.5607521215054103     
  0.14579999999999999          1.4625893501865064     
  0.14610000000000001          1.3262350233164661     
  0.14640000000000003          1.1615881610611787     
  0.14670000000000000         0.98020181210037394     
  0.14699999999999996         0.79383311173908111     
  0.14729999999999999         0.61434398004495250     
  0.14760000000000001         0.45239780701053844     
  0.14789999999999998         0.31712176239012613     
  0.14820000000000000         0.21559395713571286     