  -1.4999999999999999E-002     0.0000000000000000     
  -1.4700000000000000E-002     0.0000000000000000     
  -1.4400000000000000E-002     0.0000000000000000     
  -1.4100000000000000E-002     0.0000000000000000     
  -1.3800000000000000E-002     0.0000000000000000     
  -1.3500000000000000E-002     0.0000000000000000     
  -1.3200000000000000E-002     0.0000000000000000     
  -1.2899999999999998E-002     0.0000000000000000     
  -1.2600000000000000E-002     0.0000000000000000     
  -1.2299999999999998E-002     0.0000000000000000     
  -1.2000000000000000E-002     0.0000000000000000     
  -1.1699999999999999E-002     0.0000000000000000     
  -1.1399999999999999E-002     0.0000000000000000     
  -1.1099999999999999E-002     0.0000000000000000     
  -1.0799999999999999E-002     0.0000000000000000     
  -1.0499999999999999E-002     0.0000000000000000     
  -1.0199999999999999E-002     0.0000000000000000     
  -9.8999999999999991E-003     2.9006081321024431E-064
  -9.5999999999999992E-003    -2.2432669200443615E-063
  -9.2999999999999992E-003     9.2121883941805580E-064
  -8.9999999999999993E-003    -4.0266462583292267E-035
  -8.6999999999999994E-003     2.0819068148812329E-034
  -8.3999999999999995E-003     1.8765488315385769E-034
  -8.0999999999999996E-003    -5.6400374865666701E-034
  -7.7999999999999988E-003    -4.3811747021889757E-033
  -7.4999999999999997E-003     4.7791929827437703E-033
  -7.1999999999999998E-003     3.1566687104822161E-032
  -6.8999999999999981E-003    -3.2859589787660299E-032
  -6.5999999999999982E-003    -1.7414904506272266E-031
  -6.3000000000000000E-003    -7.2359193784140252E-032
  -6.0000000000000001E-003     7.9144175393424502E-031
  -5.6999999999999985E-003     3.1875054331497066E-030
  -5.3999999999999986E-003    -6.7267298778415223E-030
  -5.1000000000000004E-003    -1.8004953732603844E-029
  -4.7999999999999987E-003     3.6181517415207162E-029
  -4.5000000000000005E-003    -9.8867269057908229E-030
  -4.1999999999999989E-003     2.1455626839681564E-028
  -3.8999999999999990E-003    -3.0326096656800848E-028
  -3.5999999999999990E-003    -1.6425431980814741E-027
  -3.2999999999999991E-003     4.6321394027293154E-027
  -2.9999999999999992E-003    -6.0555587759453711E-027
  -2.6999999999999993E-003     1.3660929942067781E-026
  -2.3999999999999994E-003    -1.0530101571890128E-026
  -2.0999999999999977E-003    -7.1286572390681415E-026
  -1.7999999999999995E-003     2.0576895644957878E-025
  -1.4999999999999979E-003    -3.5987705600630622E-025
  -1.1999999999999997E-003     8.4120847870444492E-025
  -8.9999999999999976E-004    -1.2364962153922787E-024
  -5.9999999999999810E-004    -6.6892899836222824E-025
  -2.9999999999999992E-004     7.5189492555421089E-024
   0.0000000000000000         -2.5983472398061532E-023
   3.0000000000000165E-004     6.1724683866022597E-023
   5.9999999999999984E-004    -6.4422252703514944E-023
   9.0000000000000149E-004    -1.1870812958048596E-022
   1.2000000000000031E-003     6.4985794101238098E-022
   1.5000000000000013E-003    -1.3976154968549868E-021
   1.8000000000000030E-003     1.2008639145073819E-021
   2.1000000000000012E-003     2.6636262082918010E-021
   2.3999999999999994E-003    -1.1704410743794797E-020
   2.7000000000000010E-003     1.9006228356001263E-020
   2.9999999999999992E-003    -4.8283382554751035E-021
   3.3000000000000008E-003    -5.2165062858349075E-020
   3.6000000000000025E-003     1.3555677870742553E-019
   3.9000000000000007E-003    -1.4104382545382760E-019
   4.2000000000000023E-003    -8.9668414500638728E-020
   4.5000000000000005E-003     5.7386843460092046E-019
   4.7999999999999987E-003    -9.6965696118407713E-019
   5.1000000000000004E-003     6.0767272826301515E-019
   5.4000000000000020E-003     1.0570839092182137E-018
   5.7000000000000037E-003    -3.6807973184012477E-018
   5.9999999999999984E-003     5.6117849727788122E-018
   6.3000000000000000E-003    -4.2242221051652678E-018
   6.6000000000000017E-003    -3.8117211516176039E-018
   6.9000000000000034E-003     2.1165258514631948E-017
   7.2000000000000015E-003    -4.2859310118183606E-017
   7.5000000000000032E-003     4.5086235407304104E-017
   7.8000000000000014E-003     1.5158816705212632E-017
   8.0999999999999996E-003    -1.6468275070520375E-016
   8.4000000000000012E-003     3.3212081784601413E-016
   8.7000000000000029E-003    -2.8834003785745966E-016
   9.0000000000000011E-003    -2.3551068618454499E-016
   9.2999999999999992E-003     1.1943243837220195E-015
   9.6000000000000009E-003    -1.8717100541513921E-015
   9.8999999999999991E-003     1.0101803390502948E-015
   1.0200000000000001E-002     2.1512587204393218E-015
   1.0500000000000002E-002    -6.3313060897267140E-015
   1.0800000000000004E-002     7.7041668216448733E-015
   1.1099999999999999E-002    -1.9001771837272255E-015
   1.1400000000000000E-002    -1.1682024346312183E-014
   1.1700000000000002E-002     2.5754585328771293E-014
   1.2000000000000004E-002    -2.6014054843220389E-014
   1.2300000000000002E-002     5.1387886408613816E-016
   1.2600000000000000E-002     4.6277106530836939E-014
   1.2900000000000002E-002    -8.5831846390909010E-014
   1.3200000000000000E-002     7.6667998779257878E-014
   1.3500000000000002E-002     3.9982965928511848E-015
   1.3800000000000003E-002    -1.3123370203316443E-013
   1.4100000000000001E-002     2.3750426684953254E-013
   1.4400000000000000E-002    -2.4770663093577283E-013
   1.4700000000000001E-002     1.0538252253890647E-013
   1.4999999999999999E-002     2.2926422897890701E-013
   1.5300000000000001E-002    -7.5248247939968518E-013
   1.5600000000000003E-002     1.2477066556900985E-012
   1.5899999999999997E-002    -1.0518170192330787E-012
   1.6199999999999999E-002    -7.4377688799773645E-013
   1.6500000000000001E-002     4.1538061358060523E-012
   1.6800000000000002E-002    -6.6465716599124383E-012
   1.7100000000000004E-002     2.9599571535701121E-012
   1.7400000000000006E-002     1.0461025156786995E-011
   1.7700000000000000E-002    -2.5427901096181185E-011
   1.8000000000000002E-002     1.6686765104739916E-011
   1.8300000000000004E-002     3.2369228671414025E-011
   1.8600000000000005E-002    -7.2581746478941862E-011
   1.8900000000000000E-002     1.3980423899229164E-011
   1.9200000000000002E-002     5.3234950591127927E-011
   1.9500000000000003E-002     1.3894012608157696E-010
   1.9799999999999998E-002    -4.4712797409545088E-011
   2.0100000000000000E-002    -1.9678608329237394E-009
   2.0400000000000001E-002     3.2460470463287659E-009
   2.0700000000000003E-002     8.1828979067422566E-009
   2.0999999999999998E-002    -2.7827048656686195E-008
   2.1299999999999999E-002    -1.3254498496686635E-008
   2.1600000000000001E-002     1.3551617893366757E-007
   2.1900000000000003E-002    -4.5973151202159086E-008
   2.2200000000000004E-002    -5.6196053495818206E-007
   2.2500000000000006E-002     6.9101215672786248E-007
   2.2800000000000001E-002     5.9001623922595451E-006
   2.3100000000000002E-002     1.4332587260031685E-005
   2.3400000000000004E-002     2.3054064990443223E-005
   2.3699999999999999E-002     3.0136211236522673E-005
   2.4000000000000000E-002     4.0373394735115594E-005
   2.4300000000000002E-002     6.2666667404171560E-005
   2.4599999999999997E-002     9.6854683045463633E-005
   2.4900000000000005E-002     1.4271404085180949E-004
   2.5200000000000000E-002     2.0941111587496664E-004
   2.5499999999999995E-002     2.9550502108497242E-004
   2.5800000000000003E-002     4.1608472546276191E-004
   2.6099999999999998E-002     6.1458426207886972E-004
   2.6400000000000007E-002     8.8095864726731228E-004
   2.6700000000000002E-002     1.1868524847472083E-003
   2.6999999999999996E-002     1.5711537892555193E-003
   2.7300000000000005E-002     2.0649356734519708E-003
   2.7600000000000000E-002     2.6576950305049148E-003
   2.7900000000000008E-002     3.3332601417383062E-003
   2.8200000000000003E-002     4.0576235301722687E-003
   2.8499999999999998E-002     4.7718320098443139E-003
   2.8800000000000006E-002     5.3843321455201883E-003
   2.9100000000000001E-002     5.7638912707063481E-003
   2.9400000000000003E-002     5.7215803527974540E-003
   2.9700000000000004E-002     4.9882187561428541E-003
   3.0000000000000006E-002     3.2373439184476454E-003
   3.0300000000000001E-002     1.1415368425310035E-004
   3.0600000000000002E-002    -4.7712112972424815E-003
   3.0900000000000004E-002    -1.1830061937657777E-002
   3.1199999999999999E-002    -2.1453032738010372E-002
   3.1500000000000007E-002    -3.3932921276793419E-002
   3.1800000000000002E-002    -4.9381830855258373E-002
   3.2099999999999997E-002    -6.7667098294359559E-002
   3.2400000000000005E-002    -8.8300572719009582E-002
   3.2700000000000000E-002   -0.11035511131108550     
   3.3000000000000002E-002   -0.13241502922117135     
   3.3300000000000003E-002   -0.15252846800735692     
   3.3599999999999998E-002   -0.16815680619194476     
   3.3900000000000000E-002   -0.17625408245130361     
   3.4200000000000001E-002   -0.17342484361865859     
   3.4500000000000003E-002   -0.15606493086297948     
   3.4799999999999998E-002   -0.12063791113096850     
   3.5099999999999999E-002    -6.4021447196486489E-002
   3.5400000000000001E-002     1.6145235192398390E-002
   3.5699999999999996E-002    0.12102886531475306     
   3.6000000000000004E-002    0.25021040947022738     
   3.6299999999999999E-002    0.40144134385250879     
   3.6600000000000008E-002    0.57040209741114933     
   3.6900000000000002E-002    0.75053252320349384     
   3.7199999999999997E-002    0.93320896144347665     
   3.7500000000000006E-002     1.1080044733830963     
   3.7800000000000000E-002     1.2630737085166095     
   3.8100000000000009E-002     1.3858427091436425     
   3.8400000000000004E-002     1.4638134538824006     
   3.8699999999999998E-002     1.4853744808672225     
   3.9000000000000007E-002     1.4407365614566816     
   3.9300000000000002E-002     1.3227862387856522     
   3.9600000000000003E-002     1.1278896560102343     
   3.9900000000000005E-002    0.85653342546789002     
   4.0200000000000000E-002    0.51349319060757370     
   4.0500000000000001E-002    0.10810028227488874     
   4.0800000000000003E-002   -0.34613937847165299     
   4.1100000000000005E-002   -0.83200212021811659     
   4.1399999999999999E-002    -1.3293600351537667     
   4.1700000000000008E-002    -1.8163028130474277     
   4.2000000000000003E-002    -2.2700911026422954     
   4.2299999999999997E-002    -2.6685536445565918     
   4.2600000000000006E-002    -2.9914413100458792     
   4.2900000000000001E-002    -3.2213290384954010     
   4.3200000000000002E-002    -3.3447805121985268     
   4.3500000000000004E-002    -3.3530412391779296     
   4.3799999999999999E-002    -3.2424777202203159     
   4.4100000000000000E-002    -3.0147817735951183     
   4.4400000000000002E-002    -2.6769154603774012     
   4.4700000000000004E-002    -2.2406995739716762     
   4.4999999999999998E-002    -1.7223410944651472     
   4.5300000000000000E-002    -1.1414100152812101     
   4.5600000000000002E-002   -0.52013547189774922     
   4.5899999999999996E-002    0.11766864678004008     
   4.6200000000000005E-002    0.74772127062324811     
   4.6500000000000000E-002     1.3460052290477458     
   4.6799999999999994E-002     1.8902427342661370     
   4.7100000000000003E-002     2.3607364177539663     
   4.7399999999999998E-002     2.7412732197910836     
   4.7700000000000006E-002     3.0197132237234201     
   4.8000000000000001E-002     3.1884620824095435     
   4.8300000000000010E-002     3.2449520276846706     
   4.8600000000000004E-002     3.1917386683485858     
   4.8899999999999999E-002     3.0361219046349692     
   4.9200000000000008E-002     2.7899585311699076     
   4.9500000000000002E-002     2.4683602330979411     
   4.9800000000000011E-002     2.0892138878347586     
   5.0100000000000006E-002     1.6716296985606569     
   5.0400000000000000E-002     1.2349832283168196     
   5.0700000000000009E-002    0.79797299099162633     
   5.1000000000000004E-002    0.37736544566412772     
   5.1299999999999998E-002    -1.2817433312688635E-002
   5.1600000000000007E-002   -0.36152041837607996     
   5.1900000000000002E-002   -0.66123409525751853     
   5.2200000000000010E-002   -0.90757687801808995     
   5.2500000000000005E-002    -1.0992543922048073     
   5.2800000000000000E-002    -1.2376473198459967     
   5.3099999999999994E-002    -1.3259370589336390     
   5.3400000000000003E-002    -1.3685326843520327     
   5.3699999999999998E-002    -1.3710005547419770     
   5.4000000000000006E-002    -1.3389363542837986     
   5.4300000000000001E-002    -1.2787868022723734     
   5.4599999999999996E-002    -1.1966200093469901     
   5.4900000000000004E-002    -1.0987881618469595     
   5.5199999999999999E-002   -0.99163361134353878     
   5.5499999999999994E-002   -0.88137145347853596     
   5.5800000000000002E-002   -0.77465380513666215     
   5.6099999999999997E-002   -0.67778808959435766     
   5.6400000000000006E-002   -0.59716636871014628     
   5.6700000000000000E-002   -0.53886360762887942     
   5.6999999999999995E-002   -0.50747419207163991     
   5.7300000000000004E-002   -0.50655252585762356     
   5.7599999999999998E-002   -0.53799445393158729     
   5.7900000000000007E-002   -0.60111267509688249     
   5.8200000000000002E-002   -0.69308496895092009     
   5.8499999999999996E-002   -0.80836977233794005     
   5.8800000000000005E-002   -0.93871422595250065     
   5.9100000000000000E-002    -1.0731011857995885     
   5.9400000000000008E-002    -1.1980647106282594     
   5.9700000000000003E-002    -1.2988027614361166     
   6.0000000000000012E-002    -1.3590075071049608     
   6.0300000000000006E-002    -1.3622243698509906     
   6.0600000000000001E-002    -1.2927806656510370     
   6.0900000000000010E-002    -1.1365281589359058     
   6.1200000000000004E-002   -0.88241996303201387     
   6.1500000000000013E-002   -0.52368177155057150     
   6.1800000000000008E-002    -5.9281209700029106E-002
   6.2100000000000002E-002    0.50594497677913963     
   6.2399999999999997E-002     1.1592574347795530     
   6.2700000000000006E-002     1.8811302559259702     
   6.3000000000000000E-002     2.6436479619359545     
   6.3300000000000009E-002     3.4128215994468083     
   6.3600000000000004E-002     4.1487742298272385     
   6.3899999999999998E-002     4.8083692555419812     
   6.4199999999999993E-002     5.3477321735726813     
   6.4500000000000002E-002     5.7248088068162639     
   6.4800000000000010E-002     5.9032169562472649     
   6.5100000000000005E-002     5.8547011586807018     
   6.5400000000000000E-002     5.5619426882405891     
   6.5700000000000008E-002     5.0219503453656138     
   6.5999999999999989E-002     4.2460170647585000     
   6.6299999999999998E-002     3.2601445387040733     
   6.6600000000000006E-002     2.1050317731480765     
   6.6900000000000001E-002    0.83302166075390871     
   6.7199999999999996E-002   -0.49510717947239719     
   6.7500000000000004E-002    -1.8133535694667966     
   6.7800000000000013E-002    -3.0559373451594736     
   6.8099999999999994E-002    -4.1611209680756724     
   6.8400000000000002E-002    -5.0760279647422228     
   6.8700000000000011E-002    -5.7602201592259075     
   6.8999999999999992E-002    -6.1877933724381879     
   6.9300000000000000E-002    -6.3491088178839457     
   6.9600000000000009E-002    -6.2505179665767319     
   6.9900000000000004E-002    -5.9132157537209764     
   7.0199999999999999E-002    -5.3710447435387723     
   7.0500000000000007E-002    -4.6670099264480491     
   7.0800000000000016E-002    -3.8501687869435588     
   7.1099999999999997E-002    -2.9706788728959546     
   7.1400000000000005E-002    -2.0780032187732633     
   7.1700000000000000E-002    -1.2168813101446638     
   7.1999999999999995E-002   -0.42556228268755952     
   7.2300000000000003E-002    0.26524638452564075     
   7.2600000000000012E-002    0.83307165379918080     
   7.2900000000000006E-002     1.2636473319141002     
   7.3200000000000001E-002     1.5505230636537666     
   7.3499999999999996E-002     1.6939120547803774     
   7.3800000000000004E-002     1.6997195758783203     
   7.4099999999999999E-002     1.5795181072293432     
   7.4400000000000008E-002     1.3494791043736527     
   7.4700000000000003E-002     1.0304606169749977     
   7.5000000000000011E-002    0.64821948135767182     
   7.5299999999999992E-002    0.23300247737628393     
   7.5600000000000001E-002   -0.18082570889686819     
   7.5900000000000009E-002   -0.55555773305035216     
   7.6200000000000004E-002   -0.85230274077602020     
   7.6499999999999999E-002    -1.0322746180771103     
   7.6800000000000007E-002    -1.0604196937790165     
   7.7099999999999988E-002   -0.90790392231247152     
   7.7399999999999997E-002   -0.55668533483231697     
   7.7700000000000005E-002    -1.5687120792618971E-003
   7.8000000000000014E-002    0.74673344515520490     
   7.8299999999999995E-002     1.6602174399893608     
   7.8600000000000003E-002     2.6939499934351807     
   7.8900000000000012E-002     3.7885812097942693     
   7.9199999999999993E-002     4.8729721097090799     
   7.9500000000000001E-002     5.8694249377591037     
   7.9800000000000010E-002     6.6999794396422629     
   8.0100000000000018E-002     7.2922779593080369     
   8.0399999999999999E-002     7.5864535902954726     
   8.0700000000000008E-002     7.5409881203582501     
   8.1000000000000003E-002     7.1367560875375053     
   8.1299999999999997E-002     6.3798858030676344     
   8.1600000000000006E-002     5.3016158234708621     
   8.1900000000000014E-002     3.9567492828605331     
   8.2199999999999995E-002     2.4187121908031113     
   8.2500000000000004E-002    0.77481319424169370     
   8.2799999999999999E-002   -0.88210506655764842     
   8.3100000000000007E-002    -2.4612026673897747     
   8.3400000000000002E-002    -3.8811059746843393     
   8.3700000000000011E-002    -5.0772501034375450     
   8.4000000000000005E-002    -6.0071784258230885     
   8.4300000000000000E-002    -6.6540738485809028     
   8.4599999999999995E-002    -7.0265814294920652     
   8.4900000000000003E-002    -7.1578198939333442     
   8.5199999999999998E-002    -7.0995937853873068     
   8.5500000000000007E-002    -6.9161712171103495     
   8.5800000000000001E-002    -6.6749779181039512     
   8.6100000000000010E-002    -6.4381500626987531     
   8.6399999999999991E-002    -6.2539388038725310     
   8.6699999999999999E-002    -6.1487208664470296     
   8.7000000000000008E-002    -6.1222416195500609     
   8.7300000000000003E-002    -6.1458460105324262     
   8.7599999999999997E-002    -6.1634894599384706     
   8.7900000000000006E-002    -6.0992938231440004     
   8.8200000000000014E-002    -5.8655196310946289     
   8.8499999999999995E-002    -5.3747101792672058     
   8.8800000000000004E-002    -4.5529876550602237     
   8.9100000000000013E-002    -3.3511510460770686     
   8.9399999999999993E-002    -1.7577781948496394     
   8.9700000000000002E-002    0.19554180727978593     
   9.0000000000000011E-002     2.4295342449642829     
   9.0299999999999991E-002     4.8193064639593848     
   9.0600000000000000E-002     7.2028943429213887     
   9.0900000000000009E-002     9.3922941000529931     
   9.1200000000000017E-002     11.190825662997453     
   9.1499999999999998E-002     12.411745292364232     
   9.1800000000000007E-002     12.895258178052677     
   9.2100000000000001E-002     12.526797515088216     
   9.2399999999999996E-002     11.250146108900516     
   9.2700000000000005E-002     9.0774137161073671     
   9.3000000000000013E-002     6.0920072634510340     
   9.3300000000000008E-002     2.4469156643791545     
   9.3600000000000003E-002    -1.6453473920380839     
   9.3899999999999997E-002    -5.9256020706184049     
   9.4200000000000006E-002    -10.106119341420262     
   9.4500000000000001E-002    -13.890696778065827     
   9.4800000000000009E-002    -16.995785066695920     
   9.5100000000000004E-002    -19.170112954915140     
   9.5399999999999999E-002    -20.213497524294862     
   9.5699999999999993E-002    -19.991684316826028     
   9.6000000000000002E-002    -18.446329444154326     
   9.6300000000000011E-002    -15.599985396931281     
   9.6600000000000005E-002    -11.555979928154564     
   9.6900000000000000E-002    -6.4923902618966256     
   9.7200000000000009E-002   -0.65329730359825566     
   9.7499999999999989E-002     5.6660648572252468     
   9.7799999999999998E-002     12.134733437287084     
   9.8100000000000007E-002     18.408373231864427     
   9.8400000000000015E-002     24.147604447313761     
   9.8699999999999996E-002     29.037769866559628     
   9.9000000000000005E-002     32.808678291973010     
   9.9300000000000013E-002     35.248402305554876     
   9.9599999999999994E-002     36.217243876034686     
   9.9900000000000003E-002     35.654782012239167     
  0.10020000000000001          33.582024252354969     
  0.10049999999999999          30.099051088191501     
  0.10080000000000000          25.378464222752676     
  0.10110000000000001          19.651199710946145     
  0.10140000000000000          13.192447911019279     
  0.10170000000000000          6.3023039097197646     
  0.10200000000000001        -0.71046806784396965     
  0.10230000000000002         -7.5486880786297910     
  0.10260000000000000         -13.941644933782992     
  0.10290000000000001         -19.660148994747097     
  0.10320000000000000         -24.525751581152569     
  0.10350000000000001         -28.413034981116326     
  0.10380000000000000         -31.253533006761199     
  0.10410000000000001         -33.031021750155304     
  0.10440000000000001         -33.776131323500323     
  0.10470000000000000         -33.557736087263415     
  0.10500000000000000         -32.474899916510630     
  0.10530000000000000         -30.644434565767668     
  0.10560000000000000         -28.194052287004208     
  0.10590000000000001         -25.254244339396795     
  0.10620000000000000         -21.952854582330492     
  0.10650000000000001         -18.409874320635467     
  0.10679999999999999         -14.734761526301542     
  0.10710000000000000         -11.023434856380305     
  0.10740000000000001         -7.3584605734823416     
  0.10770000000000000         -3.8081916165969205     
  0.10800000000000000        -0.43038336771531355     
  0.10830000000000001          2.7303157333057873     
  0.10859999999999999          5.6406947226021691     
  0.10890000000000000          8.2800609235507689     
  0.10920000000000001          10.638306819192870     
  0.10950000000000001          12.711782697879173     
  0.10979999999999999          14.502743999209727     
  0.11009999999999999          16.016010592976297     
  0.11040000000000001          17.259518003059497     
  0.11070000000000001          18.240539903700444     
  0.11100000000000000          18.964836488020619     
  0.11130000000000000          19.433960338082262     
  0.11160000000000002          19.643791580711206     
  0.11190000000000001          19.585516357453738     
  0.11220000000000001          19.246963876225536     
  0.11250000000000000          18.615963345219587     
  0.11280000000000000          17.682907449327235     
  0.11309999999999999          16.441761337645303     
  0.11340000000000001          14.896080308025695     
  0.11369999999999998          13.057193057961362     
  0.11400000000000000          10.952441430408721     
  0.11430000000000000          8.6207849293760184     
  0.11460000000000002          6.1179953836282479     
  0.11489999999999999          3.5108056779722823     
  0.11520000000000001         0.87671937580040471     
  0.11550000000000001         -1.7010078725422331     
  0.11580000000000000         -4.1376925280087926     
  0.11609999999999999         -6.3521343470442799     
  0.11640000000000002         -8.2726089133904956     
  0.11670000000000001         -9.8418085058708140     
  0.11700000000000001         -11.021053524184907     
  0.11730000000000000         -11.792700993103983     
  0.11760000000000000         -12.159044499254142     
  0.11789999999999999         -12.146922345483041     
  0.11820000000000001         -11.800798644060942     
  0.11850000000000001         -11.183698870791918     
  0.11880000000000000         -10.367999278530865     
  0.11910000000000000         -9.4313184676664807     
  0.11940000000000002         -8.4483024355435674     
  0.11970000000000001         -7.4870120581119810     
  0.12000000000000001         -6.6022912389549857     
  0.12030000000000000         -5.8341757036262054     
  0.12060000000000000         -5.2037530992187824     
  0.12089999999999999         -4.7118106840156209     
  0.12119999999999999         -4.3416472360537250     
  0.12150000000000001         -4.0595360624113148     
  0.12180000000000001         -3.8228998954426641     
  0.12210000000000000         -3.5829063179013652     
  0.12239999999999999         -3.2919948755407207     
  0.12270000000000002         -2.9065769294318069     
  0.12300000000000001         -2.3932097432027830     
  0.12330000000000001         -1.7319689141248360     
  0.12360000000000000        -0.91900451837259378     
  0.12390000000000000          3.2240189749068032E-002
  0.12419999999999999          1.0921963661117022     
  0.12450000000000001          2.2177405782641215     
  0.12480000000000001          3.3557770895922179     
  0.12509999999999999          4.4472742933396034     
  0.12540000000000001          5.4326273052489968     
  0.12570000000000003          6.2549549349274791     
  0.12600000000000000          6.8664752371618079     
  0.12630000000000002          7.2311932046827181     
  0.12659999999999999          7.3279310683294527     
  0.12690000000000001          7.1522871442391525     
  0.12719999999999998          6.7182599410804533     
  0.12750000000000000          6.0544034222459358     
  0.12780000000000002          5.2063876210639135     
  0.12809999999999999          4.2285199994410627     
  0.12840000000000001          3.1838524974665217     
  0.12869999999999998          2.1374197442438696     
  0.12900000000000000          1.1525463115590915     
  0.12930000000000003         0.28641373767005007     
  0.12959999999999999        -0.41484296811074661     
  0.12990000000000002        -0.91924567481836594     
  0.13019999999999998         -1.2121316395503630     
  0.13050000000000000         -1.2962023238312916     
  0.13080000000000003         -1.1916123830540841     
  0.13109999999999999        -0.93323417098004791     
  0.13140000000000002        -0.56789059387920204     
  0.13169999999999998        -0.14988213979655762     
  0.13200000000000001         0.26277643980840398     
  0.13229999999999997         0.61552311155599393     
  0.13260000000000000         0.86034871739985486     
  0.13290000000000002         0.96232380229384451     
  0.13319999999999999         0.90082927161315640     
  0.13350000000000001         0.67359698970310755     
  0.13380000000000003         0.29282334875037164     
  0.13410000000000000        -0.21126267839249807     
  0.13440000000000002        -0.79803539946019597     
  0.13469999999999999         -1.4177060405096251     
  0.13500000000000001         -2.0172579677612634     
  0.13529999999999998         -2.5463755618086914     
  0.13560000000000000         -2.9612758724229260     
  0.13590000000000002         -3.2285988945775421     
  0.13619999999999999         -3.3295937218331741     
  0.13650000000000001         -3.2592876577819556     
  0.13680000000000003         -3.0288110355737636     
  0.13710000000000000         -2.6637509376451804     
  0.13740000000000002         -2.1981859628254039     
  0.13769999999999999         -1.6750773516476400     
  0.13800000000000001         -1.1379262436002708     
  0.13829999999999998        -0.62876738450995462     
  0.13860000000000000        -0.18481210379478241     
  0.13890000000000002         0.16596730206831603     
  0.13919999999999999         0.40591964723199403     
  0.13950000000000001         0.52905238484438977     
  0.13979999999999998         0.54254222726168833     
  0.14010000000000000         0.46332145384873386     
  0.14040000000000002         0.31641787667576526     
  0.14069999999999999         0.13148830884060075     
  0.14100000000000001         -6.0076761053564326E-002
  0.14130000000000004        -0.22799285325261615     
  0.14160000000000000        -0.34582183540544847     
  0.14189999999999997        -0.39456636555988112     
  0.14219999999999999        -0.36131853614680859     
  0.14250000000000002        -0.24512455351674997     
  0.14279999999999998         -5.2782189801218217E-002
  0.14310000000000000         0.20070651625576061     
  0.14339999999999997         0.49329925622204784     
  0.14369999999999999         0.79968436207670801     
  0.14400000000000002          1.0926679592967781     
  0.14429999999999998          1.3463961155177309     
  0.14460000000000001          1.5374744245120426     
  0.14490000000000003          1.6492696137076979     
  0.14520000000000000          1.6707020138553690     
  0.14550000000000002          1.5998425801597298     
  0.14579999999999999          1.4428229617812227     
  0.14610000000000001          1.2134484293335916     
  0.14640000000000003         0.93278982119727782     
  0.14670000000000000         0.62481488079475489     
  0.14699999999999996         0.31700075368319630     
  0.14729999999999999          3.5596592031804646E-002
  0.14760000000000001        -0.19360849556401394     
  0.14789999999999998        -0.35058180095757113     
  0.14820000000000000        -0.42084286340730181     