  -1.4999999999999999E-002     0.0000000000000000     
  -1.4700000000000000E-002     0.0000000000000000     
  -1.4400000000000000E-002     0.0000000000000000     
  -1.4100000000000000E-002     0.0000000000000000     
  -1.3800000000000000E-002     0.0000000000000000     
  -1.3500000000000000E-002     0.0000000000000000     
  -1.3200000000000000E-002     0.0000000000000000     
  -1.2899999999999998E-002     0.0000000000000000     
  -1.2600000000000000E-002     0.0000000000000000     
  -1.2299999999999998E-002     0.0000000000000000     
  -1.2000000000000000E-002     0.0000000000000000     
  -1.1699999999999999E-002     0.0000000000000000     
  -1.1399999999999999E-002     0.0000000000000000     
  -1.1099999999999999E-002     0.0000000000000000     
  -1.0799999999999999E-002     0.0000000000000000     
  -1.0499999999999999E-002     0.0000000000000000     
  -1.0199999999999999E-002     0.0000000000000000     
  -9.8999999999999991E-003     0.0000000000000000     
  -9.5999999999999992E-003     0.0000000000000000     
  -9.2999999999999992E-003     0.0000000000000000     
  -8.9999999999999993E-003     0.0000000000000000     
  -8.6999999999999994E-003     0.0000000000000000     
  -8.3999999999999995E-003     0.0000000000000000     
  -8.0999999999999996E-003     0.0000000000000000     
  -7.7999999999999988E-003     0.0000000000000000     
  -7.4999999999999997E-003     0.0000000000000000     
  -7.1999999999999998E-003     0.0000000000000000     
  -6.8999999999999981E-003     0.0000000000000000     
  -6.5999999999999982E-003     0.0000000000000000     
  -6.3000000000000000E-003     0.0000000000000000     
  -6.0000000000000001E-003     0.0000000000000000     
  -5.6999999999999985E-003     0.0000000000000000     
  -5.3999999999999986E-003     0.0000000000000000     
  -5.1000000000000004E-003     0.0000000000000000     
  -4.7999999999999987E-003     0.0000000000000000     
  -4.5000000000000005E-003     0.0000000000000000     
  -4.1999999999999989E-003     0.0000000000000000     
  -3.8999999999999990E-003     0.0000000000000000     
  -3.5999999999999990E-003     0.0000000000000000     
  -3.2999999999999991E-003     0.0000000000000000     
  -2.9999999999999992E-003     0.0000000000000000     
  -2.6999999999999993E-003     0.0000000000000000     
  -2.3999999999999994E-003     0.0000000000000000     
  -2.0999999999999977E-003     0.0000000000000000     
  -1.7999999999999995E-003     0.0000000000000000     
  -1.4999999999999979E-003     0.0000000000000000     
  -1.1999999999999997E-003     0.0000000000000000     
  -8.9999999999999976E-004     0.0000000000000000     
  -5.9999999999999810E-004     0.0000000000000000     
  -2.9999999999999992E-004     0.0000000000000000     
   0.0000000000000000          0.0000000000000000     
   3.0000000000000165E-004     0.0000000000000000     
   5.9999999999999984E-004     0.0000000000000000     
   9.0000000000000149E-004     0.0000000000000000     
   1.2000000000000031E-003     0.0000000000000000     
   1.5000000000000013E-003     0.0000000000000000     
   1.8000000000000030E-003     0.0000000000000000     
   2.1000000000000012E-003     0.0000000000000000     
   2.3999999999999994E-003     0.0000000000000000     
   2.7000000000000010E-003     0.0000000000000000     
   2.9999999999999992E-003     0.0000000000000000     
   3.3000000000000008E-003     0.0000000000000000     
   3.6000000000000025E-003     0.0000000000000000     
   3.9000000000000007E-003     0.0000000000000000     
   4.2000000000000023E-003     0.0000000000000000     
   4.5000000000000005E-003     0.0000000000000000     
   4.7999999999999987E-003     0.0000000000000000     
   5.1000000000000004E-003     0.0000000000000000     
   5.4000000000000020E-003     0.0000000000000000     
   5.7000000000000037E-003     0.0000000000000000     
   5.9999999999999984E-003     0.0000000000000000     
   6.3000000000000000E-003     0.0000000000000000     
   6.6000000000000017E-003     0.0000000000000000     
   6.9000000000000034E-003     0.0000000000000000     
   7.2000000000000015E-003     0.0000000000000000     
   7.5000000000000032E-003     0.0000000000000000     
   7.8000000000000014E-003     0.0000000000000000     
   8.0999999999999996E-003     0.0000000000000000     
   8.4000000000000012E-003     0.0000000000000000     
   8.7000000000000029E-003     0.0000000000000000     
   9.0000000000000011E-003     0.0000000000000000     
   9.2999999999999992E-003     0.0000000000000000     
   9.6000000000000009E-003     0.0000000000000000     
   9.8999999999999991E-003     0.0000000000000000     
   1.0200000000000001E-002     0.0000000000000000     
   1.0500000000000002E-002     0.0000000000000000     
   1.0800000000000004E-002     0.0000000000000000     
   1.1099999999999999E-002     0.0000000000000000     
   1.1400000000000000E-002     0.0000000000000000     
   1.1700000000000002E-002     0.0000000000000000     
   1.2000000000000004E-002     0.0000000000000000     
   1.2300000000000002E-002     0.0000000000000000     
   1.2600000000000000E-002     0.0000000000000000     
   1.2900000000000002E-002     0.0000000000000000     
   1.3200000000000000E-002     0.0000000000000000     
   1.3500000000000002E-002     0.0000000000000000     
   1.3800000000000003E-002     0.0000000000000000     
   1.4100000000000001E-002     0.0000000000000000     
   1.4400000000000000E-002     0.0000000000000000     
   1.4700000000000001E-002     0.0000000000000000     
   1.4999999999999999E-002     0.0000000000000000     
   1.5300000000000001E-002     0.0000000000000000     
   1.5600000000000003E-002     0.0000000000000000     
   1.5899999999999997E-002     0.0000000000000000     
   1.6199999999999999E-002     0.0000000000000000     
   1.6500000000000001E-002     0.0000000000000000     
   1.6800000000000002E-002     0.0000000000000000     
   1.7100000000000004E-002     0.0000000000000000     
   1.7400000000000006E-002     0.0000000000000000     
   1.7700000000000000E-002     0.0000000000000000     
   1.8000000000000002E-002     0.0000000000000000     
   1.8300000000000004E-002     0.0000000000000000     
   1.8600000000000005E-002     0.0000000000000000     
   1.8900000000000000E-002     0.0000000000000000     
   1.9200000000000002E-002     0.0000000000000000     
   1.9500000000000003E-002     0.0000000000000000     
   1.9799999999999998E-002     0.0000000000000000     
   2.0100000000000000E-002     0.0000000000000000     
   2.0400000000000001E-002     0.0000000000000000     
   2.0700000000000003E-002     0.0000000000000000     
   2.0999999999999998E-002     0.0000000000000000     
   2.1299999999999999E-002     0.0000000000000000     
   2.1600000000000001E-002     0.0000000000000000     
   2.1900000000000003E-002     0.0000000000000000     
   2.2200000000000004E-002     0.0000000000000000     
   2.2500000000000006E-002     0.0000000000000000     
   2.2800000000000001E-002     0.0000000000000000     
   2.3100000000000002E-002     0.0000000000000000     
   2.3400000000000004E-002     0.0000000000000000     
   2.3699999999999999E-002     0.0000000000000000     
   2.4000000000000000E-002     0.0000000000000000     
   2.4300000000000002E-002     0.0000000000000000     
   2.4599999999999997E-002     0.0000000000000000     
   2.4900000000000005E-002     0.0000000000000000     
   2.5200000000000000E-002     0.0000000000000000     
   2.5499999999999995E-002     0.0000000000000000     
   2.5800000000000003E-002     0.0000000000000000     
   2.6099999999999998E-002     0.0000000000000000     
   2.6400000000000007E-002     0.0000000000000000     
   2.6700000000000002E-002     0.0000000000000000     
   2.6999999999999996E-002     0.0000000000000000     
   2.7300000000000005E-002     0.0000000000000000     
   2.7600000000000000E-002     0.0000000000000000     
   2.7900000000000008E-002     0.0000000000000000     
   2.8200000000000003E-002     0.0000000000000000     
   2.8499999999999998E-002     0.0000000000000000     
   2.8800000000000006E-002     0.0000000000000000     
   2.9100000000000001E-002     0.0000000000000000     
   2.9400000000000003E-002     0.0000000000000000     
   2.9700000000000004E-002     0.0000000000000000     
   3.0000000000000006E-002     0.0000000000000000     
   3.0300000000000001E-002     0.0000000000000000     
   3.0600000000000002E-002     0.0000000000000000     
   3.0900000000000004E-002     0.0000000000000000     
   3.1199999999999999E-002     0.0000000000000000     
   3.1500000000000007E-002     0.0000000000000000     
   3.1800000000000002E-002     0.0000000000000000     
   3.2099999999999997E-002     0.0000000000000000     
   3.2400000000000005E-002     0.0000000000000000     
   3.2700000000000000E-002     0.0000000000000000     
   3.3000000000000002E-002     0.0000000000000000     
   3.3300000000000003E-002     0.0000000000000000     
   3.3599999999999998E-002     0.0000000000000000     
   3.3900000000000000E-002     0.0000000000000000     
   3.4200000000000001E-002     0.0000000000000000     
   3.4500000000000003E-002     0.0000000000000000     
   3.4799999999999998E-002     0.0000000000000000     
   3.5099999999999999E-002     0.0000000000000000     
   3.5400000000000001E-002     0.0000000000000000     
   3.5699999999999996E-002     0.0000000000000000     
   3.6000000000000004E-002     0.0000000000000000     
   3.6299999999999999E-002     1.5204145292141637E-074
   3.6600000000000008E-002    -2.5237817173618607E-074
   3.6900000000000002E-002    -2.0931718908647513E-066
   3.7199999999999997E-002    -5.8965834221761111E-045
   3.7500000000000006E-002    -1.3588129473998199E-044
   3.7800000000000000E-002     1.6910222179238068E-036
   3.8100000000000009E-002    -6.8355703577254267E-035
   3.8400000000000004E-002     3.1367838910735263E-034
   3.8699999999999998E-002    -1.5462838059339390E-033
   3.9000000000000007E-002     5.7197493650023631E-033
   3.9300000000000002E-002    -1.6150178085965477E-032
   3.9600000000000003E-002     3.8604232525377176E-032
   3.9900000000000005E-002    -7.4327230490746546E-032
   4.0200000000000000E-002     9.2540603208183450E-032
   4.0500000000000001E-002     5.6545611409315169E-032
   4.0800000000000003E-002    -8.4846648430752933E-031
   4.1100000000000005E-002     3.4126713414702982E-030
   4.1399999999999999E-002    -9.6485728946081285E-030
   4.1700000000000008E-002     2.0658818986567121E-029
   4.2000000000000003E-002    -2.9545820669811230E-029
   4.2299999999999997E-002     1.4880693474888038E-030
   4.2600000000000006E-002     1.6335515893515125E-028
   4.2900000000000001E-002    -6.5956344993305790E-028
   4.3200000000000002E-002     1.6773512696749401E-027
   4.3500000000000004E-002    -2.8501806120089406E-027
   4.3799999999999999E-002     1.7078400374575011E-027
   4.4100000000000000E-002     9.0918519629432479E-027
   4.4400000000000002E-002    -4.3683912679030900E-026
   4.4700000000000004E-002     1.1550009229712034E-025
   4.4999999999999998E-002    -2.0084716152541278E-025
   4.5300000000000000E-002     1.4895942715371614E-025
   4.5600000000000002E-002     4.5021610289465258E-025
   4.5899999999999996E-002    -2.2874705675707517E-024
   4.6200000000000005E-002     5.7996873039461730E-024
   4.6500000000000000E-002    -9.3410970574706990E-024
   4.6799999999999994E-002     5.6654066819072203E-024
   4.7100000000000003E-002     2.1507373455218113E-023
   4.7399999999999998E-002    -9.4427638764471702E-023
   4.7700000000000006E-002     2.2158810083270631E-022
   4.8000000000000001E-002    -3.6065027363159381E-022
   4.8300000000000010E-002     4.0816410634477704E-022
   4.8600000000000004E-002    -3.6426182325148402E-022
   4.8899999999999999E-002     1.0376009773802596E-021
   4.9200000000000008E-002    -6.3519332913744340E-021
   4.9500000000000002E-002     3.1238701092923773E-020
   4.9800000000000011E-002    -1.2993902895496261E-019
   5.0100000000000006E-002     4.9215903172049678E-019
   5.0400000000000000E-002    -1.7364574510104281E-018
   5.0700000000000009E-002     5.7095871752129237E-018
   5.1000000000000004E-002    -1.7425731779035704E-017
   5.1299999999999998E-002     4.8944944874384819E-017
   5.1600000000000007E-002    -1.2299353687412533E-016
   5.1900000000000002E-002     2.5222936816586958E-016
   5.2200000000000010E-002    -2.7110932356588495E-016
   5.2500000000000005E-002    -9.2831325149048691E-016
   5.2800000000000000E-002     7.9387631387956578E-015
   5.3099999999999994E-002    -3.4869119165338116E-014
   5.3400000000000003E-002     1.1194969753333142E-013
   5.3699999999999998E-002    -2.6171557690973465E-013
   5.4000000000000006E-002     3.2355830630798945E-013
   5.4300000000000001E-002     6.4664960756290896E-013
   5.4599999999999996E-002    -5.5103739479653069E-012
   5.4900000000000004E-002     1.8707505622831429E-011
   5.5199999999999999E-002    -3.5247867992740797E-011
   5.5499999999999994E-002     7.1980577690538886E-013
   5.5800000000000002E-002     2.4585032374039582E-010
   5.6099999999999997E-002    -8.4847818517152234E-010
   5.6400000000000006E-002     1.0863322615747778E-009
   5.6700000000000000E-002     2.2090673303616487E-009
   5.6999999999999995E-002    -1.2472188219079114E-008
   5.7300000000000004E-002     1.5725771826071120E-008
   5.7599999999999998E-002     3.7158562661032104E-008
   5.7900000000000007E-002    -1.5304949807510931E-007
   5.8200000000000002E-002    -1.0330717457935928E-008
   5.8499999999999996E-002     1.1614234280388346E-006
   5.8800000000000005E-002     2.3101081642531240E-006
   5.9100000000000000E-002     2.4748739141891503E-006
   5.9400000000000008E-002     2.5193667598649597E-006
   5.9700000000000003E-002     3.1169049492185555E-006
   6.0000000000000012E-002     4.7170793379615620E-006
   6.0300000000000006E-002     7.6578318170569455E-006
   6.0600000000000001E-002     1.1762478732090244E-005
   6.0900000000000010E-002     1.7699778476708377E-005
   6.1200000000000004E-002     2.6113583269483627E-005
   6.1500000000000013E-002     3.7872411338173876E-005
   6.1800000000000008E-002     5.3741937219809464E-005
   6.2100000000000002E-002     7.2532261931402636E-005
   6.2399999999999997E-002     9.4612843859311836E-005
   6.2700000000000006E-002     1.2185878808638681E-004
   6.3000000000000000E-002     1.5453122905393572E-004
   6.3300000000000009E-002     1.9228192494018291E-004
   6.3600000000000004E-002     2.3273259787900380E-004
   6.3899999999999998E-002     2.7139363273850431E-004
   6.4199999999999993E-002     3.0369696498741669E-004
   6.4500000000000002E-002     3.2309691031070652E-004
   6.4800000000000010E-002     3.1828372006100875E-004
   6.5100000000000005E-002     2.7345494521648696E-004
   6.5400000000000000E-002     1.7402904242482306E-004
   6.5700000000000008E-002     9.6699533694505524E-006
   6.5999999999999989E-002    -2.3444664193454361E-004
   6.6299999999999998E-002    -5.7930958985713381E-004
   6.6600000000000006E-002    -1.0387859133723033E-003
   6.6900000000000001E-002    -1.6153300115549713E-003
   6.7199999999999996E-002    -2.3037197843099651E-003
   6.7500000000000004E-002    -3.0911746924466997E-003
   6.7800000000000013E-002    -3.9534355289599886E-003
   6.8099999999999994E-002    -4.8467741373982879E-003
   6.8400000000000002E-002    -5.7120180060381181E-003
   6.8700000000000011E-002    -6.4856155434900266E-003
   6.8999999999999992E-002    -7.0981897357338857E-003
   6.9300000000000000E-002    -7.4767295480289092E-003
   6.9600000000000009E-002    -7.5546109548001103E-003
   6.9900000000000004E-002    -7.2817269362643400E-003
   7.0199999999999999E-002    -6.6373825718314006E-003
   7.0500000000000007E-002    -5.6405232894384495E-003
   7.0800000000000016E-002    -4.3427685729880644E-003
   7.1099999999999997E-002    -2.8247416205726154E-003
   7.1400000000000005E-002    -1.2035461185035084E-003
   7.1700000000000000E-002     3.7650260070581275E-004
   7.1999999999999995E-002     1.7698846542186803E-003
   7.2300000000000003E-002     2.8475113086616228E-003
   7.2600000000000012E-002     3.5046397662172029E-003
   7.2900000000000006E-002     3.6762811690185093E-003
   7.3200000000000001E-002     3.3693103034015156E-003
   7.3499999999999996E-002     2.6662742450299075E-003
   7.3800000000000004E-002     1.6998221980839426E-003
   7.4099999999999999E-002     6.4083206201931409E-004
   7.4400000000000008E-002    -3.2625692410571581E-004
   7.4700000000000003E-002    -1.0244044122101352E-003
   7.5000000000000011E-002    -1.3307192444730067E-003
   7.5299999999999992E-002    -1.2129622925212992E-003
   7.5600000000000001E-002    -7.6870501965869650E-004
   7.5900000000000009E-002    -2.4441338911555810E-004
   7.6200000000000004E-002    -2.5687120711666960E-005
   7.6499999999999999E-002    -6.3268384036017922E-004
   7.6800000000000007E-002    -2.6740408438297096E-003
   7.7099999999999988E-002    -6.7781472252004191E-003
   7.7399999999999997E-002    -1.3540415903725506E-002
   7.7700000000000005E-002    -2.3419288091603707E-002
   7.8000000000000014E-002    -3.6649139034132146E-002
   7.8299999999999995E-002    -5.3182219821387440E-002
   7.8600000000000003E-002    -7.2620624740283704E-002
   7.8900000000000012E-002    -9.4206409942569527E-002
   7.9199999999999993E-002   -0.11682332570548544     
   7.9500000000000001E-002   -0.13906386792856043     
   7.9800000000000010E-002   -0.15933792622718526     
   8.0100000000000018E-002   -0.17596371827667909     
   8.0399999999999999E-002   -0.18736283855414590     
   8.0700000000000008E-002   -0.19219060625296572     
   8.1000000000000003E-002   -0.18946031116691894     
   8.1299999999999997E-002   -0.17867692181042066     
   8.1600000000000006E-002   -0.15992927890090647     
   8.1900000000000014E-002   -0.13384549619269950     
   8.2199999999999995E-002   -0.10159487526345705     
   8.2500000000000004E-002    -6.4747544035345161E-002
   8.2799999999999999E-002    -2.5204559146078793E-002
   8.3100000000000007E-002     1.5018429104820336E-002
   8.3400000000000002E-002     5.3939972312830452E-002
   8.3700000000000011E-002     8.9771763470950713E-002
   8.4000000000000005E-002    0.12099346688237696     
   8.4300000000000000E-002    0.14648288725016459     
   8.4599999999999995E-002    0.16548374592583520     
   8.4900000000000003E-002    0.17765875510483919     
   8.5199999999999998E-002    0.18299569582152436     
   8.5500000000000007E-002    0.18180780537357683     
   8.5800000000000001E-002    0.17459136692769528     
   8.6100000000000010E-002    0.16211057161879602     
   8.6399999999999991E-002    0.14527522475109572     
   8.6699999999999999E-002    0.12526259257002487     
   8.7000000000000008E-002    0.10343484983892462     
   8.7300000000000003E-002     8.1441018684303007E-002
   8.7599999999999997E-002     6.1173852094711857E-002
   8.7900000000000006E-002     4.4735605938155655E-002
   8.8200000000000014E-002     3.4345435697901515E-002
   8.8499999999999995E-002     3.2160314320701940E-002
   8.8800000000000004E-002     4.0029807519121698E-002
   8.9100000000000013E-002     5.9325839164128841E-002
   8.9399999999999993E-002     9.0582969817668210E-002
   8.9700000000000002E-002    0.13331091775433990     
   9.0000000000000011E-002    0.18589547739920065     
   9.0299999999999991E-002    0.24547777151943206     
   9.0600000000000000E-002    0.30812797639555145     
   9.0900000000000009E-002    0.36898199527745890     
   9.1200000000000017E-002    0.42266950915151863     
   9.1499999999999998E-002    0.46374992513781321     
   9.1800000000000007E-002    0.48722604930957164     
   9.2100000000000001E-002    0.48903138448516464     
   9.2399999999999996E-002    0.46649430142214882     
   9.2700000000000005E-002    0.41872204173773364     
   9.3000000000000013E-002    0.34671432436267596     
   9.3300000000000008E-002    0.25330356208883659     
   9.3600000000000003E-002    0.14307743512787413     
   9.3899999999999997E-002     2.2024649517912134E-002
   9.4200000000000006E-002   -0.10308268247698410     
   9.4500000000000001E-002   -0.22515410765150770     
   9.4800000000000009E-002   -0.33748570891975987     
   9.5100000000000004E-002   -0.43411837024320660     
   9.5399999999999999E-002   -0.51043589060594208     
   9.5699999999999993E-002   -0.56337912117523536     
   9.6000000000000002E-002   -0.59163029265375644     
   9.6300000000000011E-002   -0.59549315033950789     
   9.6600000000000005E-002   -0.57670403719651009     
   9.6900000000000000E-002   -0.53808475639616538     
   9.7200000000000009E-002   -0.48311764979224842     
   9.7499999999999989E-002   -0.41555995585303257     
   9.7799999999999998E-002   -0.33893502441508511     
   9.8100000000000007E-002   -0.25632894561767650     
   9.8400000000000015E-002   -0.17013927162704737     
   9.8699999999999996E-002    -8.2034090591433365E-002
   9.9000000000000005E-002     6.8990725693820077E-003
   9.9300000000000013E-002     9.6026131544478255E-002
   9.9599999999999994E-002    0.18469223712835817     
   9.9900000000000003E-002    0.27207106870702052     
  0.10020000000000001         0.35673183911563344     
  0.10049999999999999         0.43637762372002409     
  0.10080000000000000         0.50793464071211802     
  0.10110000000000001         0.56750429919161760     
  0.10140000000000000         0.61053295319468737     
  0.10170000000000000         0.63239736830498616     
  0.10200000000000001         0.62874229262097625     
  0.10230000000000002         0.59623463430211532     
  0.10260000000000000         0.53298278026610213     
  0.10290000000000001         0.43900741330503379     
  0.10320000000000000         0.31654883363566655     
  0.10350000000000001         0.17022278032349539     
  0.10380000000000000          6.6716389073312697E-003
  0.10410000000000001        -0.16558785875783746     
  0.10440000000000001        -0.33693814818673912     
  0.10470000000000000        -0.49745885465695566     
  0.10500000000000000        -0.63753171054069169     
  0.10530000000000000        -0.74887438202145362     
  0.10560000000000000        -0.82507630000181464     
  0.10590000000000001        -0.86230411086867242     
  0.10620000000000000        -0.85951252793614097     
  0.10650000000000001        -0.81849273040664428     
  0.10679999999999999        -0.74362792474114681     
  0.10710000000000000        -0.64159550020515488     
  0.10740000000000001        -0.52052046412167396     
  0.10770000000000000        -0.38954658638812117     
  0.10800000000000000        -0.25772754450816859     
  0.10830000000000001        -0.13361888502951275     
  0.10859999999999999         -2.4482415173775883E-002
  0.10890000000000000          6.4119431004943800E-002
  0.10920000000000001         0.12871613761424783     
  0.10950000000000001         0.16769419388850584     
  0.10979999999999999         0.18155523997395068     
  0.11009999999999999         0.17249561766856389     
  0.11040000000000001         0.14407500582510127     
  0.11070000000000001         0.10089939812946302     
  0.11100000000000000          4.8127923095865957E-002
  0.11130000000000000         -8.9880656058506855E-003
  0.11160000000000002         -6.5223127462317870E-002
  0.11190000000000001        -0.11583045841746333     
  0.11220000000000001        -0.15676966259859573     
  0.11250000000000000        -0.18476168732415835     
  0.11280000000000000        -0.19754367949512494     
  0.11309999999999999        -0.19381049109015452     
  0.11340000000000001        -0.17328306806575433     
  0.11369999999999998        -0.13686302008292694     
  0.11400000000000000         -8.6461376380350757E-002
  0.11430000000000000         -2.4942203493447272E-002
  0.11460000000000002          4.3952373651384262E-002
  0.11489999999999999         0.11581718804340940     
  0.11520000000000001         0.18592856032973468     
  0.11550000000000001         0.24946617341401797     
  0.11580000000000000         0.30210892143111712     
  0.11609999999999999         0.34009683902538984     
  0.11640000000000002         0.36095867285722144     
  0.11670000000000001         0.36334720894782474     
  0.11700000000000001         0.34755209606845461     
  0.11730000000000000         0.31510743863284935     
  0.11760000000000000         0.26892721839805295     
  0.11789999999999999         0.21266102790085600     
  0.11820000000000001         0.15071691384789951     
  0.11850000000000001          8.7063741085457461E-002
  0.11880000000000000          2.5517728757448406E-002
  0.11910000000000000         -3.1107124426834692E-002
  0.11940000000000002         -8.1043875975934543E-002
  0.11970000000000001        -0.12377186067336790     
  0.12000000000000001        -0.15958359023277430     
  0.12030000000000000        -0.18977653115225934     
  0.12060000000000000        -0.21578164951384401     
  0.12089999999999999        -0.23906332723366813     
  0.12119999999999999        -0.26040038850585639     
  0.12150000000000001        -0.27964744277501957     
  0.12180000000000001        -0.29548505187794749     
  0.12210000000000000        -0.30541265195391476     
  0.12239999999999999        -0.30593887108711665     
  0.12270000000000002        -0.29287350267989570     
  0.12300000000000001        -0.26197311314334970     
  0.12330000000000001        -0.20934715817817146     
  0.12360000000000000        -0.13227951360798429     
  0.12390000000000000         -2.9725451483573504E-002
  0.12419999999999999          9.7299983507397686E-002
  0.12450000000000001         0.24565709433784846     
  0.12480000000000001         0.40961919335824271     
  0.12509999999999999         0.58164782767599665     
  0.12540000000000001         0.75251640673285924     
  0.12570000000000003         0.91214563586183706     
  0.12600000000000000          1.0501696114415624     
  0.12630000000000002          1.1570841341740525     
  0.12659999999999999          1.2245586202922361     
  0.12690000000000001          1.2467127137284655     
  0.12719999999999998          1.2198717880243779     
  0.12750000000000000          1.1437063486233245     
  0.12780000000000002          1.0205854417775919     
  0.12809999999999999         0.85586162426183698     
  0.12840000000000001         0.65707112873600493     
  0.12869999999999998         0.43376050354689594     
  0.12900000000000000         0.19655461964022791     
  0.12930000000000003         -4.3223841850247420E-002
  0.12959999999999999        -0.27490771669973624     
  0.12990000000000002        -0.48814885230077526     
  0.13019999999999998        -0.67436142652803954     
  0.13050000000000000        -0.82644303912635153     
  0.13080000000000003        -0.93938001544529137     
  0.13109999999999999         -1.0101166040827660     
  0.13140000000000002         -1.0378822361486411     
  0.13169999999999998         -1.0236052540596263     
  0.13200000000000001        -0.97048559283462832     
  0.13229999999999997        -0.88304444376555036     
  0.13260000000000000        -0.76744147023091747     
  0.13290000000000002        -0.63095809505793732     
  0.13319999999999999        -0.48166392311371731     
  0.13350000000000001        -0.32827625314943931     
  0.13380000000000003        -0.17958848414365156     
  0.13410000000000000         -4.3990804530887398E-002
  0.13440000000000002          7.1017507909033439E-002
  0.13469999999999999         0.15928310790855330     
  0.13500000000000001         0.21639096012182787     
  0.13529999999999998         0.24030118493780606     
  0.13560000000000000         0.23158299183602463     
  0.13590000000000002         0.19329749665505419     
  0.13619999999999999         0.13115869880687284     
  0.13650000000000001          5.3019584958893237E-002
  0.13680000000000003         -3.1660673181751912E-002
  0.13710000000000000        -0.11246155548165156     
  0.13740000000000002        -0.17906958428627101     
  0.13769999999999999        -0.22207575264677737     
  0.13800000000000001        -0.23409561108990198     
  0.13829999999999998        -0.21032682813953757     
  0.13860000000000000        -0.14910723880131652     
  0.13890000000000002         -5.2548993270567258E-002
  0.13919999999999999          7.4096604982756845E-002
  0.13950000000000001         0.22211718955215137     
  0.13979999999999998         0.38083467741794808     
  0.14010000000000000         0.53768439423316761     
  0.14040000000000002         0.67987360331759061     
  0.14069999999999999         0.79516782512393980     
  0.14100000000000001         0.87310459640675087     
  0.14130000000000004         0.90561410365956674     
  0.14160000000000000         0.88804736319842892     
  0.14189999999999997         0.81894912756519078     
  0.14219999999999999         0.70068969466515096     
  0.14250000000000002         0.53852011464260530     
  0.14279999999999998         0.34082276770591885     
  0.14310000000000000         0.11773302913157706     
  0.14339999999999997        -0.11915090860256536     
  0.14369999999999999        -0.35788542913962867     
  0.14400000000000002        -0.58667583834976511     
  0.14429999999999998        -0.79485239782221007     
  0.14460000000000001        -0.97285732368651945     
  0.14490000000000003         -1.1133549528037465     
  0.14520000000000000         -1.2105455742942703     
  0.14550000000000002         -1.2612133386266486     
  0.14579999999999999         -1.2639280919482614     
  0.14610000000000001         -1.2197107426155063     
  0.14640000000000003         -1.1312607851380183     
  0.14670000000000000         -1.0036944439175179     
  0.14699999999999996        -0.84349914833893047     
  0.14729999999999999        -0.65917255399915642     
  0.14760000000000001        -0.45999513420644184     
  0.14789999999999998        -0.25695446900352059     
  0.14820000000000000         -6.0738018009627082E-002