  -1.4999999999999999E-002     0.0000000000000000     
  -1.4700000000000000E-002     0.0000000000000000     
  -1.4400000000000000E-002     0.0000000000000000     
  -1.4100000000000000E-002     0.0000000000000000     
  -1.3800000000000000E-002     0.0000000000000000     
  -1.3500000000000000E-002     0.0000000000000000     
  -1.3200000000000000E-002     0.0000000000000000     
  -1.2899999999999998E-002     0.0000000000000000     
  -1.2600000000000000E-002     0.0000000000000000     
  -1.2299999999999998E-002     0.0000000000000000     
  -1.2000000000000000E-002     0.0000000000000000     
  -1.1699999999999999E-002     0.0000000000000000     
  -1.1399999999999999E-002     0.0000000000000000     
  -1.1099999999999999E-002     0.0000000000000000     
  -1.0799999999999999E-002     0.0000000000000000     
  -1.0499999999999999E-002     0.0000000000000000     
  -1.0199999999999999E-002     0.0000000000000000     
  -9.8999999999999991E-003     0.0000000000000000     
  -9.5999999999999992E-003     0.0000000000000000     
  -9.2999999999999992E-003     0.0000000000000000     
  -8.9999999999999993E-003     0.0000000000000000     
  -8.6999999999999994E-003     0.0000000000000000     
  -8.3999999999999995E-003     0.0000000000000000     
  -8.0999999999999996E-003     0.0000000000000000     
  -7.7999999999999988E-003     0.0000000000000000     
  -7.4999999999999997E-003     0.0000000000000000     
  -7.1999999999999998E-003     0.0000000000000000     
  -6.8999999999999981E-003     0.0000000000000000     
  -6.5999999999999982E-003     0.0000000000000000     
  -6.3000000000000000E-003     0.0000000000000000     
  -6.0000000000000001E-003     0.0000000000000000     
  -5.6999999999999985E-003     0.0000000000000000     
  -5.3999999999999986E-003     0.0000000000000000     
  -5.1000000000000004E-003     0.0000000000000000     
  -4.7999999999999987E-003     0.0000000000000000     
  -4.5000000000000005E-003     0.0000000000000000     
  -4.1999999999999989E-003     0.0000000000000000     
  -3.8999999999999990E-003     0.0000000000000000     
  -3.5999999999999990E-003     0.0000000000000000     
  -3.2999999999999991E-003     0.0000000000000000     
  -2.9999999999999992E-003     0.0000000000000000     
  -2.6999999999999993E-003     0.0000000000000000     
  -2.3999999999999994E-003     0.0000000000000000     
  -2.0999999999999977E-003     0.0000000000000000     
  -1.7999999999999995E-003     0.0000000000000000     
  -1.4999999999999979E-003     0.0000000000000000     
  -1.1999999999999997E-003     0.0000000000000000     
  -8.9999999999999976E-004     0.0000000000000000     
  -5.9999999999999810E-004     0.0000000000000000     
  -2.9999999999999992E-004     0.0000000000000000     
   0.0000000000000000          0.0000000000000000     
   3.0000000000000165E-004     0.0000000000000000     
   5.9999999999999984E-004     0.0000000000000000     
   9.0000000000000149E-004     0.0000000000000000     
   1.2000000000000031E-003     0.0000000000000000     
   1.5000000000000013E-003     0.0000000000000000     
   1.8000000000000030E-003     0.0000000000000000     
   2.1000000000000012E-003     0.0000000000000000     
   2.3999999999999994E-003     0.0000000000000000     
   2.7000000000000010E-003     0.0000000000000000     
   2.9999999999999992E-003     0.0000000000000000     
   3.3000000000000008E-003     0.0000000000000000     
   3.6000000000000025E-003     0.0000000000000000     
   3.9000000000000007E-003     0.0000000000000000     
   4.2000000000000023E-003     0.0000000000000000     
   4.5000000000000005E-003     0.0000000000000000     
   4.7999999999999987E-003     0.0000000000000000     
   5.1000000000000004E-003     0.0000000000000000     
   5.4000000000000020E-003     0.0000000000000000     
   5.7000000000000037E-003     0.0000000000000000     
   5.9999999999999984E-003     0.0000000000000000     
   6.3000000000000000E-003     0.0000000000000000     
   6.6000000000000017E-003     0.0000000000000000     
   6.9000000000000034E-003     0.0000000000000000     
   7.2000000000000015E-003     0.0000000000000000     
   7.5000000000000032E-003     0.0000000000000000     
   7.8000000000000014E-003     0.0000000000000000     
   8.0999999999999996E-003     0.0000000000000000     
   8.4000000000000012E-003     0.0000000000000000     
   8.7000000000000029E-003     0.0000000000000000     
   9.0000000000000011E-003     0.0000000000000000     
   9.2999999999999992E-003     0.0000000000000000     
   9.6000000000000009E-003     0.0000000000000000     
   9.8999999999999991E-003     0.0000000000000000     
   1.0200000000000001E-002     0.0000000000000000     
   1.0500000000000002E-002     0.0000000000000000     
   1.0800000000000004E-002     0.0000000000000000     
   1.1099999999999999E-002     0.0000000000000000     
   1.1400000000000000E-002     0.0000000000000000     
   1.1700000000000002E-002     0.0000000000000000     
   1.2000000000000004E-002     0.0000000000000000     
   1.2300000000000002E-002     0.0000000000000000     
   1.2600000000000000E-002     0.0000000000000000     
   1.2900000000000002E-002     0.0000000000000000     
   1.3200000000000000E-002     0.0000000000000000     
   1.3500000000000002E-002     0.0000000000000000     
   1.3800000000000003E-002     0.0000000000000000     
   1.4100000000000001E-002     0.0000000000000000     
   1.4400000000000000E-002     0.0000000000000000     
   1.4700000000000001E-002     0.0000000000000000     
   1.4999999999999999E-002     0.0000000000000000     
   1.5300000000000001E-002     0.0000000000000000     
   1.5600000000000003E-002     0.0000000000000000     
   1.5899999999999997E-002     0.0000000000000000     
   1.6199999999999999E-002     0.0000000000000000     
   1.6500000000000001E-002     0.0000000000000000     
   1.6800000000000002E-002     0.0000000000000000     
   1.7100000000000004E-002     0.0000000000000000     
   1.7400000000000006E-002     0.0000000000000000     
   1.7700000000000000E-002     0.0000000000000000     
   1.8000000000000002E-002     0.0000000000000000     
   1.8300000000000004E-002     0.0000000000000000     
   1.8600000000000005E-002     0.0000000000000000     
   1.8900000000000000E-002     0.0000000000000000     
   1.9200000000000002E-002     0.0000000000000000     
   1.9500000000000003E-002     0.0000000000000000     
   1.9799999999999998E-002     0.0000000000000000     
   2.0100000000000000E-002     0.0000000000000000     
   2.0400000000000001E-002     0.0000000000000000     
   2.0700000000000003E-002     0.0000000000000000     
   2.0999999999999998E-002     0.0000000000000000     
   2.1299999999999999E-002     0.0000000000000000     
   2.1600000000000001E-002     0.0000000000000000     
   2.1900000000000003E-002     0.0000000000000000     
   2.2200000000000004E-002     0.0000000000000000     
   2.2500000000000006E-002     0.0000000000000000     
   2.2800000000000001E-002     0.0000000000000000     
   2.3100000000000002E-002     0.0000000000000000     
   2.3400000000000004E-002     0.0000000000000000     
   2.3699999999999999E-002     0.0000000000000000     
   2.4000000000000000E-002     0.0000000000000000     
   2.4300000000000002E-002     0.0000000000000000     
   2.4599999999999997E-002     0.0000000000000000     
   2.4900000000000005E-002     0.0000000000000000     
   2.5200000000000000E-002     0.0000000000000000     
   2.5499999999999995E-002     0.0000000000000000     
   2.5800000000000003E-002     0.0000000000000000     
   2.6099999999999998E-002     0.0000000000000000     
   2.6400000000000007E-002    -5.9886854729719321E-042
   2.6700000000000002E-002     6.5037634067502498E-041
   2.6999999999999996E-002    -9.9347289131552389E-039
   2.7300000000000005E-002    -3.6729029381535640E-037
   2.7600000000000000E-002     3.0021648635348401E-036
   2.7900000000000008E-002    -1.4482489848788851E-035
   2.8200000000000003E-002    -1.3639964789185951E-034
   2.8499999999999998E-002     9.0973807557050791E-034
   2.8800000000000006E-002    -2.8937903369090279E-033
   2.9100000000000001E-002     3.8853029937742573E-033
   2.9400000000000003E-002    -6.1364219085723159E-033
   2.9700000000000004E-002     1.5821033950260563E-032
   3.0000000000000006E-002    -3.3211642581971115E-032
   3.0300000000000001E-002     4.5663225322418778E-032
   3.0600000000000002E-002     1.7494639045706011E-033
   3.0900000000000004E-002    -3.3544346634603867E-031
   3.1199999999999999E-002     1.7155734343739138E-030
   3.1500000000000007E-002    -6.3008570561120905E-030
   3.1800000000000002E-002     1.9496218523594350E-029
   3.2099999999999997E-002    -5.3078765844757946E-029
   3.2400000000000005E-002     1.2813563671612658E-028
   3.2700000000000000E-002    -2.6978539348957076E-028
   3.3000000000000002E-002     4.6735709005693082E-028
   3.3300000000000003E-002    -5.3327077830145442E-028
   3.3599999999999998E-002    -2.7369384054855994E-028
   3.3900000000000000E-002     4.0559145003677507E-027
   3.4200000000000001E-002    -1.5621393060706225E-026
   3.4500000000000003E-002     4.3905915842145721E-026
   3.4799999999999998E-002    -1.0150497185059176E-025
   3.5099999999999999E-002     1.9742637052467431E-025
   3.5400000000000001E-002    -3.1238552326282195E-025
   3.5699999999999996E-002     3.3008669882949272E-025
   3.6000000000000004E-002     1.4494029476035325E-025
   3.6299999999999999E-002    -2.2114719936910700E-024
   3.6600000000000008E-002     8.3407460684548494E-024
   3.6900000000000002E-002    -2.2358216384580735E-023
   3.7199999999999997E-002     4.5327866560287782E-023
   3.7500000000000006E-002    -6.0991692342511491E-023
   3.7800000000000000E-002     6.3509043349134581E-024
   3.8100000000000009E-002     2.6295871037933265E-022
   3.8400000000000004E-002    -9.7093500636845051E-022
   3.8699999999999998E-002     2.2519741486161023E-021
   3.9000000000000007E-002    -3.3771087013411975E-021
   3.9300000000000002E-002     3.7737348490665934E-022
   3.9600000000000003E-002     1.8127092043827053E-020
   3.9900000000000005E-002    -6.9152983270949004E-020
   4.0200000000000000E-002     1.3929246299187552E-019
   4.0500000000000001E-002    -7.5255931416141509E-020
   4.0800000000000003E-002    -5.4211992069663697E-019
   4.1100000000000005E-002     2.1500779309267111E-018
   4.1399999999999999E-002    -3.8061717104812828E-018
   4.1700000000000008E-002     5.5926763030634259E-019
   4.2000000000000003E-002     1.6876512128542529E-017
   4.2299999999999997E-002    -5.0970838878997508E-017
   4.2600000000000006E-002     6.7604916501884920E-017
   4.2900000000000001E-002     3.3224802296227366E-017
   4.3200000000000002E-002    -3.7666484608085285E-016
   4.3500000000000004E-002     8.9994044611224349E-016
   4.3799999999999999E-002    -9.2054366569999089E-016
   4.4100000000000000E-002    -1.2620839742660236E-015
   4.4400000000000002E-002     7.4502551311853982E-015
   4.4700000000000004E-002    -1.4263376596027585E-014
   4.4999999999999998E-002     3.1189652048277912E-015
   4.5300000000000000E-002     5.4583445236454062E-014
   4.5600000000000002E-002    -1.2773234780324341E-013
   4.5899999999999996E-002     5.9943688252443101E-015
   4.6200000000000005E-002     5.5178240809488729E-013
   4.6500000000000000E-002    -8.7246287909646673E-013
   4.6799999999999994E-002    -1.5515054720114493E-012
   4.7100000000000003E-002     7.3592029986821071E-012
   4.7399999999999998E-002    -3.2971737262722493E-012
   4.7700000000000006E-002    -3.7693170100143819E-011
   4.8000000000000001E-002     8.6931885450493289E-011
   4.8300000000000010E-002     5.4686512469086161E-011
   4.8600000000000004E-002    -5.5540015851433467E-010
   4.8899999999999999E-002     6.5891072138798472E-010
   4.9200000000000008E-002     1.5307748947917334E-009
   4.9500000000000002E-002    -5.1775378836625096E-009
   4.9800000000000011E-002     1.2228283442436388E-009
   5.0100000000000006E-002     1.8255489248925372E-008
   5.0400000000000000E-002    -2.8320108173527351E-008
   5.0700000000000009E-002    -3.5307734800958870E-008
   5.1000000000000004E-002     1.4786721665867587E-007
   5.1299999999999998E-002    -1.6152995282160235E-010
   5.1600000000000007E-002    -7.0948249375337256E-007
   5.1900000000000002E-002     7.7244042630852107E-007
   5.2200000000000010E-002     8.4119349470934554E-006
   5.2500000000000005E-002     1.9518697198055153E-005
   5.2800000000000000E-002     2.6177553321868430E-005
   5.3099999999999994E-002     2.9978881721744096E-005
   5.3400000000000003E-002     4.1874422016591404E-005
   5.3699999999999998E-002     6.7017262397465788E-005
   5.4000000000000006E-002     1.0410434512735621E-004
   5.4300000000000001E-002     1.5251497263597092E-004
   5.4599999999999996E-002     2.1766759840852036E-004
   5.4900000000000004E-002     3.1487764883860782E-004
   5.5199999999999999E-002     4.5954228164572731E-004
   5.5499999999999994E-002     6.5739492557124980E-004
   5.5800000000000002E-002     9.1250597542032446E-004
   5.6099999999999997E-002     1.2367698914192236E-003
   5.6400000000000006E-002     1.6448359576158884E-003
   5.6700000000000000E-002     2.1473242486248034E-003
   5.6999999999999995E-002     2.7450278186187025E-003
   5.7300000000000004E-002     3.4189826749394282E-003
   5.7599999999999998E-002     4.1346091254493549E-003
   5.7900000000000007E-002     4.8406437418490140E-003
   5.8200000000000002E-002     5.4481076514260145E-003
   5.8499999999999996E-002     5.8237536283083612E-003
   5.8800000000000005E-002     5.7939178563077183E-003
   5.9100000000000000E-002     5.1429559166663178E-003
   5.9400000000000008E-002     3.6174843820143358E-003
   5.9700000000000003E-002     9.2769447048573865E-004
   6.0000000000000012E-002    -3.2427135332457695E-003
   6.0300000000000006E-002    -9.1813794080764441E-003
   6.0600000000000001E-002    -1.7090709304809333E-002
   6.0900000000000010E-002    -2.7075017818809985E-002
   6.1200000000000004E-002    -3.9084424629306190E-002
   6.1500000000000013E-002    -5.2811150054863282E-002
   6.1800000000000008E-002    -6.7640517541586620E-002
   6.2100000000000002E-002    -8.2631140026906247E-002
   6.2399999999999997E-002    -9.6477898047049121E-002
   6.2700000000000006E-002   -0.10752485433378534     
   6.3000000000000000E-002   -0.11384414414342725     
   6.3300000000000009E-002   -0.11331710160632352     
   6.3600000000000004E-002   -0.10379753174690776     
   6.3899999999999998E-002    -8.3367387178054836E-002
   6.4199999999999993E-002    -5.0558845612940870E-002
   6.4500000000000002E-002    -4.5855867249974015E-003
   6.4800000000000010E-002     5.4363044817167694E-002
   6.5100000000000005E-002    0.12490288162512278     
   6.5400000000000000E-002    0.20440624750750114     
   6.5700000000000008E-002    0.28894691910215808     
   6.5999999999999989E-002    0.37334670428594446     
   6.6299999999999998E-002    0.45148751531389464     
   6.6600000000000006E-002    0.51674626289103931     
   6.6900000000000001E-002    0.56247304220424077     
   6.7199999999999996E-002    0.58256108866471956     
   6.7500000000000004E-002    0.57211575623057898     
   6.7800000000000013E-002    0.52804385880054672     
   6.8099999999999994E-002    0.44952301888681756     
   6.8400000000000002E-002    0.33834194413991431     
   6.8700000000000011E-002    0.19897425418624198     
   6.8999999999999992E-002     3.8489862844603671E-002
   6.9300000000000000E-002   -0.13384607467250420     
   6.9600000000000009E-002   -0.30725709516871036     
   6.9900000000000004E-002   -0.47021425664359173     
   7.0199999999999999E-002   -0.61136855422641223     
   7.0500000000000007E-002   -0.72046649183260114     
   7.0800000000000016E-002   -0.78935832357724944     
   7.1099999999999997E-002   -0.81269448315493387     
   7.1400000000000005E-002   -0.78833848353971259     
   7.1700000000000000E-002   -0.71772460024967155     
   7.1999999999999995E-002   -0.60581512149584515     
   7.2300000000000003E-002   -0.46060483667625285     
   7.2600000000000012E-002   -0.29254899668463730     
   7.2900000000000006E-002   -0.11374970461951783     
   7.3200000000000001E-002     6.3067908463063538E-002
   7.3499999999999996E-002    0.22553790683035774     
   7.3800000000000004E-002    0.36259050936973014     
   7.4099999999999999E-002    0.46529832481986844     
   7.4400000000000008E-002    0.52742071166677296     
   7.4700000000000003E-002    0.54575291193461095     
   7.5000000000000011E-002    0.52033884193946367     
   7.5299999999999992E-002    0.45420314802036565     
   7.5600000000000001E-002    0.35289082505145808     
   7.5900000000000009E-002    0.22404244060019995     
   7.6200000000000004E-002     7.6682251237563323E-002
   7.6499999999999999E-002    -7.9554011275627945E-002
   7.6800000000000007E-002   -0.23512482155872788     
   7.7099999999999988E-002   -0.38118382265011824     
   7.7399999999999997E-002   -0.51006769310620448     
   7.7700000000000005E-002   -0.61576001738893815     
   7.8000000000000014E-002   -0.69404153277056091     
   7.8299999999999995E-002   -0.74255333293229597     
   7.8600000000000003E-002   -0.76074357903372114     
   7.8900000000000012E-002   -0.74962697903801112     
   7.9199999999999993E-002   -0.71157812664507170     
   7.9500000000000001E-002   -0.64995027842004227     
   7.9800000000000010E-002   -0.56870345993243676     
   8.0100000000000018E-002   -0.47208223070466404     
   8.0399999999999999E-002   -0.36436546515735813     
   8.0700000000000008E-002   -0.24954376491433361     
   8.1000000000000003E-002   -0.13101819152067246     
   8.1299999999999997E-002    -1.1746586272915707E-002
   8.1600000000000006E-002    0.10601044425620182     
   8.1900000000000014E-002    0.22061655616592724     
   8.2199999999999995E-002    0.33078555104541901     
   8.2500000000000004E-002    0.43574034514639060     
   8.2799999999999999E-002    0.53478018094199675     
   8.3100000000000007E-002    0.62711549200289030     
   8.3400000000000002E-002    0.71179248458731448     
   8.3700000000000011E-002    0.78760022665921459     
   8.4000000000000005E-002    0.85286253957127278     
   8.4300000000000000E-002    0.90537010600934642     
   8.4599999999999995E-002    0.94277706447709342     
   8.4900000000000003E-002    0.96257772968099165     
   8.5199999999999998E-002    0.96224973081565723     
   8.5500000000000007E-002    0.93956123143865566     
   8.5800000000000001E-002    0.89302043653243235     
   8.6100000000000010E-002    0.82209838225477749     
   8.6399999999999991E-002    0.72704586816963568     
   8.6699999999999999E-002    0.60965778447025409     
   8.7000000000000008E-002    0.47303608842185618     
   8.7300000000000003E-002    0.32119747133224702     
   8.7599999999999997E-002    0.15940579036899527     
   8.7900000000000006E-002    -6.3311117497146727E-003
   8.8200000000000014E-002   -0.16956275451019484     
   8.8499999999999995E-002   -0.32393215085301902     
   8.8800000000000004E-002   -0.46332961740634371     
   8.9100000000000013E-002   -0.58249534918513990     
   8.9399999999999993E-002   -0.67728509000968906     
   8.9700000000000002E-002   -0.74463200542112706     
   9.0000000000000011E-002   -0.78342646490615819     
   9.0299999999999991E-002   -0.79383861313082260     
   9.0600000000000000E-002   -0.77742441873455215     
   9.0900000000000009E-002   -0.73748251398748965     
   9.1200000000000017E-002   -0.67813856029286912     
   9.1499999999999998E-002   -0.60430940240955366     
   9.1800000000000007E-002   -0.52142680728484914     
   9.2100000000000001E-002   -0.43492038963023572     
   9.2399999999999996E-002   -0.34971823279399233     
   9.2700000000000005E-002   -0.27000064819284164     
   9.3000000000000013E-002   -0.19891021272178380     
   9.3300000000000008E-002   -0.13806371775950826     
   9.3600000000000003E-002    -8.7942009194947379E-002
   9.3899999999999997E-002    -4.7478298112837887E-002
   9.4200000000000006E-002    -1.4158102415673252E-002
   9.4500000000000001E-002     1.5326021470649006E-002
   9.4800000000000009E-002     4.4829167682113522E-002
   9.5100000000000004E-002     7.8291283534445449E-002
   9.5399999999999999E-002    0.11925978526404510     
   9.5699999999999993E-002    0.17027112300733130     
   9.6000000000000002E-002    0.23211987344474080     
   9.6300000000000011E-002    0.30399901063846868     
   9.6600000000000005E-002    0.38306011437352311     
   9.6900000000000000E-002    0.46415841530445134     
   9.7200000000000009E-002    0.54058777331967167     
   9.7499999999999989E-002    0.60423686386336850     
   9.7799999999999998E-002    0.64626291156874427     
   9.8100000000000007E-002    0.65799097600205536     
   9.8400000000000015E-002    0.63150332153597133     
   9.8699999999999996E-002    0.56089442505010878     
   9.9000000000000005E-002    0.44294003722859809     
   9.9300000000000013E-002    0.27755539639200527     
   9.9599999999999994E-002     6.8043084491227063E-002
   9.9900000000000003E-002   -0.17848784253551683     
  0.10020000000000001        -0.45123525031863654     
  0.10049999999999999        -0.73695831383635135     
  0.10080000000000000         -1.0200590343725089     
  0.10110000000000001         -1.2836346316724621     
  0.10140000000000000         -1.5109626859779650     
  0.10170000000000000         -1.6862466084872059     
  0.10200000000000001         -1.7957947177306437     
  0.10230000000000002         -1.8290077039283110     
  0.10260000000000000         -1.7789164932982222     
  0.10290000000000001         -1.6428071148868784     
  0.10320000000000000         -1.4224514111733952     
  0.10350000000000001         -1.1240596644200862     
  0.10380000000000000        -0.75787039712936277     
  0.10410000000000001        -0.33788972112997101     
  0.10440000000000001         0.11872557423389417     
  0.10470000000000000         0.59266345089834771     
  0.10500000000000000          1.0633294099769286     
  0.10530000000000000          1.5097434242335583     
  0.10560000000000000          1.9110878218605674     
  0.10590000000000001          2.2488495715766543     
  0.10620000000000000          2.5071719436823026     
  0.10650000000000001          2.6731975729175699     
  0.10679999999999999          2.7389274713340872     
  0.10710000000000000          2.7015226914637362     
  0.10740000000000001          2.5633578376401025     
  0.10770000000000000          2.3319247238794962     
  0.10800000000000000          2.0200926772255925     
  0.10830000000000001          1.6451672109025322     
  0.10859999999999999          1.2276626919533211     
  0.10890000000000000         0.79033609546104544     
  0.10920000000000001         0.35607488889978500     
  0.10950000000000001         -5.2659601660408825E-002
  0.10979999999999999        -0.41602170853582932     
  0.11009999999999999        -0.71863364100828853     
  0.11040000000000001        -0.94955363626668809     
  0.11070000000000001         -1.1031726477373820     
  0.11100000000000000         -1.1798527949286297     
  0.11130000000000000         -1.1853897465345824     
  0.11160000000000002         -1.1295005188550102     
  0.11190000000000001         -1.0254390127905548     
  0.11220000000000001        -0.88846858212002577     
  0.11250000000000000        -0.73405856112204260     
  0.11280000000000000        -0.57680136780593350     
  0.11309999999999999        -0.42919029749927973     
  0.11340000000000001        -0.30080269154961692     
  0.11369999999999998        -0.19829822432974484     
  0.11400000000000000        -0.12484620504670235     
  0.11430000000000000         -8.0985489575419123E-002
  0.11460000000000002         -6.5583490348374157E-002
  0.11489999999999999         -7.6193630013743283E-002
  0.11520000000000001        -0.10994052036095892     
  0.11550000000000001        -0.16414700069157651     
  0.11580000000000000        -0.23717257042844589     
  0.11609999999999999        -0.32749965948979837     
  0.11640000000000002        -0.43395720281834649     
  0.11670000000000001        -0.55532340163353844     
  0.11700000000000001        -0.68889335890265502     
  0.11730000000000000        -0.83053726951804108     
  0.11760000000000000        -0.97377576790780473     
  0.11789999999999999         -1.1096107568007112     
  0.11820000000000001         -1.2270632552194125     
  0.11850000000000001         -1.3133628602500709     
  0.11880000000000000         -1.3556291444988797     
  0.11910000000000000         -1.3420827529470487     
  0.11940000000000002         -1.2631476595987321     
  0.11970000000000001         -1.1135362815360168     
  0.12000000000000001        -0.89292974765757416     
  0.12030000000000000        -0.60671816925225053     
  0.12060000000000000        -0.26619867298984234     
  0.12089999999999999         0.11195582570601384     
  0.12119999999999999         0.50726838270826047     
  0.12150000000000001         0.89644942626851787     
  0.12180000000000001          1.2554034414031892     
  0.12210000000000000          1.5618431105585278     
  0.12239999999999999          1.7964218478536376     
  0.12270000000000002          1.9446677960240470     
  0.12300000000000001          1.9979349246563922     
  0.12330000000000001          1.9536714094463958     
  0.12360000000000000          1.8163109862277320     
  0.12390000000000000          1.5955561231929851     
  0.12419999999999999          1.3057532665114149     
  0.12450000000000001         0.96525398371451998     
  0.12480000000000001         0.59427063691545534     
  0.12509999999999999         0.21350646166850779     
  0.12540000000000001        -0.15673417823237393     
  0.12570000000000003        -0.49762977592863267     
  0.12600000000000000        -0.79310314524954695     
  0.12630000000000002         -1.0300851074625983     
  0.12659999999999999         -1.1987920720473402     
  0.12690000000000001         -1.2931316144643970     
  0.12719999999999998         -1.3104730559452411     
  0.12750000000000000         -1.2521706215949986     
  0.12780000000000002         -1.1230244701585066     
  0.12809999999999999        -0.93085901720797937     
  0.12840000000000001        -0.68712923377338864     
  0.12869999999999998        -0.40620567952606690     
  0.12900000000000000        -0.10453585095336759     
  0.12930000000000003         0.19960203320516373     
  0.12959999999999999         0.48694216135777224     
  0.12990000000000002         0.73817804596125269     
  0.13019999999999998         0.93568379031258719     
  0.13050000000000000          1.0642965413479444     
  0.13080000000000003          1.1123289343998923     
  0.13109999999999999          1.0732037156783942     
  0.13140000000000002         0.94605562212642735     
  0.13169999999999998         0.73606787708251820     
  0.13200000000000001         0.45439075305158938     
  0.13229999999999997         0.11793163872274864     
  0.13260000000000000        -0.25151789017844939     
  0.13290000000000002        -0.62933555964671140     
  0.13319999999999999        -0.98927316017655764     
  0.13350000000000001         -1.3055812259949886     
  0.13380000000000003         -1.5550615441847397     
  0.13410000000000000         -1.7186119740828032     
  0.13440000000000002         -1.7835644898470731     
  0.13469999999999999         -1.7437371896295979     
  0.13500000000000001         -1.6002716460058042     
  0.13529999999999998         -1.3620707671374248     
  0.13560000000000000         -1.0441497247529750     
  0.13590000000000002        -0.66699287239642291     
  0.13619999999999999        -0.25473632501085897     
  0.13650000000000001         0.16670610964445309     
  0.13680000000000003         0.57161582125812493     
  0.13710000000000000         0.93614619964254875     
  0.13740000000000002          1.2398250297396818     
  0.13769999999999999          1.4672497926880237     
  0.13800000000000001          1.6080021922197392     
  0.13829999999999998          1.6578270704212723     
  0.13860000000000000          1.6182172139604232     
  0.13890000000000002          1.4955299678147249     
  0.13919999999999999          1.3010801356355852     
  0.13950000000000001          1.0499260582390304     
  0.13979999999999998         0.75965540022739386     
  0.14010000000000000         0.44932280254003720     
  0.14040000000000002         0.13848320304955863     
  0.14069999999999999        -0.15405728426560314     
  0.14100000000000001        -0.41147673254625050     
  0.14130000000000004        -0.61994590512304482     
  0.14160000000000000        -0.76950202175153271     
  0.14189999999999997        -0.85465500710258335     
  0.14219999999999999        -0.87496569368978716     
  0.14250000000000002        -0.83528150887249419     
  0.14279999999999998        -0.74501405182651415     
  0.14310000000000000        -0.61756154858949019     
  0.14339999999999997        -0.46947343301665101     
  0.14369999999999999        -0.31851480204054311     
  0.14400000000000002        -0.18227930653320579     
  0.14429999999999998         -7.6633457996273913E-002
  0.14460000000000001         -1.3775857835504363E-002
  0.14490000000000003         -1.1852785817081102E-003
  0.14520000000000000         -4.1197568822471997E-002
  0.14550000000000002        -0.13060947606533679     
  0.14579999999999999        -0.26038506734992900     
  0.14610000000000001        -0.41743964770712155     
  0.14640000000000003        -0.58589362347285001     
  0.14670000000000000        -0.74811468616346888     
  0.14699999999999996        -0.88654493485528774     
  0.14729999999999999        -0.98533226843164057     
  0.14760000000000001         -1.0320875188363219     
  0.14789999999999998         -1.0177400488842501     
  0.14820000000000000        -0.93749011956311579     