  -1.4999999999999999E-002     0.0000000000000000     
  -1.4700000000000000E-002     2.0585437518915357E-007
  -1.4400000000000000E-002     1.7219341346540576E-006
  -1.4100000000000000E-002    -3.0660281099252600E-006
  -1.3800000000000000E-002    -9.2331301423672837E-006
  -1.3500000000000000E-002    -4.5177696243679868E-006
  -1.3200000000000000E-002     1.0577982148595600E-005
  -1.2899999999999998E-002     2.9386093963602750E-005
  -1.2600000000000000E-002    -9.8773959607550480E-006
  -1.2299999999999998E-002    -3.1117370197039236E-005
  -1.2000000000000000E-002    -6.1465333960032122E-005
  -1.1699999999999999E-002    -3.9091619560115948E-005
  -1.1399999999999999E-002     2.0697738436998562E-005
  -1.1099999999999999E-002     3.4055865956771756E-005
  -1.0799999999999999E-002     3.6963531711178821E-005
  -1.0499999999999999E-002    -2.9139630134144445E-005
  -1.0199999999999999E-002    -1.0294762878813656E-004
  -9.8999999999999991E-003    -1.0149731272570898E-004
  -9.5999999999999992E-003    -1.1926919184212327E-004
  -9.2999999999999992E-003    -6.3595544658059787E-005
  -8.9999999999999993E-003    -1.1284245082972003E-005
  -8.6999999999999994E-003     1.0540145733717956E-004
  -8.3999999999999995E-003     2.7503739274930205E-004
  -8.0999999999999996E-003     4.4713265614998692E-004
  -7.7999999999999988E-003     6.3577898955109497E-004
  -7.4999999999999997E-003     7.4554782503350348E-004
  -7.1999999999999998E-003     7.8500658099790158E-004
  -6.8999999999999981E-003     8.8634107892711811E-004
  -6.5999999999999982E-003     9.1080671706080484E-004
  -6.3000000000000000E-003     9.2442768157851153E-004
  -6.0000000000000001E-003     6.4289957158987737E-004
  -5.6999999999999985E-003    -3.0675529458496105E-004
  -5.3999999999999986E-003    -2.4479376759370805E-003
  -5.1000000000000004E-003    -6.8093926319394418E-003
  -4.7999999999999987E-003    -1.4547393759564259E-002
  -4.5000000000000005E-003    -2.7494820730396972E-002
  -4.1999999999999989E-003    -4.8043479488144955E-002
  -3.8999999999999990E-003    -7.9355117138733958E-002
  -3.5999999999999990E-003   -0.12553356572214036     
  -3.2999999999999991E-003   -0.19183779150591615     
  -2.9999999999999992E-003   -0.28474756455790162     
  -2.6999999999999993E-003   -0.41182821924151186     
  -2.3999999999999994E-003   -0.58178082658190622     
  -2.0999999999999977E-003   -0.80434028527476220     
  -1.7999999999999995E-003    -1.0889814386871093     
  -1.4999999999999979E-003    -1.4450431420309591     
  -1.1999999999999997E-003    -1.8802556402591626     
  -8.9999999999999976E-004    -2.3980630081528775     
  -5.9999999999999810E-004    -2.9986479923757576     
  -2.9999999999999992E-004    -3.6742830882749784     
   0.0000000000000000         -4.4087033787179593     
   3.0000000000000165E-004    -5.1750407579701534     
   5.9999999999999984E-004    -5.9337644708646780     
   9.0000000000000149E-004    -6.6321320355667046     
   1.2000000000000031E-003    -7.2044572266652196     
   1.5000000000000013E-003    -7.5733627255756932     
   1.8000000000000030E-003    -7.6533583077008291     
   2.1000000000000012E-003    -7.3562438839799116     
   2.3999999999999994E-003    -6.5967748029351441     
   2.7000000000000010E-003    -5.3029653477813339     
   2.9999999999999992E-003    -3.4227754246030631     
   3.3000000000000008E-003   -0.93745174792416808     
   3.6000000000000025E-003     2.1334512999368385     
   3.9000000000000007E-003     5.7224872453767697     
   4.2000000000000023E-003     9.7098056902617724     
   4.5000000000000005E-003     13.927787882716210     
   4.7999999999999987E-003     18.158699014694921     
   5.1000000000000004E-003     22.152309256169534     
   5.4000000000000020E-003     25.636293101519090     
   5.7000000000000037E-003     28.337445759091178     
   5.9999999999999984E-003     30.002358809125159     
   6.3000000000000000E-003     30.421454703926226     
   6.6000000000000017E-003     29.448846079913285     
   6.9000000000000034E-003     27.021334854989203     
   7.2000000000000015E-003     23.166323912469814     
   7.5000000000000032E-003     18.011214603627188     
   7.8000000000000014E-003     11.775703922213539     
   8.0999999999999996E-003     4.7574321841743936     
   8.4000000000000012E-003    -2.6788964932409156     
   8.7000000000000029E-003    -10.139363132180943     
   9.0000000000000011E-003    -17.218894583344031     
   9.2999999999999992E-003    -23.535567664681725     
   9.6000000000000009E-003    -28.759480692681919     
   9.8999999999999991E-003    -32.629687405838233     
   1.0200000000000001E-002    -34.977969197877904     
   1.0500000000000002E-002    -35.733698857549619     
   1.0800000000000004E-002    -34.923510601045685     
   1.1099999999999999E-002    -32.670317782036356     
   1.1400000000000000E-002    -29.172219528920238     
   1.1700000000000002E-002    -24.688958569433726     
   1.2000000000000004E-002    -19.521783440891305     
   1.2300000000000002E-002    -13.984091541553489     
   1.2600000000000000E-002    -8.3864888637433257     
   1.2900000000000002E-002    -3.0151077339006971     
   1.3200000000000000E-002     1.8892536166774219     
   1.3500000000000002E-002     6.1294018109849926     
   1.3800000000000003E-002     9.5737014221604451     
   1.4100000000000001E-002     12.145933606938483     
   1.4400000000000000E-002     13.827251854077318     
   1.4700000000000001E-002     14.654062675912732     
   1.4999999999999999E-002     14.699511938167744     
   1.5300000000000001E-002     14.075293973407959     
   1.5600000000000003E-002     12.912004938572361     
   1.5899999999999997E-002     11.352410831155238     
   1.6199999999999999E-002     9.5454154937245530     
   1.6500000000000001E-002     7.6294337833393069     
   1.6800000000000002E-002     5.7315885782564768     
   1.7100000000000004E-002     3.9636791141036016     
   1.7400000000000006E-002     2.4104236180327243     
   1.7700000000000000E-002     1.1382191581766608     
   1.8000000000000002E-002    0.18533665177365141     
   1.8300000000000004E-002   -0.43573312089294869     
   1.8600000000000005E-002   -0.73103857446873755     
   1.8900000000000000E-002   -0.73334619996298600     
   1.9200000000000002E-002   -0.49002958926456563     
   1.9500000000000003E-002    -5.9215603653967462E-002
   1.9799999999999998E-002    0.48466542139755703     
   2.0100000000000000E-002     1.0726194331330177     
   2.0400000000000001E-002     1.6326929204801597     
   2.0700000000000003E-002     2.0986765404751400     
   2.0999999999999998E-002     2.4218107130093891     
   2.1299999999999999E-002     2.5609319970685589     
   2.1600000000000001E-002     2.4976585586937321     
   2.1900000000000003E-002     2.2300098548336140     
   2.2200000000000004E-002     1.7709384531918302     
   2.2500000000000006E-002     1.1546600408715562     
   2.2800000000000001E-002    0.42177658705901333     
   2.3100000000000002E-002   -0.37698966662126576     
   2.3400000000000004E-002    -1.1823748969884562     
   2.3699999999999999E-002    -1.9433723086884411     
   2.4000000000000000E-002    -2.6064736219060385     
   2.4300000000000002E-002    -3.1290926292957177     
   2.4599999999999997E-002    -3.4820715723558004     
   2.4900000000000005E-002    -3.6441320713363394     
   2.5200000000000000E-002    -3.6105124298939928     
   2.5499999999999995E-002    -3.3915905319477591     
   2.5800000000000003E-002    -3.0041903863040065     
   2.6099999999999998E-002    -2.4847979008644230     
   2.6400000000000007E-002    -1.8707954417905988     
   2.6700000000000002E-002    -1.2067775345588692     
   2.6999999999999996E-002   -0.54276391866667950     
   2.7300000000000005E-002     8.1403543077299176E-002
   2.7600000000000000E-002    0.62089211847929882     
   2.7900000000000008E-002     1.0469921852651576     
   2.8200000000000003E-002     1.3361663776612955     
   2.8499999999999998E-002     1.4797364381254487     
   2.8800000000000006E-002     1.4782395234599823     
   2.9100000000000001E-002     1.3455817549168696     
   2.9400000000000003E-002     1.1029022779417985     
   2.9700000000000004E-002    0.78097800871027601     
   3.0000000000000006E-002    0.41261206620887642     
   3.0300000000000001E-002     3.4840052516447714E-002
   3.0600000000000002E-002   -0.31729481995438952     
   3.0900000000000004E-002   -0.61824179955693415     
   3.1199999999999999E-002   -0.83726896202332302     
   3.1500000000000007E-002   -0.96328909492197690     
   3.1800000000000002E-002   -0.98568631548464825     
   3.2099999999999997E-002   -0.90390445188623292     
   3.2400000000000005E-002   -0.72765476850231592     
   3.2700000000000000E-002   -0.47187791628348441     
   3.3000000000000002E-002   -0.15732829078894423     
   3.3300000000000003E-002    0.19058467695141751     
   3.3599999999999998E-002    0.54571490195940386     
   3.3900000000000000E-002    0.87943761230538053     
   3.4200000000000001E-002     1.1664266449832832     
   3.4500000000000003E-002     1.3869045825455661     
   3.4799999999999998E-002     1.5214923470281203     
   3.5099999999999999E-002     1.5655809479883327     
   3.5400000000000001E-002     1.5160835817791189     
   3.5699999999999996E-002     1.3787079893438270     
   3.6000000000000004E-002     1.1699780077789694     
   3.6299999999999999E-002    0.90720026484283089     
   3.6600000000000008E-002    0.61642419351548239     
   3.6900000000000002E-002    0.32145499548147694     
   3.7199999999999997E-002     4.6788194560220639E-002
   3.7500000000000006E-002   -0.18528397298995408     
   3.7800000000000000E-002   -0.36144944533465345     
   3.8100000000000009E-002   -0.46920084133168655     
   3.8400000000000004E-002   -0.50789635259780264     
   3.8699999999999998E-002   -0.48051564497468147     
   3.9000000000000007E-002   -0.39785812682577915     
   3.9300000000000002E-002   -0.27419472958057489     
   3.9600000000000003E-002   -0.12674691869273244     
   3.9900000000000005E-002     2.5749020006648693E-002
   4.0200000000000000E-002    0.16459931646808906     
   4.0500000000000001E-002    0.27410916876668417     
   4.0800000000000003E-002    0.33875892463980273     
   4.1100000000000005E-002    0.34867596931192790     
   4.1399999999999999E-002    0.29880403964443464     
   4.1700000000000008E-002    0.18400435298993195     
   4.2000000000000003E-002     9.5825528861703570E-003
   4.2299999999999997E-002   -0.22012013252824686     
   4.2600000000000006E-002   -0.49380049797966896     
   4.2900000000000001E-002   -0.79567382819560939     
   4.3200000000000002E-002    -1.1085036212751451     
   4.3500000000000004E-002    -1.4106475499488342     
   4.3799999999999999E-002    -1.6796624982486714     
   4.4100000000000000E-002    -1.8938557137797463     
   4.4400000000000002E-002    -2.0300068971527869     
   4.4700000000000004E-002    -2.0737831586124531     
   4.4999999999999998E-002    -2.0109913225673539     
   4.5300000000000000E-002    -1.8370946420548264     
   4.5600000000000002E-002    -1.5569011865305011     
   4.5899999999999996E-002    -1.1789534950104885     
   4.6200000000000005E-002   -0.72450479552487079     
   4.6500000000000000E-002   -0.21927309220299604     
   4.6799999999999994E-002    0.30469541722002896     
   4.7100000000000003E-002    0.81379348906447535     
   4.7399999999999998E-002     1.2744467219401197     
   4.7700000000000006E-002     1.6552755668446182     
   4.8000000000000001E-002     1.9321341237033949     
   4.8300000000000010E-002     2.0881635778714771     
   4.8600000000000004E-002     2.1142718384145986     
   4.8899999999999999E-002     2.0153719965983639     
   4.9200000000000008E-002     1.8031099666838202     
   4.9500000000000002E-002     1.4982323362453511     
   4.9800000000000011E-002     1.1293812822206057     
   5.0100000000000006E-002    0.72677075662109181     
   5.0400000000000000E-002    0.32451350783300731     
   5.0700000000000009E-002    -4.8453593626686359E-002
   5.1000000000000004E-002   -0.36461274698760204     
   5.1299999999999998E-002   -0.60427994422053255     
   5.1600000000000007E-002   -0.75816655349227435     
   5.1900000000000002E-002   -0.82070147950013117     
   5.2200000000000010E-002   -0.79746276221880552     
   5.2500000000000005E-002   -0.70076567466692863     
   5.2800000000000000E-002   -0.54548676150042330     
   5.3099999999999994E-002   -0.35285525726404920     
   5.3400000000000003E-002   -0.14130462931603158     
   5.3699999999999998E-002     6.8954850518570004E-002
   5.4000000000000006E-002    0.26280284816392407     
   5.4300000000000001E-002    0.42891964362785179     
   5.4599999999999996E-002    0.55769562131967154     
   5.4900000000000004E-002    0.64688365576912832     
   5.5199999999999999E-002    0.69752173130525841     
   5.5499999999999994E-002    0.71041439294479358     
   5.5800000000000002E-002    0.69393436216961391     
   5.6099999999999997E-002    0.65250060983193237     
   5.6400000000000006E-002    0.59259037228444134     
   5.6700000000000000E-002    0.52316282216948229     
   5.6999999999999995E-002    0.44582517200005695     
   5.7300000000000004E-002    0.37077341844874745     
   5.7599999999999998E-002    0.29788123213378986     
   5.7900000000000007E-002    0.23191789237300248     
   5.8200000000000002E-002    0.17566422351802338     
   5.8499999999999996E-002    0.12698521823852524     
   5.8800000000000005E-002     8.7639852633661669E-002
   5.9100000000000000E-002     5.6139664927216608E-002
   5.9400000000000008E-002     2.7643387216001555E-002
   5.9700000000000003E-002     1.5602552792110163E-003
   6.0000000000000012E-002    -2.7277101540743955E-002
   6.0300000000000006E-002    -6.4021654466171599E-002
   6.0600000000000001E-002   -0.10794733578588751     
   6.0900000000000010E-002   -0.16558977313091836     
   6.1200000000000004E-002   -0.23295107017796396     
   6.1500000000000013E-002   -0.31193831233293384     
   6.1800000000000008E-002   -0.39904972703486152     
   6.2100000000000002E-002   -0.48834776914473321     
   6.2399999999999997E-002   -0.57819777873643963     
   6.2700000000000006E-002   -0.65867334992113735     
   6.3000000000000000E-002   -0.72693032623325471     
   6.3300000000000009E-002   -0.77769876300932284     
   6.3600000000000004E-002   -0.80567009257487465     
   6.3899999999999998E-002   -0.80987937396691301     
   6.4199999999999993E-002   -0.78956313145396551     
   6.4500000000000002E-002   -0.74259836804894408     
   6.4800000000000010E-002   -0.67512579000500794     
   6.5100000000000005E-002   -0.58621991880482227     
   6.5400000000000000E-002   -0.48283905837914859     
   6.5700000000000008E-002   -0.37016818749620722     
   6.5999999999999989E-002   -0.25075376721993475     
   6.6299999999999998E-002   -0.13439614007894990     
   6.6600000000000006E-002    -2.3406663194117036E-002
   6.6900000000000001E-002     7.4916532623765728E-002
   6.7199999999999996E-002    0.15671442421887499     
   6.7500000000000004E-002    0.21898336703601076     
   6.7800000000000013E-002    0.25959387425851771     
   6.8099999999999994E-002    0.27788472160605315     
   6.8400000000000002E-002    0.27624836436682365     
   6.8700000000000011E-002    0.25511628243730627     
   6.8999999999999992E-002    0.22137322753955280     
   6.9300000000000000E-002    0.17826364584215257     
   6.9600000000000009E-002    0.13146672734790593     
   6.9900000000000004E-002     8.7460795591833770E-002
   7.0199999999999999E-002     4.9805903967666286E-002
   7.0500000000000007E-002     2.3470041814383488E-002
   7.0800000000000016E-002     1.0125355357514722E-002
   7.1099999999999997E-002     1.2958605771928373E-002
   7.1400000000000005E-002     3.0567547887614038E-002
   7.1700000000000000E-002     6.2931861483485577E-002
   7.1999999999999995E-002    0.10746951191964413     
   7.2300000000000003E-002    0.16237643310835626     
   7.2600000000000012E-002    0.22259320534059140     
   7.2900000000000006E-002    0.28694665865543745     
   7.3200000000000001E-002    0.34953550165556851     
   7.3499999999999996E-002    0.40722308487252273     
   7.3800000000000004E-002    0.45660681638298528     
   7.4099999999999999E-002    0.49324853531110840     
   7.4400000000000008E-002    0.51498736403205969     
   7.4700000000000003E-002    0.51836462353751089     
   7.5000000000000011E-002    0.50167872135984981     
   7.5299999999999992E-002    0.46439810242402213     
   7.5600000000000001E-002    0.40584762518360068     
   7.5900000000000009E-002    0.32718391816694176     
   7.6200000000000004E-002    0.23092922545045569     
   7.6499999999999999E-002    0.11947313550707275     
   7.6800000000000007E-002    -3.4033291190920844E-003
   7.7099999999999988E-002   -0.13274717876986214     
   7.7399999999999997E-002   -0.26466258644826929     
   7.7700000000000005E-002   -0.39350488356865138     
   7.8000000000000014E-002   -0.51407599349716349     
   7.8299999999999995E-002   -0.62323600243284161     
   7.8600000000000003E-002   -0.71410370407529922     
   7.8900000000000012E-002   -0.78516567558801820     
   7.9199999999999993E-002   -0.83260680307433010     
   7.9500000000000001E-002   -0.85305835146529563     
   7.9800000000000010E-002   -0.84745891377629468     
   8.0100000000000018E-002   -0.81377472135650841     
   8.0399999999999999E-002   -0.75405521923263474     
   8.0700000000000008E-002   -0.67066826160434656     
   8.1000000000000003E-002   -0.56576134518135557     
   8.1299999999999997E-002   -0.44553764314917726     
   8.1600000000000006E-002   -0.31247364044954695     
   8.1900000000000014E-002   -0.17391413365282193     
   8.2199999999999995E-002    -3.5469853128104849E-002
   8.2500000000000004E-002     9.9554096736425624E-002
   8.2799999999999999E-002    0.22453510029777285     
   8.3100000000000007E-002    0.33616309889080948     
   8.3400000000000002E-002    0.43297117681741693     
   8.3700000000000011E-002    0.51060086474653421     
   8.4000000000000005E-002    0.57058686176332107     
   8.4300000000000000E-002    0.61143225728890249     
   8.4599999999999995E-002    0.63479721981188597     
   8.4900000000000003E-002    0.64414561231749590     
   8.5199999999999998E-002    0.63845694533997877     
   8.5500000000000007E-002    0.62443381975704826     
   8.5800000000000001E-002    0.60358471033898131     
   8.6100000000000010E-002    0.57796216325766181     
   8.6399999999999991E-002    0.55371409853467302     
   8.6699999999999999E-002    0.53120428454731927     
   8.7000000000000008E-002    0.51225578874408695     
   8.7300000000000003E-002    0.49956300876140086     
   8.7599999999999997E-002    0.49102652152860032     
   8.7900000000000006E-002    0.48740235063786952     
   8.8200000000000014E-002    0.48536914764712158     
   8.8499999999999995E-002    0.48184097161982542     
   8.8800000000000004E-002    0.47481596985978297     
   8.9100000000000013E-002    0.45822692722737174     
   8.9399999999999993E-002    0.43111411797150129     
   8.9700000000000002E-002    0.39010985068870174     
   9.0000000000000011E-002    0.33188004966351287     
   9.0299999999999991E-002    0.25753744391966604     
   9.0600000000000000E-002    0.16647662931889082     
   9.0900000000000009E-002     5.9985493696793103E-002
   9.1200000000000017E-002    -5.8553745873508999E-002
   9.1499999999999998E-002   -0.18631958039105093     
   9.1800000000000007E-002   -0.31984252438524519     
   9.2100000000000001E-002   -0.45453531502655770     
   9.2399999999999996E-002   -0.58727542801282961     
   9.2700000000000005E-002   -0.71109454570804709     
   9.3000000000000013E-002   -0.82657795329355910     
   9.3300000000000008E-002   -0.92653834573755034     
   9.3600000000000003E-002    -1.0103999405270310     
   9.3899999999999997E-002    -1.0759853205782612     
   9.4200000000000006E-002    -1.1200968166000120     
   9.4500000000000001E-002    -1.1444102709544945     
   9.4800000000000009E-002    -1.1464249125322470     
   9.5100000000000004E-002    -1.1293467544564557     
   9.5399999999999999E-002    -1.0916397859401843     
   9.5699999999999993E-002    -1.0356542173592378     
   9.6000000000000002E-002   -0.96220961309721487     
   9.6300000000000011E-002   -0.87302693712518631     
   9.6600000000000005E-002   -0.76674642960590589     
   9.6900000000000000E-002   -0.64572128119204919     
   9.7200000000000009E-002   -0.50799920249831032     
   9.7499999999999989E-002   -0.35348086208638413     
   9.7799999999999998E-002   -0.18298700101030935     
   9.8100000000000007E-002     3.5709292038900811E-003
   9.8400000000000015E-002    0.20415061597727668     
   9.8699999999999996E-002    0.41677403789604051     
   9.9000000000000005E-002    0.63695866630115483     
   9.9300000000000013E-002    0.85857863370771614     
   9.9599999999999994E-002     1.0746368318264825     
   9.9900000000000003E-002     1.2778526722781871     
  0.10020000000000001          1.4582522121207653     
  0.10049999999999999          1.6094906551575949     
  0.10080000000000000          1.7222779035267048     
  0.10110000000000001          1.7896716840350062     
  0.10140000000000000          1.8062078012768163     
  0.10170000000000000          1.7700975190406441     
  0.10200000000000001          1.6789255377208154     
  0.10230000000000002          1.5339750265697587     
  0.10260000000000000          1.3398219527901516     
  0.10290000000000001          1.0999568845955712     
  0.10320000000000000         0.82449037806514480     
  0.10350000000000001         0.52118820395342680     
  0.10380000000000000         0.20289459634016005     
  0.10410000000000001        -0.12048062724607637     
  0.10440000000000001        -0.43529067888054290     
  0.10470000000000000        -0.73048301572991448     
  0.10500000000000000        -0.99324378009550141     
  0.10530000000000000         -1.2158145027514022     
  0.10560000000000000         -1.3890747192602528     
  0.10590000000000001         -1.5083492197478539     
  0.10620000000000000         -1.5729641138461314     
  0.10650000000000001         -1.5809133480538682     
  0.10679999999999999         -1.5378991784438252     
  0.10710000000000000         -1.4483716888749409     
  0.10740000000000001         -1.3211974265151607     
  0.10770000000000000         -1.1636969159590480     
  0.10800000000000000        -0.98723199426664843     
  0.10830000000000001        -0.79981835427770143     
  0.10859999999999999        -0.61236000990787309     
  0.10890000000000000        -0.43163061283879095     
  0.10920000000000001        -0.26630692982004700     
  0.10950000000000001        -0.11977145920331535     
  0.10979999999999999          2.7915618818691399E-003
  0.11009999999999999          9.9081549500489419E-002
  0.11040000000000001         0.16944450142520059     
  0.11070000000000001         0.21351424257196897     
  0.11100000000000000         0.23560378540321894     
  0.11130000000000000         0.23779100877757559     
  0.11160000000000002         0.22553219619497869     
  0.11190000000000001         0.20278374016977563     
  0.11220000000000001         0.17440218297592289     
  0.11250000000000000         0.14638039859086782     
  0.11280000000000000         0.12330481527291864     
  0.11309999999999999         0.10774051206752193     
  0.11340000000000001         0.10385105199090590     
  0.11369999999999998         0.11275555001770624     
  0.11400000000000000         0.13509676060317036     
  0.11430000000000000         0.17367298648709573     
  0.11460000000000002         0.22587262967907837     
  0.11489999999999999         0.29128471527830196     
  0.11520000000000001         0.36952334834909067     
  0.11550000000000001         0.45641934913607640     
  0.11580000000000000         0.55222534939591983     
  0.11609999999999999         0.65171158050827882     
  0.11640000000000002         0.75212979001093949     
  0.11670000000000001         0.84778475425681421     
  0.11700000000000001         0.93342250348852074     
  0.11730000000000000          1.0041129568596698     
  0.11760000000000000          1.0529701694042790     
  0.11789999999999999          1.0737098445789850     
  0.11820000000000001          1.0628457055953122     
  0.11850000000000001          1.0144468532404138     
  0.11880000000000000         0.92719512953666339     
  0.11910000000000000         0.80275886795297235     
  0.11940000000000002         0.63966249777873330     
  0.11970000000000001         0.44604336166032482     
  0.12000000000000001         0.22482833351615869     
  0.12030000000000000         -1.3799653954098427E-002
  0.12060000000000000        -0.26076414544447096     
  0.12089999999999999        -0.50771143812458586     
  0.12119999999999999        -0.74171844355895211     
  0.12150000000000001        -0.95551255939752222     
  0.12180000000000001         -1.1409436841016964     
  0.12210000000000000         -1.2881886160253861     
  0.12239999999999999         -1.3955607800024508     
  0.12270000000000002         -1.4586544403860373     
  0.12300000000000001         -1.4767448048760836     
  0.12330000000000001         -1.4535929252126303     
  0.12360000000000000         -1.3907610419170970     
  0.12390000000000000         -1.2975359145027812     
  0.12419999999999999         -1.1795851114593381     
  0.12450000000000001         -1.0446051432398944     
  0.12480000000000001        -0.90496939610758942     
  0.12509999999999999        -0.76439964623206591     
  0.12540000000000001        -0.63150828669025283     
  0.12570000000000003        -0.51384430521591318     
  0.12600000000000000        -0.40979021215706729     
  0.12630000000000002        -0.32372956892659510     
  0.12659999999999999        -0.25278976132651354     
  0.12690000000000001        -0.19222026872689052     
  0.12719999999999998        -0.13983161705946029     
  0.12750000000000000         -8.6530478864636468E-002
  0.12780000000000002         -2.9068128605646108E-002
  0.12809999999999999          3.9186109145678723E-002
  0.12840000000000001         0.12443577891796119     
  0.12869999999999998         0.22584712400599291     
  0.12900000000000000         0.34865895082201598     
  0.12930000000000003         0.49075940861754364     
  0.12959999999999999         0.64843077690693851     
  0.12990000000000002         0.82064165489327123     
  0.13019999999999998         0.99880256807363776     
  0.13050000000000000          1.1777465668379783     
  0.13080000000000003          1.3498742970239868     
  0.13109999999999999          1.5052797059215990     
  0.13140000000000002          1.6388148573473162     
  0.13169999999999998          1.7407646718477994     
  0.13200000000000001          1.8035683005240035     
  0.13229999999999997          1.8245392407710503     
  0.13260000000000000          1.7951269707162201     
  0.13290000000000002          1.7168236301488768     
  0.13319999999999999          1.5875955103035895     
  0.13350000000000001          1.4084239425566589     
  0.13380000000000003          1.1857481344234126     
  0.13410000000000000         0.92187884136087117     
  0.13440000000000002         0.62842686772744416     
  0.13469999999999999         0.31200579687178231     
  0.13500000000000001         -1.6718288840088854E-002
  0.13529999999999998        -0.34665984764510333     
  0.13560000000000000        -0.66732199656994440     
  0.13590000000000002        -0.96993967176809925     
  0.13619999999999999         -1.2413832242031257     
  0.13650000000000001         -1.4776201579688364     
  0.13680000000000003         -1.6682762273365668     
  0.13710000000000000         -1.8102820308304750     
  0.13740000000000002         -1.9002961310108271     
  0.13769999999999999         -1.9342596925837516     
  0.13800000000000001         -1.9155958081126621     
  0.13829999999999998         -1.8430271514487453     
  0.13860000000000000         -1.7207706322098892     
  0.13890000000000002         -1.5533991179744711     
  0.13919999999999999         -1.3447326714729351     
  0.13950000000000001         -1.1001326114000771     
  0.13979999999999998        -0.82875301761812503     
  0.14010000000000000        -0.53307785655339923     
  0.14040000000000002        -0.22477947313136754     
  0.14069999999999999          9.1534259367820794E-002
  0.14100000000000001         0.40683647146165169     
  0.14130000000000004         0.71229689976266308     
  0.14160000000000000          1.0008567582106540     
  0.14189999999999997          1.2628356282195781     
  0.14219999999999999          1.4901857496172319     
  0.14250000000000002          1.6772254873752419     
  0.14279999999999998          1.8156991229446469     
  0.14310000000000000          1.9029394657443326     
  0.14339999999999997          1.9360083648722732     
  0.14369999999999999          1.9127592194173149     
  0.14400000000000002          1.8381990557718484     
  0.14429999999999998          1.7137278697965639     
  0.14460000000000001          1.5475421330982915     
  0.14490000000000003          1.3480664853084172     
  0.14520000000000000          1.1229586940592700     
  0.14550000000000002         0.88373300442591352     
  0.14579999999999999         0.63947548987992942     
  0.14610000000000001         0.39865325916103372     
  0.14640000000000003         0.17152480636294717     
  0.14670000000000000         -3.9014387874029950E-002
  0.14699999999999996        -0.22573724303967310     
  0.14729999999999999        -0.38812959785634160     
  0.14760000000000001        -0.52815802041238002     
  0.14789999999999998        -0.64367528547792396     
  0.14820000000000000        -0.74290850062468594     