  -1.4999999999999999E-002     0.0000000000000000     
  -1.4700000000000000E-002     0.0000000000000000     
  -1.4400000000000000E-002     0.0000000000000000     
  -1.4100000000000000E-002     0.0000000000000000     
  -1.3800000000000000E-002     0.0000000000000000     
  -1.3500000000000000E-002     0.0000000000000000     
  -1.3200000000000000E-002     0.0000000000000000     
  -1.2899999999999998E-002     0.0000000000000000     
  -1.2600000000000000E-002     0.0000000000000000     
  -1.2299999999999998E-002     0.0000000000000000     
  -1.2000000000000000E-002     0.0000000000000000     
  -1.1699999999999999E-002     0.0000000000000000     
  -1.1399999999999999E-002     0.0000000000000000     
  -1.1099999999999999E-002     0.0000000000000000     
  -1.0799999999999999E-002     0.0000000000000000     
  -1.0499999999999999E-002     0.0000000000000000     
  -1.0199999999999999E-002     0.0000000000000000     
  -9.8999999999999991E-003     0.0000000000000000     
  -9.5999999999999992E-003     0.0000000000000000     
  -9.2999999999999992E-003     0.0000000000000000     
  -8.9999999999999993E-003     0.0000000000000000     
  -8.6999999999999994E-003     0.0000000000000000     
  -8.3999999999999995E-003     0.0000000000000000     
  -8.0999999999999996E-003     0.0000000000000000     
  -7.7999999999999988E-003     0.0000000000000000     
  -7.4999999999999997E-003     0.0000000000000000     
  -7.1999999999999998E-003     0.0000000000000000     
  -6.8999999999999981E-003     0.0000000000000000     
  -6.5999999999999982E-003     0.0000000000000000     
  -6.3000000000000000E-003     0.0000000000000000     
  -6.0000000000000001E-003     0.0000000000000000     
  -5.6999999999999985E-003     0.0000000000000000     
  -5.3999999999999986E-003     0.0000000000000000     
  -5.1000000000000004E-003     0.0000000000000000     
  -4.7999999999999987E-003     0.0000000000000000     
  -4.5000000000000005E-003     0.0000000000000000     
  -4.1999999999999989E-003     0.0000000000000000     
  -3.8999999999999990E-003     0.0000000000000000     
  -3.5999999999999990E-003     0.0000000000000000     
  -3.2999999999999991E-003     0.0000000000000000     
  -2.9999999999999992E-003     0.0000000000000000     
  -2.6999999999999993E-003    -1.0425474843421853E-044
  -2.3999999999999994E-003     2.2115167853178739E-043
  -2.0999999999999977E-003     1.2378181699409778E-036
  -1.7999999999999995E-003     7.7458616419843898E-035
  -1.4999999999999979E-003    -2.8095256933909765E-034
  -1.1999999999999997E-003     8.7158147726042088E-034
  -8.9999999999999976E-004    -2.8891316284315776E-033
  -5.9999999999999810E-004     8.6094135446802417E-033
  -2.9999999999999992E-004    -3.4181296547692943E-032
   0.0000000000000000          1.2296010703629137E-031
   3.0000000000000165E-004    -3.2708347657717074E-031
   5.9999999999999984E-004     5.2182151346578816E-031
   9.0000000000000149E-004     1.6985962115685643E-031
   1.2000000000000031E-003    -4.2142857389970846E-030
   1.5000000000000013E-003     1.4927213602734686E-029
   1.8000000000000030E-003    -2.8366978125889955E-029
   2.1000000000000012E-003     1.1132095842296961E-029
   2.3999999999999994E-003     1.2058823691009655E-028
   2.7000000000000010E-003    -4.4070485425129011E-028
   2.9999999999999992E-003     7.3342720497182744E-028
   3.3000000000000008E-003    -2.5882856983329997E-029
   3.6000000000000025E-003    -3.2992525539635598E-027
   3.9000000000000007E-003     9.0487950007324832E-027
   4.2000000000000023E-003    -9.7627603798360987E-027
   4.5000000000000005E-003    -1.1657196225229095E-026
   4.7999999999999987E-003     6.5531687957519416E-026
   5.1000000000000004E-003    -1.1129244261710534E-025
   5.4000000000000020E-003     2.6168733423311574E-026
   5.7000000000000037E-003     3.0482229138151670E-025
   5.9999999999999984E-003    -7.2066375550097965E-025
   6.3000000000000000E-003     5.9210160452975420E-025
   6.6000000000000017E-003     7.2453192639494695E-025
   6.9000000000000034E-003    -2.7035985571866295E-024
   7.2000000000000015E-003     3.2266824702417080E-024
   7.5000000000000032E-003    -9.7354493758127227E-025
   7.8000000000000014E-003    -1.2630773919657313E-024
   8.0999999999999996E-003     4.8152743129290150E-025
   8.4000000000000012E-003    -7.7377243263596726E-024
   8.7000000000000029E-003     5.0276451773197250E-023
   9.0000000000000011E-003    -1.2249833726559577E-022
   9.2999999999999992E-003     1.0202698362436145E-022
   9.6000000000000009E-003     2.3258068524337197E-022
   9.8999999999999991E-003    -9.3052665195467002E-022
   1.0200000000000001E-002     1.4597745673918525E-021
   1.0500000000000002E-002    -6.4250270838629074E-022
   1.0800000000000004E-002    -2.6507554413965051E-021
   1.1099999999999999E-002     8.1918809519967089E-021
   1.1400000000000000E-002    -1.2807102418294595E-020
   1.1700000000000002E-002     8.6600768361491109E-021
   1.2000000000000004E-002     1.6360399617999588E-020
   1.2300000000000002E-002    -6.8512947085798490E-020
   1.2600000000000000E-002     1.2161659324213322E-019
   1.2900000000000002E-002    -9.1028699779683097E-020
   1.3200000000000000E-002    -1.3576672435605623E-019
   1.3500000000000002E-002     5.6049295663797780E-019
   1.3800000000000003E-002    -8.8779879035431292E-019
   1.4100000000000001E-002     5.1792441913510932E-019
   1.4400000000000000E-002     1.0459438078360758E-018
   1.4700000000000001E-002    -3.4555554097063303E-018
   1.4999999999999999E-002     4.9868691256827366E-018
   1.5300000000000001E-002    -2.9077394277758551E-018
   1.5600000000000003E-002    -4.9737022831823046E-018
   1.5899999999999997E-002     1.7794594611121064E-017
   1.6199999999999999E-002    -2.8578481076686276E-017
   1.6500000000000001E-002     2.2129091694396054E-017
   1.6800000000000002E-002     2.0775333194404809E-017
   1.7100000000000004E-002    -1.0368494066215523E-016
   1.7400000000000006E-002     1.7864163748912642E-016
   1.7700000000000000E-002    -1.2660843999601885E-016
   1.8000000000000002E-002    -1.7625761147386782E-016
   1.8300000000000004E-002     6.6854710805476260E-016
   1.8600000000000005E-002    -9.1507668924013277E-016
   1.8900000000000000E-002     2.4133230713622128E-016
   1.9200000000000002E-002     1.5751529864492752E-015
   1.9500000000000003E-002    -3.4267650415393973E-015
   1.9799999999999998E-002     2.9120317199817787E-015
   2.0100000000000000E-002     1.7908522216452482E-015
   2.0400000000000001E-002    -8.9729948160305393E-015
   2.0700000000000003E-002     1.2238550182486281E-014
   2.0999999999999998E-002    -4.2052421655804203E-015
   2.1299999999999999E-002    -1.5514000096073067E-014
   2.1600000000000001E-002     3.5533246459246379E-014
   2.1900000000000003E-002    -4.0285362739472873E-014
   2.2200000000000004E-002     1.7933634435667306E-014
   2.2500000000000006E-002     6.8948127617505235E-014
   2.2800000000000001E-002    -2.9680334515680695E-013
   2.3100000000000002E-002     5.0989496181592567E-013
   2.3400000000000004E-002     1.7658991324398750E-013
   2.3699999999999999E-002    -2.5359632053082028E-012
   2.4000000000000000E-002     3.7027337011528753E-012
   2.4300000000000002E-002     3.1852384977293725E-012
   2.4599999999999997E-002    -1.5704921206835176E-011
   2.4900000000000005E-002     1.0357167543809006E-011
   2.5200000000000000E-002     2.4257247832974327E-011
   2.5499999999999995E-002    -4.5371794961797668E-011
   2.5800000000000003E-002     3.0035766349951197E-011
   2.6099999999999998E-002    -1.0224734467030278E-011
   2.6400000000000007E-002    -2.0909880674643543E-010
   2.6700000000000002E-002     7.0904253890840946E-010
   2.6999999999999996E-002     3.1123028824423543E-011
   2.7300000000000005E-002    -2.8944661836351484E-009
   2.7600000000000000E-002     1.6871418867727842E-009
   2.7900000000000008E-002     6.9956101040144300E-009
   2.8200000000000003E-002    -2.0812981190836441E-009
   2.8499999999999998E-002    -2.3774503462933367E-008
   2.8800000000000006E-002    -6.2449094513539432E-010
   2.9100000000000001E-002     1.0178319443584159E-007
   2.9400000000000003E-002    -6.7086775026783395E-008
   2.9700000000000004E-002    -3.2418958734991861E-007
   3.0000000000000006E-002     5.2255959089981055E-007
   3.0300000000000001E-002     1.6539429932748071E-006
   3.0600000000000002E-002     2.3145783156433919E-006
   3.0900000000000004E-002     6.4961171390447538E-006
   3.1199999999999999E-002     1.4178990185616274E-005
   3.1500000000000007E-002     1.9198337578046451E-005
   3.1800000000000002E-002     2.5420602164552620E-005
   3.2099999999999997E-002     4.0979598445016105E-005
   3.2400000000000005E-002     6.4367750440911332E-005
   3.2700000000000000E-002     9.7985889875581972E-005
   3.3000000000000002E-002     1.4555509955164014E-004
   3.3300000000000003E-002     2.1303421723804745E-004
   3.3599999999999998E-002     3.2285563605016760E-004
   3.3900000000000000E-002     4.7599264492998225E-004
   3.4200000000000001E-002     6.7097392725059082E-004
   3.4500000000000003E-002     9.5477023428595128E-004
   3.4799999999999998E-002     1.3519366178302709E-003
   3.5099999999999999E-002     1.8540656341851554E-003
   3.5400000000000001E-002     2.4964190105777749E-003
   3.5699999999999996E-002     3.3370561989091458E-003
   3.6000000000000004E-002     4.4012450471221124E-003
   3.6299999999999999E-002     5.6988675902501550E-003
   3.6600000000000008E-002     7.2820699494846415E-003
   3.6900000000000002E-002     9.1961237213218899E-003
   3.7199999999999997E-002     1.1414299494778990E-002
   3.7500000000000006E-002     1.3932247496194955E-002
   3.7800000000000000E-002     1.6775854764480423E-002
   3.8100000000000009E-002     1.9891996808172351E-002
   3.8400000000000004E-002     2.3218366252386859E-002
   3.8699999999999998E-002     2.6724719325585785E-002
   3.9000000000000007E-002     3.0299163225056810E-002
   3.9300000000000002E-002     3.3823703095450415E-002
   3.9600000000000003E-002     3.7246589073292626E-002
   3.9900000000000005E-002     4.0451217737485029E-002
   4.0200000000000000E-002     4.3301996007684015E-002
   4.0500000000000001E-002     4.5732375324417381E-002
   4.0800000000000003E-002     4.7633931160679426E-002
   4.1100000000000005E-002     4.8841864190937063E-002
   4.1399999999999999E-002     4.9196720846921886E-002
   4.1700000000000008E-002     4.8426003620354686E-002
   4.2000000000000003E-002     4.6091301752330734E-002
   4.2299999999999997E-002     4.1607450339383394E-002
   4.2600000000000006E-002     3.4191862692346073E-002
   4.2900000000000001E-002     2.2773027871724461E-002
   4.3200000000000002E-002     6.0336961014331777E-003
   4.3500000000000004E-002    -1.7521339543571844E-002
   4.3799999999999999E-002    -4.9526865215807667E-002
   4.4100000000000000E-002    -9.1564930003736347E-002
   4.4400000000000002E-002   -0.14502253425993933     
   4.4700000000000004E-002   -0.21083648068114566     
   4.4999999999999998E-002   -0.28920501447752128     
   4.5300000000000000E-002   -0.37936693970807545     
   4.5600000000000002E-002   -0.47935466227702922     
   4.5899999999999996E-002   -0.58584084208543807     
   4.6200000000000005E-002   -0.69407209777613310     
   4.6500000000000000E-002   -0.79793177039177288     
   4.6799999999999994E-002   -0.89027063980502485     
   4.7100000000000003E-002   -0.96329998758289415     
   4.7399999999999998E-002    -1.0089668678704913     
   4.7700000000000006E-002    -1.0198448392909496     
   4.8000000000000001E-002   -0.98978770871796140     
   4.8300000000000010E-002   -0.91453886966597875     
   4.8600000000000004E-002   -0.79243064363058668     
   4.8899999999999999E-002   -0.62485396465912202     
   4.9200000000000008E-002   -0.41647835036708158     
   4.9500000000000002E-002   -0.17499645129651331     
   4.9800000000000011E-002     8.9050054353911279E-002
   5.0100000000000006E-002    0.36288529739523157     
   5.0400000000000000E-002    0.63274826331209610     
   5.0700000000000009E-002    0.88455775604603759     
   5.1000000000000004E-002     1.1054032300638241     
   5.1299999999999998E-002     1.2844114862777525     
   5.1600000000000007E-002     1.4136967104633282     
   5.1900000000000002E-002     1.4892960283943817     
   5.2200000000000010E-002     1.5108881709313702     
   5.2500000000000005E-002     1.4824916838370339     
   5.2800000000000000E-002     1.4114175540584544     
   5.3099999999999994E-002     1.3078646138671020     
   5.3400000000000003E-002     1.1837744160578478     
   5.3699999999999998E-002     1.0518235579069111     
   5.4000000000000006E-002    0.92407488750324718     
   5.4300000000000001E-002    0.81111609741345103     
   5.4599999999999996E-002    0.72107988393184297     
   5.4900000000000004E-002    0.65919548165137709     
   5.5199999999999999E-002    0.62742406204229118     
   5.5499999999999994E-002    0.62428534334309471     
   5.5800000000000002E-002    0.64588833390966915     
   5.6099999999999997E-002    0.68560785790606460     
   5.6400000000000006E-002    0.73499602930552077     
   5.6700000000000000E-002    0.78505862598395015     
   5.6999999999999995E-002    0.82623142692416662     
   5.7300000000000004E-002    0.84927338718238610     
   5.7599999999999998E-002    0.84639119954072117     
   5.7900000000000007E-002    0.81064277043869526     
   5.8200000000000002E-002    0.73745761583866265     
   5.8499999999999996E-002    0.62408408730877285     
   5.8800000000000005E-002    0.47015397743087362     
   5.9100000000000000E-002    0.27766246233806130     
   5.9400000000000008E-002     5.1122437280257789E-002
   5.9700000000000003E-002   -0.20297850072131707     
   6.0000000000000012E-002   -0.47573638970579762     
   6.0300000000000006E-002   -0.75683432451053545     
   6.0600000000000001E-002    -1.0351191283772567     
   6.0900000000000010E-002    -1.2984146743812752     
   6.1200000000000004E-002    -1.5354476972782185     
   6.1500000000000013E-002    -1.7360590615357776     
   6.1800000000000008E-002    -1.8919188984390232     
   6.2100000000000002E-002    -1.9977474282153622     
   6.2399999999999997E-002    -2.0511871675543887     
   6.2700000000000006E-002    -2.0536910394332231     
   6.3000000000000000E-002    -2.0097009009028981     
   6.3300000000000009E-002    -1.9268503194391495     
   6.3600000000000004E-002    -1.8147268213688934     
   6.3899999999999998E-002    -1.6844930460353749     
   6.4199999999999993E-002    -1.5470270801851154     
   6.4500000000000002E-002    -1.4122762241185127     
   6.4800000000000010E-002    -1.2884328987959814     
   6.5100000000000005E-002    -1.1806084412395117     
   6.5400000000000000E-002    -1.0908991474270160     
   6.5700000000000008E-002    -1.0179940732767696     
   6.5999999999999989E-002   -0.95795347103285278     
   6.6299999999999998E-002   -0.90443272471731895     
   6.6600000000000006E-002   -0.84983391080156900     
   6.6900000000000001E-002   -0.78682965158004003     
   6.7199999999999996E-002   -0.70829981428044619     
   6.7500000000000004E-002   -0.60936456643185388     
   6.7800000000000013E-002   -0.48798051140666970     
   6.8099999999999994E-002   -0.34402238961806275     
   6.8400000000000002E-002   -0.18096831071733849     
   6.8700000000000011E-002    -3.8768885740054549E-003
   6.8999999999999992E-002    0.18021645172792303     
   6.9300000000000000E-002    0.36457050595848789     
   6.9600000000000009E-002    0.54207272380320304     
   6.9900000000000004E-002    0.70839603276524366     
   7.0199999999999999E-002    0.86024644105212156     
   7.0500000000000007E-002    0.99864706299813499     
   7.0800000000000016E-002     1.1261806869243682     
   7.1099999999999997E-002     1.2480557453435226     
   7.1400000000000005E-002     1.3714275973497572     
   7.1700000000000000E-002     1.5020725280732576     
   7.1999999999999995E-002     1.6461382802818230     
   7.2300000000000003E-002     1.8053260882315796     
   7.2600000000000012E-002     1.9787378293249827     
   7.2900000000000006E-002     2.1595839367756140     
   7.3200000000000001E-002     2.3371006458874417     
   7.3499999999999996E-002     2.4949454343662696     
   7.3800000000000004E-002     2.6147345602448038     
   7.4099999999999999E-002     2.6754147080958184     
   7.4400000000000008E-002     2.6572822508775147     
   7.4700000000000003E-002     2.5438116812877394     
   7.5000000000000011E-002     2.3235653448125655     
   7.5299999999999992E-002     1.9934361714365052     
   7.5600000000000001E-002     1.5585395516240879     
   7.5900000000000009E-002     1.0339727478380647     
   7.6200000000000004E-002    0.44318506298207022     
   7.6499999999999999E-002   -0.18202500333189303     
   7.6800000000000007E-002   -0.80605277933401154     
   7.7099999999999988E-002    -1.3903508208902113     
   7.7399999999999997E-002    -1.8988800281431111     
   7.7700000000000005E-002    -2.2999757897328230     
   7.8000000000000014E-002    -2.5707298943749399     
   7.8299999999999995E-002    -2.6989564113678544     
   7.8600000000000003E-002    -2.6835540853595861     
   7.8900000000000012E-002    -2.5369149622466631     
   7.9199999999999993E-002    -2.2809354053524569     
   7.9500000000000001E-002    -1.9477425588499477     
   7.9800000000000010E-002    -1.5735719948555773     
   8.0100000000000018E-002    -1.1976825534442377     
   8.0399999999999999E-002   -0.85548130106516396     
   8.0700000000000008E-002   -0.57779844441736306     
   8.1000000000000003E-002   -0.38425806662450157     
   8.1299999999999997E-002   -0.28477039458646541     
   8.1600000000000006E-002   -0.27458448973621669     
   8.1900000000000014E-002   -0.33748457958141653     
   8.2199999999999995E-002   -0.44717622349275410     
   8.2500000000000004E-002   -0.56751939476753177     
   8.2799999999999999E-002   -0.66010757201780290     
   8.3100000000000007E-002   -0.68570650302788694     
   8.3400000000000002E-002   -0.60995142812502101     
   8.3700000000000011E-002   -0.40689453740518206     
   8.4000000000000005E-002    -6.3774001547777751E-002
   8.4300000000000000E-002    0.41977239694890944     
   8.4599999999999995E-002     1.0263201312407031     
   8.4900000000000003E-002     1.7267566228658489     
   8.5199999999999998E-002     2.4765924852210968     
   8.5500000000000007E-002     3.2242187965436964     
   8.5800000000000001E-002     3.9124493092126449     
   8.6100000000000010E-002     4.4839312403353926     
   8.6399999999999991E-002     4.8878094305309538     
   8.6699999999999999E-002     5.0822249680283944     
   8.7000000000000008E-002     5.0397659171899685     
   8.7300000000000003E-002     4.7496014009476388     
   8.7599999999999997E-002     4.2182254676730313     
   8.7900000000000006E-002     3.4694361101748639     
   8.8200000000000014E-002     2.5418940968366934     
   8.8499999999999995E-002     1.4854442923859568     
   8.8800000000000004E-002    0.35720168868531371     
   8.9100000000000013E-002   -0.78402726304719983     
   8.9399999999999993E-002    -1.8827461378870745     
   8.9700000000000002E-002    -2.8896581094201461     
   9.0000000000000011E-002    -3.7671300003150816     
   9.0299999999999991E-002    -4.4891253121278583     
   9.0600000000000000E-002    -5.0430212168304829     
   9.0900000000000009E-002    -5.4281978316649333     
   9.1200000000000017E-002    -5.6524662307937277     
   9.1499999999999998E-002    -5.7327503251690670     
   9.1800000000000007E-002    -5.6863898236488737     
   9.2100000000000001E-002    -5.5330828736427886     
   9.2399999999999996E-002    -5.2886886015730985     
   9.2700000000000005E-002    -4.9649457840487576     
   9.3000000000000013E-002    -4.5682964874735443     
   9.3300000000000008E-002    -4.1013761854018211     
   9.3600000000000003E-002    -3.5620906025832690     
   9.3899999999999997E-002    -2.9486949845260133     
   9.4200000000000006E-002    -2.2596834714523473     
   9.4500000000000001E-002    -1.4975130794743889     
   9.4800000000000009E-002   -0.67081819116363894     
   9.5100000000000004E-002    0.20648576318342027     
   9.5399999999999999E-002     1.1115704885806847     
   9.5699999999999993E-002     2.0169729810239261     
   9.6000000000000002E-002     2.8893726452490567     
   9.6300000000000011E-002     3.6929561448423880     
   9.6600000000000005E-002     4.3918047596233887     
   9.6900000000000000E-002     4.9529125276929786     
   9.7200000000000009E-002     5.3471401600772888     
   9.7499999999999989E-002     5.5534414857170606     
   9.7799999999999998E-002     5.5583138982906455     
   9.8100000000000007E-002     5.3581467806225103     
   9.8400000000000015E-002     4.9581524338748606     
   9.8699999999999996E-002     4.3728920321476084     
   9.9000000000000005E-002     3.6243191572623279     
   9.9300000000000013E-002     2.7424859964529809     
   9.9599999999999994E-002     1.7617648833644541     
   9.9900000000000003E-002    0.72153828211934101     
  0.10020000000000001        -0.33699343040326063     
  0.10049999999999999         -1.3701764290049954     
  0.10080000000000000         -2.3361549824400507     
  0.10110000000000001         -3.1924914971806189     
  0.10140000000000000         -3.9024253967134630     
  0.10170000000000000         -4.4315273606431465     
  0.10200000000000001         -4.7542117314297752     
  0.10230000000000002         -4.8520210918731861     
  0.10260000000000000         -4.7172244781488049     
  0.10290000000000001         -4.3543818834547254     
  0.10320000000000000         -3.7810952765690273     
  0.10350000000000001         -3.0280908548475169     
  0.10380000000000000         -2.1400980957247300     
  0.10410000000000001         -1.1737193650072166     
  0.10440000000000001        -0.19270830552208798     
  0.10470000000000000         0.73223058322489343     
  0.10500000000000000          1.5323720936103609     
  0.10530000000000000          2.1435595940253518     
  0.10560000000000000          2.5140188128013112     
  0.10590000000000001          2.6082836667449314     
  0.10620000000000000          2.4137065222739293     
  0.10650000000000001          1.9393680223524163     
  0.10679999999999999          1.2232604065843142     
  0.10710000000000000         0.32189656551506890     
  0.10740000000000001        -0.68290014539621358     
  0.10770000000000000         -1.7008247517150699     
  0.10800000000000000         -2.6318587427236415     
  0.10830000000000001         -3.3798695317364560     
  0.10859999999999999         -3.8612742310494448     
  0.10890000000000000         -4.0094744119764805     
  0.10920000000000001         -3.7865629413596436     
  0.10950000000000001         -3.1843353487713526     
  0.10979999999999999         -2.2265281034501618     
  0.11009999999999999        -0.96775955847473627     
  0.11040000000000001         0.50817485823642439     
  0.11070000000000001          2.1012698786295965     
  0.11100000000000000          3.6946296990227863     
  0.11130000000000000          5.1729530624480455     
  0.11160000000000002          6.4255939464896317     
  0.11190000000000001          7.3588345233295493     
  0.11220000000000001          7.9054731670474627     
  0.11250000000000000          8.0239959397633314     
  0.11280000000000000          7.7107168806970163     
  0.11309999999999999          6.9942037696578012     
  0.11340000000000001          5.9332868615656977     
  0.11369999999999998          4.6180135165653109     
  0.11400000000000000          3.1563265576458166     
  0.11430000000000000          1.6681545923152081     
  0.11460000000000002         0.27851349203000275     
  0.11489999999999999        -0.89897513532565221     
  0.11520000000000001         -1.7657766846290468     
  0.11550000000000001         -2.2502892675903148     
  0.11580000000000000         -2.3173803430813522     
  0.11609999999999999         -1.9648991198555754     
  0.11640000000000002         -1.2372579700697830     
  0.11670000000000001        -0.21241756345871779     
  0.11700000000000001         0.99666056086186805     
  0.11730000000000000          2.2502056361902154     
  0.11760000000000000          3.3987766387077571     
  0.11789999999999999          4.2888618349261352     
  0.11820000000000001          4.7813356097807578     
  0.11850000000000001          4.7663167742695256     
  0.11880000000000000          4.1701558957617673     
  0.11910000000000000          2.9715547897346468     
  0.11940000000000002          1.2027336954824233     
  0.11970000000000001         -1.0506195089486425     
  0.12000000000000001         -3.6468290918685127     
  0.12030000000000000         -6.4056207798091496     
  0.12060000000000000         -9.1162903277554186     
  0.12089999999999999         -11.552753219726823     
  0.12119999999999999         -13.500946245993395     
  0.12150000000000001         -14.765043782034242     
  0.12180000000000001         -15.198106514243518     
  0.12210000000000000         -14.707560294301047     
  0.12239999999999999         -13.270682861970442     
  0.12270000000000002         -10.938516773887985     
  0.12300000000000001         -7.8339282004670574     
  0.12330000000000001         -4.1421784184552823     
  0.12360000000000000        -0.10581746107956427     
  0.12390000000000000          4.0058706419226811     
  0.12419999999999999          7.9050242147425660     
  0.12450000000000001          11.314070177457152     
  0.12480000000000001          13.989539239999928     
  0.12509999999999999          15.730947075710860     
  0.12540000000000001          16.409427457970647     
  0.12570000000000003          15.965778172138609     
  0.12600000000000000          14.420569970229435     
  0.12630000000000002          11.871647945524291     
  0.12659999999999999          8.4827694505030600     
  0.12690000000000001          4.4729348658603083     
  0.12719999999999998         0.10162384262521849     
  0.12750000000000000         -4.3580677059935526     
  0.12780000000000002         -8.6276456154313497     
  0.12809999999999999         -12.451592424996143     
  0.12840000000000001         -15.610420900235868     
  0.12869999999999998         -17.930197972578807     
  0.12900000000000000         -19.300038955504988     
  0.12930000000000003         -19.664253069950231     
  0.12959999999999999         -19.032655534516543     
  0.12990000000000002         -17.470170603654058     
  0.13019999999999998         -15.086108447952737     
  0.13050000000000000         -12.029289975274802     
  0.13080000000000003         -8.4719097000255399     
  0.13109999999999999         -4.5915546850155851     
  0.13140000000000002        -0.57283551303592306     
  0.13169999999999998          3.4184251069489120     
  0.13200000000000001          7.2325748469033906     
  0.13229999999999997          10.744041423874791     
  0.13260000000000000          13.856976984180054     
  0.13290000000000002          16.498487420284160     
  0.13319999999999999          18.623165435152302     
  0.13350000000000001          20.205013865698863     
  0.13380000000000003          21.235514492214971     
  0.13410000000000000          21.719536776818821     
  0.13440000000000002          21.674103808684706     
  0.13469999999999999          21.116892890819980     
  0.13500000000000001          20.081528677499943     
  0.13529999999999998          18.597170709974680     
  0.13560000000000000          16.704147972463709     
  0.13590000000000002          14.446744334252092     
  0.13619999999999999          11.874777837727468     
  0.13650000000000001          9.0452696347348116     
  0.13680000000000003          6.0214864880390877     
  0.13710000000000000          2.8702425924214752     
  0.13740000000000002        -0.33296780264529491     
  0.13769999999999999         -3.5163216272992055     
  0.13800000000000001         -6.6009465989929925     
  0.13829999999999998         -9.5134240256816085     
  0.13860000000000000         -12.187417507725652     
  0.13890000000000002         -14.554482296661730     
  0.13919999999999999         -16.566337677902077     
  0.13950000000000001         -18.175360006972788     
  0.13979999999999998         -19.353920386847808     
  0.14010000000000000         -20.084122167930712     
  0.14040000000000002         -20.362497793346360     
  0.14069999999999999         -20.199795179640770     
  0.14100000000000001         -19.619850470717562     
  0.14130000000000004         -18.656936821794755     
  0.14160000000000000         -17.354722988112236     
  0.14189999999999997         -15.767065829689038     
  0.14219999999999999         -13.944728477583707     
  0.14250000000000002         -11.949133292192640     
  0.14279999999999998         -9.8326274543204359     
  0.14310000000000000         -7.6491608035209246     
  0.14339999999999997         -5.4461562265849235     
  0.14369999999999999         -3.2628128367441573     
  0.14400000000000002         -1.1354816017359570     
  0.14429999999999998         0.90965965605204369     
  0.14460000000000001          2.8512286625934564     
  0.14490000000000003          4.6720494450155403     
  0.14520000000000000          6.3591963144549393     
  0.14550000000000002          7.9054740378588129     
  0.14579999999999999          9.2980614094641894     
  0.14610000000000001          10.530697079821472     
  0.14640000000000003          11.593981152187554     
  0.14670000000000000          12.477032197388615     
  0.14699999999999996          13.169412248256313     
  0.14729999999999999          13.659923255419654     
  0.14760000000000001          13.936572761986893     
  0.14789999999999998          13.992253033707563     
  0.14820000000000000          13.816612886234619     