  -1.4999999999999999E-002     0.0000000000000000     
  -1.4700000000000000E-002     0.0000000000000000     
  -1.4400000000000000E-002     0.0000000000000000     
  -1.4100000000000000E-002     0.0000000000000000     
  -1.3800000000000000E-002     0.0000000000000000     
  -1.3500000000000000E-002     0.0000000000000000     
  -1.3200000000000000E-002     0.0000000000000000     
  -1.2899999999999998E-002     0.0000000000000000     
  -1.2600000000000000E-002     0.0000000000000000     
  -1.2299999999999998E-002     0.0000000000000000     
  -1.2000000000000000E-002     0.0000000000000000     
  -1.1699999999999999E-002     0.0000000000000000     
  -1.1399999999999999E-002     0.0000000000000000     
  -1.1099999999999999E-002     0.0000000000000000     
  -1.0799999999999999E-002     0.0000000000000000     
  -1.0499999999999999E-002     0.0000000000000000     
  -1.0199999999999999E-002     0.0000000000000000     
  -9.8999999999999991E-003     0.0000000000000000     
  -9.5999999999999992E-003     0.0000000000000000     
  -9.2999999999999992E-003     0.0000000000000000     
  -8.9999999999999993E-003     0.0000000000000000     
  -8.6999999999999994E-003     0.0000000000000000     
  -8.3999999999999995E-003     0.0000000000000000     
  -8.0999999999999996E-003     0.0000000000000000     
  -7.7999999999999988E-003     0.0000000000000000     
  -7.4999999999999997E-003     0.0000000000000000     
  -7.1999999999999998E-003     0.0000000000000000     
  -6.8999999999999981E-003     0.0000000000000000     
  -6.5999999999999982E-003     0.0000000000000000     
  -6.3000000000000000E-003     0.0000000000000000     
  -6.0000000000000001E-003     0.0000000000000000     
  -5.6999999999999985E-003     0.0000000000000000     
  -5.3999999999999986E-003     0.0000000000000000     
  -5.1000000000000004E-003     0.0000000000000000     
  -4.7999999999999987E-003     0.0000000000000000     
  -4.5000000000000005E-003     0.0000000000000000     
  -4.1999999999999989E-003     0.0000000000000000     
  -3.8999999999999990E-003     0.0000000000000000     
  -3.5999999999999990E-003     0.0000000000000000     
  -3.2999999999999991E-003     0.0000000000000000     
  -2.9999999999999992E-003     0.0000000000000000     
  -2.6999999999999993E-003     0.0000000000000000     
  -2.3999999999999994E-003     0.0000000000000000     
  -2.0999999999999977E-003     0.0000000000000000     
  -1.7999999999999995E-003     0.0000000000000000     
  -1.4999999999999979E-003     0.0000000000000000     
  -1.1999999999999997E-003     0.0000000000000000     
  -8.9999999999999976E-004     0.0000000000000000     
  -5.9999999999999810E-004     0.0000000000000000     
  -2.9999999999999992E-004     0.0000000000000000     
   0.0000000000000000          0.0000000000000000     
   3.0000000000000165E-004     0.0000000000000000     
   5.9999999999999984E-004     0.0000000000000000     
   9.0000000000000149E-004     0.0000000000000000     
   1.2000000000000031E-003     0.0000000000000000     
   1.5000000000000013E-003     0.0000000000000000     
   1.8000000000000030E-003     0.0000000000000000     
   2.1000000000000012E-003     0.0000000000000000     
   2.3999999999999994E-003     0.0000000000000000     
   2.7000000000000010E-003     0.0000000000000000     
   2.9999999999999992E-003     0.0000000000000000     
   3.3000000000000008E-003     0.0000000000000000     
   3.6000000000000025E-003     0.0000000000000000     
   3.9000000000000007E-003     0.0000000000000000     
   4.2000000000000023E-003     0.0000000000000000     
   4.5000000000000005E-003     0.0000000000000000     
   4.7999999999999987E-003     0.0000000000000000     
   5.1000000000000004E-003     0.0000000000000000     
   5.4000000000000020E-003     0.0000000000000000     
   5.7000000000000037E-003     0.0000000000000000     
   5.9999999999999984E-003     0.0000000000000000     
   6.3000000000000000E-003     0.0000000000000000     
   6.6000000000000017E-003     0.0000000000000000     
   6.9000000000000034E-003     0.0000000000000000     
   7.2000000000000015E-003     0.0000000000000000     
   7.5000000000000032E-003     0.0000000000000000     
   7.8000000000000014E-003     0.0000000000000000     
   8.0999999999999996E-003     0.0000000000000000     
   8.4000000000000012E-003     0.0000000000000000     
   8.7000000000000029E-003     0.0000000000000000     
   9.0000000000000011E-003     0.0000000000000000     
   9.2999999999999992E-003     0.0000000000000000     
   9.6000000000000009E-003     0.0000000000000000     
   9.8999999999999991E-003     0.0000000000000000     
   1.0200000000000001E-002     0.0000000000000000     
   1.0500000000000002E-002     0.0000000000000000     
   1.0800000000000004E-002     0.0000000000000000     
   1.1099999999999999E-002     0.0000000000000000     
   1.1400000000000000E-002     0.0000000000000000     
   1.1700000000000002E-002     0.0000000000000000     
   1.2000000000000004E-002     0.0000000000000000     
   1.2300000000000002E-002     0.0000000000000000     
   1.2600000000000000E-002     0.0000000000000000     
   1.2900000000000002E-002     0.0000000000000000     
   1.3200000000000000E-002     0.0000000000000000     
   1.3500000000000002E-002     0.0000000000000000     
   1.3800000000000003E-002     0.0000000000000000     
   1.4100000000000001E-002     0.0000000000000000     
   1.4400000000000000E-002     0.0000000000000000     
   1.4700000000000001E-002     0.0000000000000000     
   1.4999999999999999E-002     0.0000000000000000     
   1.5300000000000001E-002     0.0000000000000000     
   1.5600000000000003E-002     0.0000000000000000     
   1.5899999999999997E-002     0.0000000000000000     
   1.6199999999999999E-002     0.0000000000000000     
   1.6500000000000001E-002     0.0000000000000000     
   1.6800000000000002E-002     0.0000000000000000     
   1.7100000000000004E-002     0.0000000000000000     
   1.7400000000000006E-002     0.0000000000000000     
   1.7700000000000000E-002     0.0000000000000000     
   1.8000000000000002E-002     0.0000000000000000     
   1.8300000000000004E-002     0.0000000000000000     
   1.8600000000000005E-002     0.0000000000000000     
   1.8900000000000000E-002     0.0000000000000000     
   1.9200000000000002E-002     0.0000000000000000     
   1.9500000000000003E-002     0.0000000000000000     
   1.9799999999999998E-002     0.0000000000000000     
   2.0100000000000000E-002     0.0000000000000000     
   2.0400000000000001E-002     0.0000000000000000     
   2.0700000000000003E-002     0.0000000000000000     
   2.0999999999999998E-002     0.0000000000000000     
   2.1299999999999999E-002     0.0000000000000000     
   2.1600000000000001E-002     0.0000000000000000     
   2.1900000000000003E-002     0.0000000000000000     
   2.2200000000000004E-002     0.0000000000000000     
   2.2500000000000006E-002     0.0000000000000000     
   2.2800000000000001E-002     0.0000000000000000     
   2.3100000000000002E-002     0.0000000000000000     
   2.3400000000000004E-002     0.0000000000000000     
   2.3699999999999999E-002     0.0000000000000000     
   2.4000000000000000E-002     0.0000000000000000     
   2.4300000000000002E-002     0.0000000000000000     
   2.4599999999999997E-002     0.0000000000000000     
   2.4900000000000005E-002     0.0000000000000000     
   2.5200000000000000E-002     0.0000000000000000     
   2.5499999999999995E-002     0.0000000000000000     
   2.5800000000000003E-002     4.7351942579397967E-041
   2.6099999999999998E-002    -3.1774751408349937E-040
   2.6400000000000007E-002     3.7502090618268578E-038
   2.6700000000000002E-002     1.3502403490827109E-037
   2.6999999999999996E-002    -8.2887254113886952E-037
   2.7300000000000005E-002     9.4940835236555627E-035
   2.7600000000000000E-002     2.5558463490041214E-034
   2.7900000000000008E-002    -4.2640384483485168E-033
   2.8200000000000003E-002     1.4758076992057607E-032
   2.8499999999999998E-002    -3.6985149484576706E-032
   2.8800000000000006E-002     1.0058811694611047E-031
   2.9100000000000001E-002    -2.6519062286944203E-031
   2.9400000000000003E-002     6.2556074932460187E-031
   2.9700000000000004E-002    -1.2731432632946338E-030
   3.0000000000000006E-002     1.9306015695571223E-030
   3.0300000000000001E-002    -3.2125521184422081E-031
   3.0600000000000002E-002    -1.3534415771698717E-029
   3.0900000000000004E-002     7.4711326877301441E-029
   3.1199999999999999E-002    -2.9022813310130060E-028
   3.1500000000000007E-002     9.4933167384855668E-028
   3.1800000000000002E-002    -2.7410762188033405E-027
   3.2099999999999997E-002     7.0660742564072095E-027
   3.2400000000000005E-002    -1.6114162023920368E-026
   3.2700000000000000E-002     3.1334994727881660E-026
   3.3000000000000002E-002    -4.6263534107012875E-026
   3.3300000000000003E-002     2.4374184151241753E-026
   3.3599999999999998E-002     1.5433002852300406E-025
   3.3900000000000000E-002    -7.9386139005773612E-025
   3.4200000000000001E-002     2.5093880446979569E-024
   3.4500000000000003E-002    -6.2322914328299813E-024
   3.4799999999999998E-002     1.2667023004221977E-023
   3.5099999999999999E-002    -2.0371797073685680E-023
   3.5400000000000001E-002     2.1274782567828147E-023
   3.5699999999999996E-002     7.7586905987146375E-024
   3.6000000000000004E-002    -1.1865282978593649E-022
   3.6299999999999999E-002     4.0931989606042872E-022
   3.6600000000000008E-002    -1.0221234778451971E-021
   3.6900000000000002E-002     2.0378745436389428E-021
   3.7199999999999997E-002    -3.0818670970266148E-021
   3.7500000000000006E-002     2.4424829869559220E-021
   3.7800000000000000E-002     4.3791199538170495E-021
   3.8100000000000009E-002    -2.7042415739011138E-020
   3.8400000000000004E-002     8.4333223041669936E-020
   3.8699999999999998E-002    -2.0038356382258293E-019
   3.9000000000000007E-002     3.3230194754783765E-019
   3.9300000000000002E-002    -7.1105697393911233E-020
   3.9600000000000003E-002    -1.9456747901048387E-018
   3.9900000000000005E-002     7.9275398799312527E-018
   4.0200000000000000E-002    -1.6538828675128217E-017
   4.0500000000000001E-002     9.3129339929425294E-018
   4.0800000000000003E-002     6.5608287446111748E-017
   4.1100000000000005E-002    -2.6639764304698642E-016
   4.1399999999999999E-002     4.9224377038772237E-016
   4.1700000000000008E-002    -1.4899137747587883E-016
   4.2000000000000003E-002    -1.9924560862714000E-015
   4.2299999999999997E-002     6.6699181705213223E-015
   4.2600000000000006E-002    -1.0472834612941824E-014
   4.2900000000000001E-002     5.4077957846912249E-016
   4.3200000000000002E-002     4.5437902942169161E-014
   4.3500000000000004E-002    -1.3716079634780532E-013
   4.3799999999999999E-002     2.0219198256429659E-013
   4.4100000000000000E-002     3.1708850343945112E-014
   4.4400000000000002E-002    -1.0405048657835308E-012
   4.4700000000000004E-002     2.8479439504975051E-012
   4.4999999999999998E-002    -3.0816536927629512E-012
   4.5300000000000000E-002    -4.8014762434475184E-012
   4.5600000000000002E-002     2.6025308081015819E-011
   4.5899999999999996E-002    -4.2438583363503254E-011
   4.6200000000000005E-002    -1.1376984275526021E-011
   4.6500000000000000E-002     1.9576238279407033E-010
   4.6799999999999994E-002    -3.5035384595588630E-010
   4.7100000000000003E-002    -6.9351696466856028E-011
   4.7399999999999998E-002     1.3196564253603812E-009
   4.7700000000000006E-002    -1.7074638641291045E-009
   4.8000000000000001E-002    -1.6769421831122910E-009
   4.8300000000000010E-002     5.7824510075218709E-009
   4.8600000000000004E-002     3.5668924918441781E-010
   4.8899999999999999E-002    -8.9981284997495547E-009
   4.9200000000000008E-002    -1.6454355894511050E-008
   4.9500000000000002E-002     2.2626028228746140E-008
   4.9800000000000011E-002     1.4993155503323442E-007
   5.0100000000000006E-002    -2.0623630418165118E-007
   5.0400000000000000E-002    -8.1319096585528035E-007
   5.0700000000000009E-002     1.9813904084130215E-006
   5.1000000000000004E-002     1.0558372291275109E-005
   5.1299999999999998E-002     2.0307996014509795E-005
   5.1600000000000007E-002     2.7388311978723857E-005
   5.1900000000000002E-002     3.5962377237348942E-005
   5.2200000000000010E-002     5.1683386458338678E-005
   5.2500000000000005E-002     7.7436539446312742E-005
   5.2800000000000000E-002     1.1613011608599001E-004
   5.3099999999999994E-002     1.7105113420713144E-004
   5.3400000000000003E-002     2.4794278760288744E-004
   5.3699999999999998E-002     3.6094437507311014E-004
   5.4000000000000006E-002     5.2631149158495168E-004
   5.4300000000000001E-002     7.4978950919781136E-004
   5.4599999999999996E-002     1.0361931178735602E-003
   5.4900000000000004E-002     1.4022758429372596E-003
   5.5199999999999999E-002     1.8671485479888751E-003
   5.5499999999999994E-002     2.4398881562497170E-003
   5.5800000000000002E-002     3.1155972623139183E-003
   5.6099999999999997E-002     3.8744483355397886E-003
   5.6400000000000006E-002     4.6803822519755735E-003
   5.6700000000000000E-002     5.4741683749372407E-003
   5.6999999999999995E-002     6.1559798024061040E-003
   5.7300000000000004E-002     6.5750994613642307E-003
   5.7599999999999998E-002     6.5367335971355748E-003
   5.7900000000000007E-002     5.8018780403091266E-003
   5.8200000000000002E-002     4.0847183569008233E-003
   5.8499999999999996E-002     1.0604630784244707E-003
   5.8800000000000005E-002    -3.6152861269654873E-003
   5.9100000000000000E-002    -1.0260673908510067E-002
   5.9400000000000008E-002    -1.9107108730455694E-002
   5.9700000000000003E-002    -3.0251267168791139E-002
   6.0000000000000012E-002    -4.3612269611816412E-002
   6.0300000000000006E-002    -5.8848392012914169E-002
   6.0600000000000001E-002    -7.5261638812680526E-002
   6.0900000000000010E-002    -9.1772806228945111E-002
   6.1200000000000004E-002   -0.10692741218974272     
   6.1500000000000013E-002   -0.11889026218248319     
   6.1800000000000008E-002   -0.12549600256106164     
   6.2100000000000002E-002   -0.12439880566847936     
   6.2399999999999997E-002   -0.11326289849002490     
   6.2700000000000006E-002    -9.0000756616053529E-002
   6.3000000000000000E-002    -5.3060360279723141E-002
   6.3300000000000009E-002    -1.6781357029973997E-003
   6.3600000000000004E-002     6.3841146445688904E-002
   6.3899999999999998E-002    0.14187166659479683     
   6.4199999999999993E-002    0.22935956786182915     
   6.4500000000000002E-002    0.32182112196060347     
   6.4800000000000010E-002    0.41346876302705288     
   6.5100000000000005E-002    0.49751500914839863     
   6.5400000000000000E-002    0.56665082276821754     
   6.5700000000000008E-002    0.61361168797752397     
   6.5999999999999989E-002    0.63183716229315412     
   6.6299999999999998E-002    0.61618853073152058     
   6.6600000000000006E-002    0.56357262425358812     
   6.6900000000000001E-002    0.47344983105960936     
   6.7199999999999996E-002    0.34817743570764809     
   6.7500000000000004E-002    0.19308464418211108     
   6.7800000000000013E-002     1.6313830541681361E-002
   6.8099999999999994E-002   -0.17170883350496341     
   6.8400000000000002E-002   -0.35896716751592256     
   6.8700000000000011E-002   -0.53278638749678564     
   6.8999999999999992E-002   -0.68085810912800648     
   6.9300000000000000E-002   -0.79225436593804077     
   6.9600000000000009E-002   -0.85844234735608826     
   6.9900000000000004E-002   -0.87412971831784059     
   7.0199999999999999E-002   -0.83768537013823630     
   7.0500000000000007E-002   -0.75138844995914356     
   7.0800000000000016E-002   -0.62133528234203828     
   7.1099999999999997E-002   -0.45695510422103269     
   7.1400000000000005E-002   -0.27029198391023712     
   7.1700000000000000E-002    -7.5051117650876770E-002
   7.1999999999999995E-002    0.11458136890757187     
   7.2300000000000003E-002    0.28499335025419681     
   7.2600000000000012E-002    0.42415297464680107     
   7.2900000000000006E-002    0.52257213839543337     
   7.3200000000000001E-002    0.57398500465810798     
   7.3499999999999996E-002    0.57567849770654078     
   7.3800000000000004E-002    0.52855375534639082     
   7.4099999999999999E-002    0.43696106956726977     
   7.4400000000000008E-002    0.30823631643863719     
   7.4700000000000003E-002    0.15206079190852989     
   7.5000000000000011E-002    -2.0482794867035276E-002
   7.5299999999999992E-002   -0.19776349441055882     
   7.5600000000000001E-002   -0.36826965986991689     
   7.5900000000000009E-002   -0.52156456783988947     
   7.6200000000000004E-002   -0.64899721887015138     
   7.6499999999999999E-002   -0.74401621676688667     
   7.6800000000000007E-002   -0.80256222725936344     
   7.7099999999999988E-002   -0.82305678173905239     
   7.7399999999999997E-002   -0.80635098121639337     
   7.7700000000000005E-002   -0.75544680481594129     
   7.8000000000000014E-002   -0.67505088169682226     
   7.8299999999999995E-002   -0.57109374777649724     
   7.8600000000000003E-002   -0.45019437566849452     
   7.8900000000000012E-002   -0.31914071776348019     
   7.9199999999999993E-002   -0.18433050068825191     
   7.9500000000000001E-002    -5.1383307807446987E-002
   7.9800000000000010E-002     7.5175582969507881E-002
   8.0100000000000018E-002    0.19209319898869873     
   8.0399999999999999E-002    0.29742105093330107     
   8.0700000000000008E-002    0.39062665050003759     
   8.1000000000000003E-002    0.47213202576608315     
   8.1299999999999997E-002    0.54310915801722159     
   8.1600000000000006E-002    0.60528333430188608     
   8.1900000000000014E-002    0.66035316099459695     
   8.2199999999999995E-002    0.70982668655469483     
   8.2500000000000004E-002    0.75440407679727728     
   8.2799999999999999E-002    0.79394647727358114     
   8.3100000000000007E-002    0.82755465107482040     
   8.3400000000000002E-002    0.85325850900062794     
   8.3700000000000011E-002    0.86821243816482219     
   8.4000000000000005E-002    0.86906937890111546     
   8.4300000000000000E-002    0.85253045711751163     
   8.4599999999999995E-002    0.81540423608762569     
   8.4900000000000003E-002    0.75524470275144484     
   8.5199999999999998E-002    0.67065995396881262     
   8.5500000000000007E-002    0.56167951101085833     
   8.5800000000000001E-002    0.43014174015803486     
   8.6100000000000010E-002    0.27925480345509995     
   8.6399999999999991E-002    0.11381014572704284     
   8.6699999999999999E-002    -5.9852103936412701E-002
   8.7000000000000008E-002   -0.23462979407528745     
   8.7300000000000003E-002   -0.40307586839795662     
   8.7599999999999997E-002   -0.55766721903295835     
   8.7900000000000006E-002   -0.69145240503040339     
   8.8200000000000014E-002   -0.79874741558222961     
   8.8499999999999995E-002   -0.87516937539326034     
   8.8800000000000004E-002   -0.91825167711325117     
   8.9100000000000013E-002   -0.92753844483280978     
   8.9399999999999993E-002   -0.90414882808995678     
   8.9700000000000002E-002   -0.85127827915311605     
   9.0000000000000011E-002   -0.77344046010155421     
   9.0299999999999991E-002   -0.67611158415121775     
   9.0600000000000000E-002   -0.56536742556064090     
   9.0900000000000009E-002   -0.44727068573935092     
   9.1200000000000017E-002   -0.32736471073858675     
   9.1499999999999998E-002   -0.21029940412498296     
   9.1800000000000007E-002    -9.9679760731804776E-002
   9.2100000000000001E-002     2.6070257761396046E-003
   9.2399999999999996E-002     9.5803244145690858E-002
   9.2700000000000005E-002    0.18034496287666546     
   9.3000000000000013E-002    0.25780974871571316     
   9.3300000000000008E-002    0.33025965630315701     
   9.3600000000000003E-002    0.39973148581842899     
   9.3899999999999997E-002    0.46760117525615696     
   9.4200000000000006E-002    0.53457745793799338     
   9.4500000000000001E-002    0.59994555419621043     
   9.4800000000000009E-002    0.66127120989880583     
   9.5100000000000004E-002    0.71461060252671393     
   9.5399999999999999E-002    0.75477683315028532     
   9.5699999999999993E-002    0.77529730155808618     
   9.6000000000000002E-002    0.76910452158813336     
   9.6300000000000011E-002    0.72964961836116049     
   9.6600000000000005E-002    0.65111960678388903     
   9.6900000000000000E-002    0.52944681541960548     
   9.7200000000000009E-002    0.36311930634349182     
   9.7499999999999989E-002    0.15340226754128769     
   9.7799999999999998E-002    -9.5089834012751173E-002
   9.8100000000000007E-002   -0.37423983542853895     
   9.8400000000000015E-002   -0.67317246862176672     
   9.8699999999999996E-002   -0.97833005488451730     
   9.9000000000000005E-002    -1.2740951813504948     
   9.9300000000000013E-002    -1.5442308003936087     
   9.9599999999999994E-002    -1.7727152197802045     
   9.9900000000000003E-002    -1.9445745408986523     
  0.10020000000000001         -2.0471232500926138     
  0.10049999999999999         -2.0708396213281830     
  0.10080000000000000         -2.0097732251342615     
  0.10110000000000001         -1.8621637284291124     
  0.10140000000000000         -1.6305791293004137     
  0.10170000000000000         -1.3214102609151335     
  0.10200000000000001        -0.94498424820993598     
  0.10230000000000002        -0.51518511211937401     
  0.10260000000000000         -4.8162575461587087E-002
  0.10290000000000001         0.43792711761794412     
  0.10320000000000000         0.92367751380216279     
  0.10350000000000001          1.3893198178126966     
  0.10380000000000000          1.8158934201402925     
  0.10410000000000001          2.1854502316302269     
  0.10440000000000001          2.4822011212648514     
  0.10470000000000000          2.6934924599608769     
  0.10500000000000000          2.8101836392094883     
  0.10530000000000000          2.8273614891425018     
  0.10560000000000000          2.7448108566352780     
  0.10590000000000001          2.5673064597133761     
  0.10620000000000000          2.3044010442423595     
  0.10650000000000001          1.9702577844917890     
  0.10679999999999999          1.5827017002866266     
  0.10710000000000000          1.1624170574290942     
  0.10740000000000001         0.73150565592997085     
  0.10770000000000000         0.31213247759801555     
  0.10800000000000000         -7.5064793502584409E-002
  0.10830000000000001        -0.41272681108457493     
  0.10859999999999999        -0.68723157981460881     
  0.10890000000000000        -0.89026870079207410     
  0.10920000000000001         -1.0192467952055415     
  0.10950000000000001         -1.0766996427260751     
  0.10979999999999999         -1.0700699694259777     
  0.11009999999999999         -1.0106619720010732     
  0.11040000000000001        -0.91261436236769211     
  0.11070000000000001        -0.79088333078157513     
  0.11100000000000000        -0.66016779811807780     
  0.11130000000000000        -0.53353614149235318     
  0.11160000000000002        -0.42157648715068463     
  0.11190000000000001        -0.33209079910389439     
  0.11220000000000001        -0.26906138836791960     
  0.11250000000000000        -0.23392995165625641     
  0.11280000000000000        -0.22605657899769480     
  0.11309999999999999        -0.24281485640490985     
  0.11340000000000001        -0.28109469913293589     
  0.11369999999999998        -0.33780475975799779     
  0.11400000000000000        -0.40999080290661394     
  0.11430000000000000        -0.49541003984807563     
  0.11460000000000002        -0.59220258731408837     
  0.11489999999999999        -0.69797908489884042     
  0.11520000000000001        -0.80995737569781789     
  0.11550000000000001        -0.92421875636588280     
  0.11580000000000000         -1.0346268240779466     
  0.11609999999999999         -1.1333989109747742     
  0.11640000000000002         -1.2110516510881602     
  0.11670000000000001         -1.2569497513909018     
  0.11700000000000001         -1.2604418555077204     
  0.11730000000000000         -1.2117698243746284     
  0.11760000000000000         -1.1038163222899571     
  0.11789999999999999        -0.93335145335810177     
  0.11820000000000001        -0.70150207110792961     
  0.11850000000000001        -0.41484222672470261     
  0.11880000000000000         -8.5088988246962260E-002
  0.11910000000000000         0.27127676008786900     
  0.11940000000000002         0.63403228346632035     
  0.11970000000000001         0.98134230212704732     
  0.12000000000000001          1.2909821231509131     
  0.12030000000000000          1.5421338669992197     
  0.12060000000000000          1.7175989209223952     
  0.12089999999999999          1.8053800656804531     
  0.12119999999999999          1.7990223945479202     
  0.12150000000000001          1.6983245535175375     
  0.12180000000000001          1.5099763741208678     
  0.12210000000000000          1.2462474533662475     
  0.12239999999999999         0.92408966963446026     
  0.12270000000000002         0.56417116957134517     
  0.12300000000000001         0.18884807342414578     
  0.12330000000000001        -0.17850381861783188     
  0.12360000000000000        -0.51560907435552528     
  0.12390000000000000        -0.80304629178197939     
  0.12419999999999999         -1.0240608233505624     
  0.12450000000000001         -1.1659589857315598     
  0.12480000000000001         -1.2214746310725912     
  0.12509999999999999         -1.1881938670339893     
  0.12540000000000001         -1.0682586568690526     
  0.12570000000000003        -0.86954735677617612     
  0.12600000000000000        -0.60447054270870448     
  0.12630000000000002        -0.28940068532992969     
  0.12659999999999999          5.5968391762344194E-002
  0.12690000000000001         0.40962816053171536     
  0.12719999999999998         0.74805989385378779     
  0.12750000000000000          1.0478361428468688     
  0.12780000000000002          1.2874181425702493     
  0.12809999999999999          1.4479280411518740     
  0.12840000000000001          1.5145626792917910     
  0.12869999999999998          1.4783449537705315     
  0.12900000000000000          1.3368460991180273     
  0.12930000000000003          1.0943192146892602     
  0.12959999999999999         0.76207455318923734     
  0.12990000000000002         0.35833585345329677     
  0.13019999999999998         -9.3298351403174634E-002
  0.13050000000000000        -0.56514597004698552     
  0.13080000000000003         -1.0273073575320537     
  0.13109999999999999         -1.4498108324207333     
  0.13140000000000002         -1.8047922477731686     
  0.13169999999999998         -2.0691028883911695     
  0.13200000000000001         -2.2255250981974601     
  0.13229999999999997         -2.2641463641107560     
  0.13260000000000000         -2.1836689095828810     
  0.13290000000000002         -1.9912167747594465     
  0.13319999999999999         -1.7011964894758378     
  0.13350000000000001         -1.3345572875187086     
  0.13380000000000003        -0.91690728810822986     
  0.13410000000000000        -0.47642960658615152     
  0.13440000000000002         -4.1270177009389952E-002
  0.13469999999999999         0.36243888103922323     
  0.13500000000000001         0.71220737497600595     
  0.13529999999999998         0.99089006647592315     
  0.13560000000000000          1.1880682861250769     
  0.13590000000000002          1.3000993872674453     
  0.13619999999999999          1.3294487477658887     
  0.13650000000000001          1.2848482074188303     
  0.13680000000000003          1.1798131075073122     
  0.13710000000000000          1.0311395978847426     
  0.13740000000000002         0.85747098100471919     
  0.13769999999999999         0.67726822586644042     
  0.13800000000000001         0.50799598880139007     
  0.13829999999999998         0.36443330305880667     
  0.13860000000000000         0.25688508673362165     
  0.13890000000000002         0.19116452996830080     
  0.13919999999999999         0.16843017907345145     
  0.13950000000000001         0.18432928810276158     
  0.13979999999999998         0.22962263821410686     
  0.14010000000000000         0.29149951073445374     
  0.14040000000000002         0.35445193249653895     
  0.14069999999999999         0.40149834059264966     
  0.14100000000000001         0.41610989358762490     
  0.14130000000000004         0.38380506970969397     
  0.14160000000000000         0.29389027342776752     
  0.14189999999999997         0.14104859346521076     
  0.14219999999999999         -7.4375254924534909E-002
  0.14250000000000002        -0.34540271231656439     
  0.14279999999999998        -0.65820547563631848     
  0.14310000000000000        -0.99370559273521886     
  0.14339999999999997         -1.3285339906227669     
  0.14369999999999999         -1.6364079194133558     
  0.14400000000000002         -1.8911332580113838     
  0.14429999999999998         -2.0680368799910007     
  0.14460000000000001         -2.1466455045291699     
  0.14490000000000003         -2.1123039993080930     
  0.14520000000000000         -1.9573715552190842     
  0.14550000000000002         -1.6818244929066382     
  0.14579999999999999         -1.2939738739949629     
  0.14610000000000001        -0.80901601284307612     
  0.14640000000000003        -0.24831822300101530     
  0.14670000000000000         0.36209408329077220     
  0.14699999999999996         0.99336708355257786     
  0.14729999999999999          1.6157623416677453     
  0.14760000000000001          2.2005320725078499     
  0.14789999999999998          2.7206603224384698     
  0.14820000000000000          3.1530000542129382     