  -1.4999999999999999E-002     0.0000000000000000     
  -1.4700000000000000E-002     0.0000000000000000     
  -1.4400000000000000E-002     0.0000000000000000     
  -1.4100000000000000E-002     0.0000000000000000     
  -1.3800000000000000E-002     0.0000000000000000     
  -1.3500000000000000E-002     0.0000000000000000     
  -1.3200000000000000E-002     0.0000000000000000     
  -1.2899999999999998E-002     0.0000000000000000     
  -1.2600000000000000E-002     0.0000000000000000     
  -1.2299999999999998E-002     0.0000000000000000     
  -1.2000000000000000E-002     0.0000000000000000     
  -1.1699999999999999E-002     0.0000000000000000     
  -1.1399999999999999E-002     0.0000000000000000     
  -1.1099999999999999E-002     0.0000000000000000     
  -1.0799999999999999E-002     0.0000000000000000     
  -1.0499999999999999E-002     0.0000000000000000     
  -1.0199999999999999E-002     0.0000000000000000     
  -9.8999999999999991E-003     0.0000000000000000     
  -9.5999999999999992E-003     0.0000000000000000     
  -9.2999999999999992E-003     0.0000000000000000     
  -8.9999999999999993E-003     0.0000000000000000     
  -8.6999999999999994E-003     0.0000000000000000     
  -8.3999999999999995E-003     0.0000000000000000     
  -8.0999999999999996E-003     0.0000000000000000     
  -7.7999999999999988E-003     0.0000000000000000     
  -7.4999999999999997E-003     0.0000000000000000     
  -7.1999999999999998E-003     0.0000000000000000     
  -6.8999999999999981E-003     0.0000000000000000     
  -6.5999999999999982E-003     0.0000000000000000     
  -6.3000000000000000E-003     0.0000000000000000     
  -6.0000000000000001E-003     0.0000000000000000     
  -5.6999999999999985E-003     0.0000000000000000     
  -5.3999999999999986E-003     0.0000000000000000     
  -5.1000000000000004E-003     0.0000000000000000     
  -4.7999999999999987E-003     0.0000000000000000     
  -4.5000000000000005E-003     0.0000000000000000     
  -4.1999999999999989E-003     0.0000000000000000     
  -3.8999999999999990E-003     0.0000000000000000     
  -3.5999999999999990E-003     0.0000000000000000     
  -3.2999999999999991E-003     0.0000000000000000     
  -2.9999999999999992E-003     0.0000000000000000     
  -2.6999999999999993E-003     0.0000000000000000     
  -2.3999999999999994E-003     0.0000000000000000     
  -2.0999999999999977E-003     0.0000000000000000     
  -1.7999999999999995E-003     0.0000000000000000     
  -1.4999999999999979E-003     0.0000000000000000     
  -1.1999999999999997E-003     0.0000000000000000     
  -8.9999999999999976E-004     0.0000000000000000     
  -5.9999999999999810E-004     0.0000000000000000     
  -2.9999999999999992E-004     0.0000000000000000     
   0.0000000000000000          0.0000000000000000     
   3.0000000000000165E-004     0.0000000000000000     
   5.9999999999999984E-004     0.0000000000000000     
   9.0000000000000149E-004     0.0000000000000000     
   1.2000000000000031E-003     0.0000000000000000     
   1.5000000000000013E-003     0.0000000000000000     
   1.8000000000000030E-003     0.0000000000000000     
   2.1000000000000012E-003     0.0000000000000000     
   2.3999999999999994E-003     0.0000000000000000     
   2.7000000000000010E-003     0.0000000000000000     
   2.9999999999999992E-003     0.0000000000000000     
   3.3000000000000008E-003     0.0000000000000000     
   3.6000000000000025E-003     0.0000000000000000     
   3.9000000000000007E-003     0.0000000000000000     
   4.2000000000000023E-003     0.0000000000000000     
   4.5000000000000005E-003     0.0000000000000000     
   4.7999999999999987E-003     0.0000000000000000     
   5.1000000000000004E-003     0.0000000000000000     
   5.4000000000000020E-003     0.0000000000000000     
   5.7000000000000037E-003     0.0000000000000000     
   5.9999999999999984E-003     0.0000000000000000     
   6.3000000000000000E-003     0.0000000000000000     
   6.6000000000000017E-003     0.0000000000000000     
   6.9000000000000034E-003     0.0000000000000000     
   7.2000000000000015E-003     0.0000000000000000     
   7.5000000000000032E-003     0.0000000000000000     
   7.8000000000000014E-003     0.0000000000000000     
   8.0999999999999996E-003     0.0000000000000000     
   8.4000000000000012E-003     0.0000000000000000     
   8.7000000000000029E-003     0.0000000000000000     
   9.0000000000000011E-003     0.0000000000000000     
   9.2999999999999992E-003     0.0000000000000000     
   9.6000000000000009E-003     0.0000000000000000     
   9.8999999999999991E-003     0.0000000000000000     
   1.0200000000000001E-002     0.0000000000000000     
   1.0500000000000002E-002     0.0000000000000000     
   1.0800000000000004E-002     0.0000000000000000     
   1.1099999999999999E-002     0.0000000000000000     
   1.1400000000000000E-002     0.0000000000000000     
   1.1700000000000002E-002     0.0000000000000000     
   1.2000000000000004E-002     0.0000000000000000     
   1.2300000000000002E-002     0.0000000000000000     
   1.2600000000000000E-002     0.0000000000000000     
   1.2900000000000002E-002     0.0000000000000000     
   1.3200000000000000E-002     0.0000000000000000     
   1.3500000000000002E-002     0.0000000000000000     
   1.3800000000000003E-002     0.0000000000000000     
   1.4100000000000001E-002     0.0000000000000000     
   1.4400000000000000E-002     0.0000000000000000     
   1.4700000000000001E-002     0.0000000000000000     
   1.4999999999999999E-002     0.0000000000000000     
   1.5300000000000001E-002     0.0000000000000000     
   1.5600000000000003E-002     0.0000000000000000     
   1.5899999999999997E-002     0.0000000000000000     
   1.6199999999999999E-002     0.0000000000000000     
   1.6500000000000001E-002     0.0000000000000000     
   1.6800000000000002E-002     0.0000000000000000     
   1.7100000000000004E-002     0.0000000000000000     
   1.7400000000000006E-002     0.0000000000000000     
   1.7700000000000000E-002     0.0000000000000000     
   1.8000000000000002E-002     0.0000000000000000     
   1.8300000000000004E-002     0.0000000000000000     
   1.8600000000000005E-002     0.0000000000000000     
   1.8900000000000000E-002     0.0000000000000000     
   1.9200000000000002E-002     0.0000000000000000     
   1.9500000000000003E-002     0.0000000000000000     
   1.9799999999999998E-002     0.0000000000000000     
   2.0100000000000000E-002     0.0000000000000000     
   2.0400000000000001E-002     0.0000000000000000     
   2.0700000000000003E-002     0.0000000000000000     
   2.0999999999999998E-002     0.0000000000000000     
   2.1299999999999999E-002     0.0000000000000000     
   2.1600000000000001E-002     0.0000000000000000     
   2.1900000000000003E-002     0.0000000000000000     
   2.2200000000000004E-002     0.0000000000000000     
   2.2500000000000006E-002     0.0000000000000000     
   2.2800000000000001E-002     0.0000000000000000     
   2.3100000000000002E-002     0.0000000000000000     
   2.3400000000000004E-002     0.0000000000000000     
   2.3699999999999999E-002     0.0000000000000000     
   2.4000000000000000E-002     0.0000000000000000     
   2.4300000000000002E-002     0.0000000000000000     
   2.4599999999999997E-002     0.0000000000000000     
   2.4900000000000005E-002     0.0000000000000000     
   2.5200000000000000E-002     0.0000000000000000     
   2.5499999999999995E-002     0.0000000000000000     
   2.5800000000000003E-002     0.0000000000000000     
   2.6099999999999998E-002     0.0000000000000000     
   2.6400000000000007E-002     0.0000000000000000     
   2.6700000000000002E-002     0.0000000000000000     
   2.6999999999999996E-002     0.0000000000000000     
   2.7300000000000005E-002     0.0000000000000000     
   2.7600000000000000E-002     0.0000000000000000     
   2.7900000000000008E-002     0.0000000000000000     
   2.8200000000000003E-002     0.0000000000000000     
   2.8499999999999998E-002     0.0000000000000000     
   2.8800000000000006E-002     0.0000000000000000     
   2.9100000000000001E-002     0.0000000000000000     
   2.9400000000000003E-002     0.0000000000000000     
   2.9700000000000004E-002     0.0000000000000000     
   3.0000000000000006E-002     0.0000000000000000     
   3.0300000000000001E-002     0.0000000000000000     
   3.0600000000000002E-002     0.0000000000000000     
   3.0900000000000004E-002     0.0000000000000000     
   3.1199999999999999E-002     0.0000000000000000     
   3.1500000000000007E-002     0.0000000000000000     
   3.1800000000000002E-002     0.0000000000000000     
   3.2099999999999997E-002     0.0000000000000000     
   3.2400000000000005E-002     0.0000000000000000     
   3.2700000000000000E-002     2.2746520183378172E-058
   3.3000000000000002E-002    -2.1574171588875970E-057
   3.3300000000000003E-002    -4.2615666877160478E-045
   3.3599999999999998E-002     1.9676343571880070E-043
   3.3900000000000000E-002    -1.2809569114797286E-042
   3.4200000000000001E-002    -1.3311730794825182E-036
   3.4500000000000003E-002     4.4095675067750566E-036
   3.4799999999999998E-002    -8.7549955150499941E-035
   3.5099999999999999E-002    -2.2746054806083170E-034
   3.5400000000000001E-002     4.1525610600725495E-033
   3.5699999999999996E-002    -6.9801794981018350E-033
   3.6000000000000004E-002     1.6075929108201641E-032
   3.6299999999999999E-002    -7.2306442067654516E-032
   3.6600000000000008E-002     2.7797220807728631E-031
   3.6900000000000002E-002    -9.0778226191198415E-031
   3.7199999999999997E-002     2.6564212919629480E-030
   3.7500000000000006E-002    -6.9145277487539372E-030
   3.7800000000000000E-002     1.5327980911194417E-029
   3.8100000000000009E-002    -2.5765103107200131E-029
   3.8400000000000004E-002     1.5977432302403119E-029
   3.8699999999999998E-002     1.0569152073145494E-028
   3.9000000000000007E-002    -6.1797055114654884E-028
   3.9300000000000002E-002     2.1969566028508158E-027
   3.9600000000000003E-002    -6.1024422925305368E-027
   3.9900000000000005E-002     1.3698067072596017E-026
   4.0200000000000000E-002    -2.3334285939212273E-026
   4.0500000000000001E-002     2.0307060240602922E-026
   4.0800000000000003E-002     4.6068521956734847E-026
   4.1100000000000005E-002    -2.9814350564424273E-025
   4.1399999999999999E-002     9.4692228973823361E-025
   4.1700000000000008E-002    -2.1762783219900571E-024
   4.2000000000000003E-002     3.6425374192961668E-024
   4.2299999999999997E-002    -3.2569501546095503E-024
   4.2600000000000006E-002    -4.7158047574440326E-024
   4.2900000000000001E-002     3.0659633426084437E-023
   4.3200000000000002E-002    -8.4806826615546958E-023
   4.3500000000000004E-002     1.5805225896319210E-022
   4.3799999999999999E-002    -1.8237764185695166E-022
   4.4100000000000000E-002    -1.2972193923956426E-023
   4.4400000000000002E-002     6.8075928128889580E-022
   4.4700000000000004E-002    -1.9409057347579557E-021
   4.4999999999999998E-002     3.2784074733540452E-021
   4.5300000000000000E-002    -2.9938878083524858E-021
   4.5600000000000002E-002    -1.4256452437620338E-021
   4.5899999999999996E-002     1.0604720286057594E-020
   4.6200000000000005E-002    -1.9147871090754841E-020
   4.6500000000000000E-002     1.8956569656251875E-020
   4.6799999999999994E-002    -2.3888884872409606E-020
   4.7100000000000003E-002     8.5143300715406091E-020
   4.7399999999999998E-002    -1.0339177920409363E-019
   4.7700000000000006E-002    -8.7827849569569341E-019
   4.8000000000000001E-002     5.3046206004177349E-018
   4.8300000000000010E-002    -1.3521246467022089E-017
   4.8600000000000004E-002     8.5098815450599170E-018
   4.8899999999999999E-002     6.2542119194109044E-017
   4.9200000000000008E-002    -2.3677699471387302E-016
   4.9500000000000002E-002     2.8999897204045792E-016
   4.9800000000000011E-002     4.8506763001972945E-016
   5.0100000000000006E-002    -1.9215132993221892E-015
   5.0400000000000000E-002    -2.9025941954683283E-015
   5.0700000000000009E-002     3.6062889672446073E-014
   5.1000000000000004E-002    -1.2103840901718776E-013
   5.1299999999999998E-002     1.8615603670180130E-013
   5.1600000000000007E-002     1.6578722447101440E-013
   5.1900000000000002E-002    -1.9135764082590595E-012
   5.2200000000000010E-002     6.4138730416495238E-012
   5.2500000000000005E-002    -1.3356677074240142E-011
   5.2800000000000000E-002     1.2586929189515681E-011
   5.3099999999999994E-002     3.9341638110162039E-011
   5.3400000000000003E-002    -2.5013471712308494E-010
   5.3699999999999998E-002     6.9691665888207586E-010
   5.4000000000000006E-002    -7.8456741180415748E-010
   5.4300000000000001E-002    -2.1473847607061494E-009
   5.4599999999999996E-002     1.1939970972217780E-008
   5.4900000000000004E-002    -1.9923746389852928E-008
   5.5199999999999999E-002    -2.3930654578406166E-008
   5.5499999999999994E-002     1.6880865495078668E-007
   5.5800000000000002E-002    -1.8362799123311324E-007
   5.6099999999999997E-002    -7.2866732415000578E-007
   5.6400000000000006E-002     2.0438628960420816E-006
   5.6700000000000000E-002     7.3067859129176999E-006
   5.6999999999999995E-002     8.5258399433601570E-006
   5.7300000000000004E-002     6.8068793169303132E-006
   5.7599999999999998E-002     8.7173869481390627E-006
   5.7900000000000007E-002     1.4209379838872712E-005
   5.8200000000000002E-002     2.2570037691656561E-005
   5.8499999999999996E-002     3.7435196189788939E-005
   5.8800000000000005E-002     5.9650336029793495E-005
   5.9100000000000000E-002     8.5437374614715850E-005
   5.9400000000000008E-002     1.1592269973738741E-004
   5.9700000000000003E-002     1.6014554951667405E-004
   6.0000000000000012E-002     2.2238190991952177E-004
   6.0300000000000006E-002     3.0286142557115370E-004
   6.0600000000000001E-002     4.0485859664052346E-004
   6.0900000000000010E-002     5.2564587031812880E-004
   6.1200000000000004E-002     6.5976785082815350E-004
   6.1500000000000013E-002     8.0794587600634127E-004
   6.1800000000000008E-002     9.6555400767448386E-004
   6.2100000000000002E-002     1.1142169022590263E-003
   6.2399999999999997E-002     1.2273244032609423E-003
   6.2700000000000006E-002     1.2696613977426446E-003
   6.3000000000000000E-002     1.1939313656543365E-003
   6.3300000000000009E-002     9.4610298682845000E-004
   6.3600000000000004E-002     4.6527826894144606E-004
   6.3899999999999998E-002    -3.2459048931730394E-004
   6.4199999999999993E-002    -1.5092401765623693E-003
   6.4500000000000002E-002    -3.1647068507150255E-003
   6.4800000000000010E-002    -5.3495249538515572E-003
   6.5100000000000005E-002    -8.1037183078875741E-003
   6.5400000000000000E-002    -1.1431301377717295E-002
   6.5700000000000008E-002    -1.5283363428931317E-002
   6.5999999999999989E-002    -1.9551160440915344E-002
   6.6299999999999998E-002    -2.4058299912247214E-002
   6.6600000000000006E-002    -2.8550286764416621E-002
   6.6900000000000001E-002    -3.2686834344908905E-002
   6.7199999999999996E-002    -3.6064160288967799E-002
   6.7500000000000004E-002    -3.8248607262284656E-002
   6.7800000000000013E-002    -3.8774093004277810E-002
   6.8099999999999994E-002    -3.7174565059954943E-002
   6.8400000000000002E-002    -3.3046131165575886E-002
   6.8700000000000011E-002    -2.6070195168574652E-002
   6.8999999999999992E-002    -1.6045198371000224E-002
   6.9300000000000000E-002    -2.9326133527839489E-003
   6.9600000000000009E-002     1.3134666205713779E-002
   6.9900000000000004E-002     3.1847496612860522E-002
   7.0199999999999999E-002     5.2709733911455101E-002
   7.0500000000000007E-002     7.5076597385976065E-002
   7.0800000000000016E-002     9.8190288459423264E-002
   7.1099999999999997E-002    0.12120268888495872     
   7.1400000000000005E-002    0.14322554041655022     
   7.1700000000000000E-002    0.16338071759614584     
   7.1999999999999995E-002    0.18082190149057220     
   7.2300000000000003E-002    0.19476055242498458     
   7.2600000000000012E-002    0.20449031063323198     
   7.2900000000000006E-002    0.20938282392798169     
   7.3200000000000001E-002    0.20887444096132432     
   7.3499999999999996E-002    0.20251268796462613     
   7.3800000000000004E-002    0.18993314212806775     
   7.4099999999999999E-002    0.17085972962841423     
   7.4400000000000008E-002    0.14516988840868503     
   7.4700000000000003E-002    0.11295070087997257     
   7.5000000000000011E-002     7.4505405672502953E-002
   7.5299999999999992E-002     3.0471811620652094E-002
   7.5600000000000001E-002    -1.8156386107315532E-002
   7.5900000000000009E-002    -6.9973620535264527E-002
   7.6200000000000004E-002   -0.12317838220670488     
   7.6499999999999999E-002   -0.17559314386054012     
   7.6800000000000007E-002   -0.22473139334705311     
   7.7099999999999988E-002   -0.26795116959858939     
   7.7399999999999997E-002   -0.30264274278666553     
   7.7700000000000005E-002   -0.32636938554613415     
   7.8000000000000014E-002   -0.33714289546674964     
   7.8299999999999995E-002   -0.33362270446149500     
   7.8600000000000003E-002   -0.31528488770915669     
   7.8900000000000012E-002   -0.28254053845313254     
   7.9199999999999993E-002   -0.23683496506910859     
   7.9500000000000001E-002   -0.18055505055911211     
   7.9800000000000010E-002   -0.11694079177633063     
   8.0100000000000018E-002    -4.9936485214260279E-002
   8.0399999999999999E-002     1.6114227054967470E-002
   8.0700000000000008E-002     7.6779748837561904E-002
   8.1000000000000003E-002    0.12785225100177264     
   8.1299999999999997E-002    0.16566020841982917     
   8.1600000000000006E-002    0.18730506944504421     
   8.1900000000000014E-002    0.19092691577750676     
   8.2199999999999995E-002    0.17582391766171565     
   8.2500000000000004E-002    0.14245607397283028     
   8.2799999999999999E-002     9.2380578406883365E-002
   8.3100000000000007E-002     2.8187189588086643E-002
   8.3400000000000002E-002    -4.6698039703442065E-002
   8.3700000000000011E-002   -0.12838604040749621     
   8.4000000000000005E-002   -0.21265799566209584     
   8.4300000000000000E-002   -0.29514748878398395     
   8.4599999999999995E-002   -0.37173895301162996     
   8.4900000000000003E-002   -0.43868203425611690     
   8.5199999999999998E-002   -0.49272476260214448     
   8.5500000000000007E-002   -0.53112663552971473     
   8.5800000000000001E-002   -0.55178387732045597     
   8.6100000000000010E-002   -0.55337871867816346     
   8.6399999999999991E-002   -0.53507478718345947     
   8.6699999999999999E-002   -0.49659116611383336     
   8.7000000000000008E-002   -0.43847785740412187     
   8.7300000000000003E-002   -0.36173276209750110     
   8.7599999999999997E-002   -0.26791042892505312     
   8.7900000000000006E-002   -0.15918310448081319     
   8.8200000000000014E-002    -3.8353365802280895E-002
   8.8499999999999995E-002     9.1170731269305055E-002
   8.8800000000000004E-002    0.22560202300279397     
   8.9100000000000013E-002    0.36065230907952278     
   8.9399999999999993E-002    0.49163706650546191     
   8.9700000000000002E-002    0.61384703641868676     
   9.0000000000000011E-002    0.72261574139318385     
   9.0299999999999991E-002    0.81368937657267582     
   9.0600000000000000E-002    0.88323959502282778     
   9.0900000000000009E-002    0.92828747570419201     
   9.1200000000000017E-002    0.94708725821420214     
   9.1499999999999998E-002    0.93893775346567210     
   9.1800000000000007E-002    0.90430387755046726     
   9.2100000000000001E-002    0.84498843267536172     
   9.2399999999999996E-002    0.76412274902007227     
   9.2700000000000005E-002    0.66549434419650211     
   9.3000000000000013E-002    0.55364753598362992     
   9.3300000000000008E-002    0.43369565807714011     
   9.3600000000000003E-002    0.31080074119336004     
   9.3899999999999997E-002    0.18976911025191928     
   9.4200000000000006E-002     7.4939976047165111E-002
   9.4500000000000001E-002    -2.9904642203909877E-002
   9.4800000000000009E-002   -0.12183267265763949     
   9.5100000000000004E-002   -0.19887503117012414     
   9.5399999999999999E-002   -0.25989154795758190     
   9.5699999999999993E-002   -0.30453036180428961     
   9.6000000000000002E-002   -0.33308301393990042     
   9.6300000000000011E-002   -0.34670395705908547     
   9.6600000000000005E-002   -0.34707833374868341     
   9.6900000000000000E-002   -0.33622274797945745     
   9.7200000000000009E-002   -0.31686822509009160     
   9.7499999999999989E-002   -0.29224480056189295     
   9.7799999999999998E-002   -0.26587832765082481     
   9.8100000000000007E-002   -0.24170460543350361     
   9.8400000000000015E-002   -0.22388046199852071     
   9.8699999999999996E-002   -0.21659720669050436     
   9.9000000000000005E-002   -0.22361176505237343     
   9.9300000000000013E-002   -0.24797443460746679     
   9.9599999999999994E-002   -0.29178551919015161     
   9.9900000000000003E-002   -0.35548938634003829     
  0.10020000000000001        -0.43772585792675911     
  0.10049999999999999        -0.53516777276507577     
  0.10080000000000000        -0.64250709868084543     
  0.10110000000000001        -0.75241097398755485     
  0.10140000000000000        -0.85613533741940440     
  0.10170000000000000        -0.94416263823423408     
  0.10200000000000001         -1.0067024556651027     
  0.10230000000000002         -1.0347858996690931     
  0.10260000000000000         -1.0209451041732329     
  0.10290000000000001        -0.96018609387439302     
  0.10320000000000000        -0.85037239980912660     
  0.10350000000000001        -0.69260456222355660     
  0.10380000000000000        -0.49169899421742330     
  0.10410000000000001        -0.25542838009621976     
  0.10440000000000001          5.5182074740234427E-003
  0.10470000000000000         0.27844179736444402     
  0.10500000000000000         0.54955526111339026     
  0.10530000000000000         0.80485173781087249     
  0.10560000000000000          1.0311272484307066     
  0.10590000000000001          1.2167570987738010     
  0.10620000000000000          1.3525910815345967     
  0.10650000000000001          1.4324565395119322     
  0.10679999999999999          1.4531001318158550     
  0.10710000000000000          1.4145092223202562     
  0.10740000000000001          1.3197248400845769     
  0.10770000000000000          1.1741756570765125     
  0.10800000000000000         0.98541054222100155     
  0.10830000000000001         0.76261695580850475     
  0.10859999999999999         0.51548107008195465     
  0.10890000000000000         0.25434253290299741     
  0.10920000000000001         -1.0222809405341274E-002
  0.10950000000000001        -0.26867912234143948     
  0.10979999999999999        -0.51187910450385621     
  0.11009999999999999        -0.73116805668857499     
  0.11040000000000001        -0.91910681221232193     
  0.11070000000000001         -1.0690737123144149     
  0.11100000000000000         -1.1756079581222476     
  0.11130000000000000         -1.2341008585327820     
  0.11160000000000002         -1.2411251464438533     
  0.11190000000000001         -1.1950326343932562     
  0.11220000000000001         -1.0956042156516297     
  0.11250000000000000        -0.94427850781686251     
  0.11280000000000000        -0.74485173098562396     
  0.11309999999999999        -0.50329120450532117     
  0.11340000000000001        -0.22758626056842016     
  0.11369999999999998          7.2433840206058364E-002
  0.11400000000000000         0.38501475584287348     
  0.11430000000000000         0.69720121530290746     
  0.11460000000000002         0.99591836571918135     
  0.11489999999999999          1.2682468105454781     
  0.11520000000000001          1.5019221784911136     
  0.11550000000000001          1.6868683635769819     
  0.11580000000000000          1.8153598884490010     
  0.11609999999999999          1.8823960424993778     
  0.11640000000000002          1.8861077431244080     
  0.11670000000000001          1.8277701721029731     
  0.11700000000000001          1.7115667412479278     
  0.11730000000000000          1.5439963835899106     
  0.11760000000000000          1.3333688212411763     
  0.11789999999999999          1.0891737099613308     
  0.11820000000000001         0.82134386623792466     
  0.11850000000000001         0.53961672223581636     
  0.11880000000000000         0.25298489058581719     
  0.11910000000000000         -3.0717979918189659E-002
  0.11940000000000002        -0.30471880086779551     
  0.11970000000000001        -0.56371613031023526     
  0.12000000000000001        -0.80363925764377586     
  0.12030000000000000         -1.0209830122139059     
  0.12060000000000000         -1.2132243295448877     
  0.12089999999999999         -1.3783088162957198     
  0.12119999999999999         -1.5139465810000499     
  0.12150000000000001         -1.6180453814091262     
  0.12180000000000001         -1.6888180319010078     
  0.12210000000000000         -1.7240197021431685     
  0.12239999999999999         -1.7218268474926421     
  0.12270000000000002         -1.6812959266277567     
  0.12300000000000001         -1.6017696193738267     
  0.12330000000000001         -1.4836967485121642     
  0.12360000000000000         -1.3291410654901161     
  0.12390000000000000         -1.1415721568756008     
  0.12419999999999999        -0.92571404831687987     
  0.12450000000000001        -0.68805762614426047     
  0.12480000000000001        -0.43653084506822565     
  0.12509999999999999        -0.17984219722746375     
  0.12540000000000001          7.2667688354403043E-002
  0.12570000000000003         0.31132794263425861     
  0.12600000000000000         0.52661134384564789     
  0.12630000000000002         0.71021481584632240     
  0.12659999999999999         0.85502663026531145     
  0.12690000000000001         0.95541033302703782     
  0.12719999999999998          1.0082478858005341     
  0.12750000000000000          1.0125629050639193     
  0.12780000000000002         0.96998712750226102     
  0.12809999999999999         0.88443699552543453     
  0.12840000000000001         0.76225950994969105     
  0.12869999999999998         0.61181791807564834     
  0.12900000000000000         0.44304479781365724     
  0.12930000000000003         0.26702646437696709     
  0.12959999999999999          9.4911758406288585E-002
  0.12990000000000002         -6.2001512562815796E-002
  0.13019999999999998        -0.19335754778775724     
  0.13050000000000000        -0.29083285639725237     
  0.13080000000000003        -0.34806070841099762     
  0.13109999999999999        -0.36143783895302128     
  0.13140000000000002        -0.33032555447616008     
  0.13169999999999998        -0.25747428164691100     
  0.13200000000000001        -0.14868578773957414     
  0.13229999999999997         -1.2057266215285110E-002
  0.13260000000000000         0.14161424844050702     
  0.13290000000000002         0.30026699138127849     
  0.13319999999999999         0.45156462518829205     
  0.13350000000000001         0.58320077212455124     
  0.13380000000000003         0.68412324055940110     
  0.13410000000000000         0.74573149725295951     
  0.13440000000000002         0.76173194718414139     
  0.13469999999999999         0.72901924780964222     
  0.13500000000000001         0.64807905786342734     
  0.13529999999999998         0.52244134345263693     
  0.13560000000000000         0.35832385258502825     
  0.13590000000000002         0.16476878904520592     
  0.13619999999999999         -4.7573960770747506E-002
  0.13650000000000001        -0.26707742643424542     
  0.13680000000000003        -0.48179255654987863     
  0.13710000000000000        -0.68022211757529616     
  0.13740000000000002        -0.85162535213576862     
  0.13769999999999999        -0.98720440585753877     
  0.13800000000000001         -1.0797714353401466     
  0.13829999999999998         -1.1244451177969563     
  0.13860000000000000         -1.1186654934095925     
  0.13890000000000002         -1.0624032367339136     
  0.13919999999999999        -0.95748540902987356     
  0.13950000000000001        -0.80844130762605138     
  0.13979999999999998        -0.62187715408602795     
  0.14010000000000000        -0.40582431691937504     
  0.14040000000000002        -0.17007601830484267     
  0.14069999999999999          7.4287640292067747E-002
  0.14100000000000001         0.31593353551493503     
  0.14130000000000004         0.54285057124016722     
  0.14160000000000000         0.74363532057267590     
  0.14189999999999997         0.90792825737627136     
  0.14219999999999999          1.0266429513844662     
  0.14250000000000002          1.0930655351640524     
  0.14279999999999998          1.1026724929190355     
  0.14310000000000000          1.0539800264514545     
  0.14339999999999997         0.94839653405435309     
  0.14369999999999999         0.79013821008927743     
  0.14400000000000002         0.58650155731745213     
  0.14429999999999998         0.34682829281495003     
  0.14460000000000001          8.2410338125886162E-002
  0.14490000000000003        -0.19387037158071546     
  0.14520000000000000        -0.46862034444170991     
  0.14550000000000002        -0.72862496214299211     
  0.14579999999999999        -0.96091130304054861     
  0.14610000000000001         -1.1534625637152924     
  0.14640000000000003         -1.2965681935973117     
  0.14670000000000000         -1.3822347330194553     
  0.14699999999999996         -1.4049557853055266     
  0.14729999999999999         -1.3621220974350929     
  0.14760000000000001         -1.2543073048392666     
  0.14789999999999998         -1.0852337177809037     
  0.14820000000000000        -0.86119135481909670     