  -1.4999999999999999E-002     0.0000000000000000     
  -1.4700000000000000E-002     0.0000000000000000     
  -1.4400000000000000E-002     0.0000000000000000     
  -1.4100000000000000E-002     0.0000000000000000     
  -1.3800000000000000E-002     0.0000000000000000     
  -1.3500000000000000E-002     0.0000000000000000     
  -1.3200000000000000E-002     0.0000000000000000     
  -1.2899999999999998E-002     0.0000000000000000     
  -1.2600000000000000E-002     0.0000000000000000     
  -1.2299999999999998E-002     0.0000000000000000     
  -1.2000000000000000E-002     0.0000000000000000     
  -1.1699999999999999E-002     0.0000000000000000     
  -1.1399999999999999E-002     0.0000000000000000     
  -1.1099999999999999E-002     0.0000000000000000     
  -1.0799999999999999E-002     0.0000000000000000     
  -1.0499999999999999E-002     0.0000000000000000     
  -1.0199999999999999E-002     0.0000000000000000     
  -9.8999999999999991E-003     0.0000000000000000     
  -9.5999999999999992E-003     0.0000000000000000     
  -9.2999999999999992E-003     0.0000000000000000     
  -8.9999999999999993E-003     0.0000000000000000     
  -8.6999999999999994E-003     0.0000000000000000     
  -8.3999999999999995E-003     0.0000000000000000     
  -8.0999999999999996E-003     0.0000000000000000     
  -7.7999999999999988E-003     0.0000000000000000     
  -7.4999999999999997E-003     0.0000000000000000     
  -7.1999999999999998E-003     0.0000000000000000     
  -6.8999999999999981E-003     0.0000000000000000     
  -6.5999999999999982E-003     0.0000000000000000     
  -6.3000000000000000E-003     0.0000000000000000     
  -6.0000000000000001E-003     0.0000000000000000     
  -5.6999999999999985E-003     0.0000000000000000     
  -5.3999999999999986E-003     0.0000000000000000     
  -5.1000000000000004E-003     0.0000000000000000     
  -4.7999999999999987E-003     0.0000000000000000     
  -4.5000000000000005E-003     0.0000000000000000     
  -4.1999999999999989E-003     0.0000000000000000     
  -3.8999999999999990E-003     0.0000000000000000     
  -3.5999999999999990E-003     0.0000000000000000     
  -3.2999999999999991E-003     0.0000000000000000     
  -2.9999999999999992E-003     0.0000000000000000     
  -2.6999999999999993E-003     0.0000000000000000     
  -2.3999999999999994E-003     0.0000000000000000     
  -2.0999999999999977E-003     0.0000000000000000     
  -1.7999999999999995E-003     0.0000000000000000     
  -1.4999999999999979E-003     0.0000000000000000     
  -1.1999999999999997E-003     0.0000000000000000     
  -8.9999999999999976E-004     0.0000000000000000     
  -5.9999999999999810E-004     0.0000000000000000     
  -2.9999999999999992E-004     0.0000000000000000     
   0.0000000000000000          0.0000000000000000     
   3.0000000000000165E-004     0.0000000000000000     
   5.9999999999999984E-004     0.0000000000000000     
   9.0000000000000149E-004     0.0000000000000000     
   1.2000000000000031E-003     0.0000000000000000     
   1.5000000000000013E-003     0.0000000000000000     
   1.8000000000000030E-003     0.0000000000000000     
   2.1000000000000012E-003     0.0000000000000000     
   2.3999999999999994E-003     0.0000000000000000     
   2.7000000000000010E-003     0.0000000000000000     
   2.9999999999999992E-003     0.0000000000000000     
   3.3000000000000008E-003     0.0000000000000000     
   3.6000000000000025E-003     0.0000000000000000     
   3.9000000000000007E-003     0.0000000000000000     
   4.2000000000000023E-003     0.0000000000000000     
   4.5000000000000005E-003     0.0000000000000000     
   4.7999999999999987E-003     0.0000000000000000     
   5.1000000000000004E-003     0.0000000000000000     
   5.4000000000000020E-003     0.0000000000000000     
   5.7000000000000037E-003     0.0000000000000000     
   5.9999999999999984E-003     0.0000000000000000     
   6.3000000000000000E-003     0.0000000000000000     
   6.6000000000000017E-003     0.0000000000000000     
   6.9000000000000034E-003     0.0000000000000000     
   7.2000000000000015E-003     0.0000000000000000     
   7.5000000000000032E-003     0.0000000000000000     
   7.8000000000000014E-003     0.0000000000000000     
   8.0999999999999996E-003     0.0000000000000000     
   8.4000000000000012E-003     0.0000000000000000     
   8.7000000000000029E-003     0.0000000000000000     
   9.0000000000000011E-003     0.0000000000000000     
   9.2999999999999992E-003     0.0000000000000000     
   9.6000000000000009E-003     0.0000000000000000     
   9.8999999999999991E-003     0.0000000000000000     
   1.0200000000000001E-002     0.0000000000000000     
   1.0500000000000002E-002     0.0000000000000000     
   1.0800000000000004E-002     0.0000000000000000     
   1.1099999999999999E-002     0.0000000000000000     
   1.1400000000000000E-002     0.0000000000000000     
   1.1700000000000002E-002     0.0000000000000000     
   1.2000000000000004E-002     0.0000000000000000     
   1.2300000000000002E-002     0.0000000000000000     
   1.2600000000000000E-002     0.0000000000000000     
   1.2900000000000002E-002     0.0000000000000000     
   1.3200000000000000E-002     0.0000000000000000     
   1.3500000000000002E-002     0.0000000000000000     
   1.3800000000000003E-002     0.0000000000000000     
   1.4100000000000001E-002     0.0000000000000000     
   1.4400000000000000E-002     0.0000000000000000     
   1.4700000000000001E-002     0.0000000000000000     
   1.4999999999999999E-002     0.0000000000000000     
   1.5300000000000001E-002     0.0000000000000000     
   1.5600000000000003E-002     0.0000000000000000     
   1.5899999999999997E-002     0.0000000000000000     
   1.6199999999999999E-002     0.0000000000000000     
   1.6500000000000001E-002     0.0000000000000000     
   1.6800000000000002E-002     0.0000000000000000     
   1.7100000000000004E-002     0.0000000000000000     
   1.7400000000000006E-002     0.0000000000000000     
   1.7700000000000000E-002     0.0000000000000000     
   1.8000000000000002E-002     0.0000000000000000     
   1.8300000000000004E-002     0.0000000000000000     
   1.8600000000000005E-002     0.0000000000000000     
   1.8900000000000000E-002     0.0000000000000000     
   1.9200000000000002E-002     0.0000000000000000     
   1.9500000000000003E-002     0.0000000000000000     
   1.9799999999999998E-002     0.0000000000000000     
   2.0100000000000000E-002     0.0000000000000000     
   2.0400000000000001E-002     0.0000000000000000     
   2.0700000000000003E-002     0.0000000000000000     
   2.0999999999999998E-002     0.0000000000000000     
   2.1299999999999999E-002     0.0000000000000000     
   2.1600000000000001E-002     0.0000000000000000     
   2.1900000000000003E-002     0.0000000000000000     
   2.2200000000000004E-002     0.0000000000000000     
   2.2500000000000006E-002     0.0000000000000000     
   2.2800000000000001E-002     0.0000000000000000     
   2.3100000000000002E-002     0.0000000000000000     
   2.3400000000000004E-002     0.0000000000000000     
   2.3699999999999999E-002     0.0000000000000000     
   2.4000000000000000E-002     0.0000000000000000     
   2.4300000000000002E-002     0.0000000000000000     
   2.4599999999999997E-002     0.0000000000000000     
   2.4900000000000005E-002     0.0000000000000000     
   2.5200000000000000E-002     0.0000000000000000     
   2.5499999999999995E-002     0.0000000000000000     
   2.5800000000000003E-002     0.0000000000000000     
   2.6099999999999998E-002     0.0000000000000000     
   2.6400000000000007E-002     0.0000000000000000     
   2.6700000000000002E-002    -7.0343829064207301E-041
   2.6999999999999996E-002     2.7792862684586110E-039
   2.7300000000000005E-002     6.3474954628696662E-037
   2.7600000000000000E-002    -6.0115585692874909E-036
   2.7900000000000008E-002     2.2878933184739201E-035
   2.8200000000000003E-002     1.2276431940090220E-035
   2.8499999999999998E-002    -5.6816403914538986E-034
   2.8800000000000006E-002     1.8853809374904011E-033
   2.9100000000000001E-002    -3.5423733388440675E-033
   2.9400000000000003E-002     5.2483060340957786E-033
   2.9700000000000004E-002    -5.9375112586628216E-033
   3.0000000000000006E-002    -3.2815881895021435E-033
   3.0300000000000001E-002     5.7797900989290933E-032
   3.0600000000000002E-002    -2.7569223562448496E-031
   3.0900000000000004E-002     1.0041048225864234E-030
   3.1199999999999999E-002    -3.1632375999253934E-030
   3.1500000000000007E-002     8.9496191191717155E-030
   3.1800000000000002E-002    -2.2974895932482013E-029
   3.2099999999999997E-002     5.3301484119922054E-029
   3.2400000000000005E-002    -1.0957166089042666E-028
   3.2700000000000000E-002     1.8918205758105428E-028
   3.3000000000000002E-002    -2.2798107603198686E-028
   3.3300000000000003E-002    -3.6791032699915153E-029
   3.3599999999999998E-002     1.3916726193882502E-027
   3.3900000000000000E-002    -5.8250020821376528E-027
   3.4200000000000001E-002     1.7784866051324711E-026
   3.4500000000000003E-002    -4.6266995809717867E-026
   3.4799999999999998E-002     1.0781972273550915E-025
   3.5099999999999999E-002    -2.2916193930207386E-025
   3.5400000000000001E-002     4.4056166651818490E-025
   3.5699999999999996E-002    -7.2328697811942289E-025
   3.6000000000000004E-002     8.0861253237998121E-025
   3.6299999999999999E-002     3.3995598173501433E-025
   3.6600000000000008E-002    -5.3564375254201996E-024
   3.6900000000000002E-002     1.8699634561854232E-023
   3.7199999999999997E-002    -4.3570459041277056E-023
   3.7500000000000006E-002     7.1855693662935398E-023
   3.7800000000000000E-002    -6.7124392390401203E-023
   3.8100000000000009E-002    -4.9551918510772422E-023
   3.8400000000000004E-002     3.8614422162421976E-022
   3.8699999999999998E-002    -9.6065803577142404E-022
   3.9000000000000007E-002     1.2071738403822936E-021
   3.9300000000000002E-002     1.3618909743608869E-021
   3.9600000000000003E-002    -1.2579027070871569E-020
   3.9900000000000005E-002     3.6446048219288976E-020
   4.0200000000000000E-002    -4.6913946901515665E-020
   4.0500000000000001E-002    -6.9980305203602748E-020
   4.0800000000000003E-002     5.2405956168050022E-019
   4.1100000000000005E-002    -1.3223004110665718E-018
   4.1399999999999999E-002     1.3973448840846113E-018
   4.1700000000000008E-002     2.2618197881950756E-018
   4.2000000000000003E-002    -1.2868243917559993E-017
   4.2299999999999997E-002     2.5894046594987485E-017
   4.2600000000000006E-002    -1.7355204003457484E-017
   4.2900000000000001E-002    -5.3181396150485151E-017
   4.3200000000000002E-002     1.9421779525626367E-016
   4.3500000000000004E-002    -2.8157849321683239E-016
   4.3799999999999999E-002    -1.1944150629043992E-017
   4.4100000000000000E-002     9.8051268174139323E-016
   4.4400000000000002E-002    -1.8352943541015954E-015
   4.4700000000000004E-002    -8.7805846296671436E-016
   4.4999999999999998E-002     1.0540865051600301E-014
   4.5300000000000000E-002    -1.2828719509775262E-014
   4.5600000000000002E-002    -4.6666729037445921E-014
   4.5899999999999996E-002     1.9496540014208937E-013
   4.6200000000000005E-002    -1.4387578062995096E-013
   4.6500000000000000E-002    -8.8234544508103111E-013
   4.6799999999999994E-002     2.7437449997619257E-012
   4.7100000000000003E-002    -6.8029133105816789E-013
   4.7399999999999998E-002    -1.3237514743423377E-011
   4.7700000000000006E-002     2.6281201828753497E-011
   4.8000000000000001E-002     2.4642894545933332E-011
   4.8300000000000010E-002    -1.6269994637815045E-010
   4.8600000000000004E-002     8.6958457795827272E-011
   4.8899999999999999E-002     6.8132637460357229E-010
   4.9200000000000008E-002    -1.1552636336111432E-009
   4.9500000000000002E-002    -1.9429816366919671E-009
   4.9800000000000011E-002     6.9387512051862539E-009
   5.0100000000000006E-002     1.8830534529996728E-009
   5.0400000000000000E-002    -2.8210551792319323E-008
   5.0700000000000009E-002     1.0269679790970590E-008
   5.1000000000000004E-002     9.2032887787118841E-008
   5.1299999999999998E-002    -6.6518517756464343E-008
   5.1600000000000007E-002    -3.3032040612454132E-007
   5.1900000000000002E-002     4.6343310078009059E-007
   5.2200000000000010E-002     3.3508331664803147E-006
   5.2500000000000005E-002     7.1200503765870720E-006
   5.2800000000000000E-002     9.7309373416672190E-006
   5.3099999999999994E-002     1.2079596798351536E-005
   5.3400000000000003E-002     1.7239945916762035E-005
   5.3699999999999998E-002     2.7562642919388827E-005
   5.4000000000000006E-002     4.2718992093888642E-005
   5.4300000000000001E-002     6.1591882670427662E-005
   5.4599999999999996E-002     8.9238011559413151E-005
   5.4900000000000004E-002     1.3436945940538091E-004
   5.5199999999999999E-002     2.0072642594623534E-004
   5.5499999999999994E-002     2.8898065494041949E-004
   5.5800000000000002E-002     4.0560013516219621E-004
   5.6099999999999997E-002     5.6321222945585666E-004
   5.6400000000000006E-002     7.6895264178792862E-004
   5.6700000000000000E-002     1.0257498966692923E-003
   5.6999999999999995E-002     1.3435111154125364E-003
   5.7300000000000004E-002     1.7356219905938811E-003
   5.7599999999999998E-002     2.2058105025621216E-003
   5.7900000000000007E-002     2.7432104185900362E-003
   5.8200000000000002E-002     3.3337887681172268E-003
   5.8499999999999996E-002     3.9621128861678252E-003
   5.8800000000000005E-002     4.6003539535062060E-003
   5.9100000000000000E-002     5.2019648384783691E-003
   5.9400000000000008E-002     5.7012033449339427E-003
   5.9700000000000003E-002     6.0253541213421500E-003
   6.0000000000000012E-002     6.1038757249066416E-003
   6.0300000000000006E-002     5.8661085855362498E-003
   6.0600000000000001E-002     5.2379656933742068E-003
   6.0900000000000010E-002     4.1613287298407102E-003
   6.1200000000000004E-002     2.6225636661260541E-003
   6.1500000000000013E-002     6.5646021336090554E-004
   6.1800000000000008E-002    -1.6566004317497113E-003
   6.2100000000000002E-002    -4.1795319849109542E-003
   6.2399999999999997E-002    -6.7073229191219816E-003
   6.2700000000000006E-002    -8.9859498789851694E-003
   6.3000000000000000E-002    -1.0737304602732790E-002
   6.3300000000000009E-002    -1.1682047798894910E-002
   6.3600000000000004E-002    -1.1589095425709989E-002
   6.3899999999999998E-002    -1.0319976519598179E-002
   6.4199999999999993E-002    -7.8642143148492747E-003
   6.4500000000000002E-002    -4.3877712345998373E-003
   6.4800000000000010E-002    -2.7348837656041805E-004
   6.5100000000000005E-002     3.8838757270948758E-003
   6.5400000000000000E-002     7.3017529838222735E-003
   6.5700000000000008E-002     9.0510673267594505E-003
   6.5999999999999989E-002     8.1354508926884724E-003
   6.6299999999999998E-002     3.6128152540613658E-003
   6.6600000000000006E-002    -5.3048081462591257E-003
   6.6900000000000001E-002    -1.9113095411347477E-002
   6.7199999999999996E-002    -3.7905306794157406E-002
   6.7500000000000004E-002    -6.1252484812897245E-002
   6.7800000000000013E-002    -8.8225715121843740E-002
   6.8099999999999994E-002   -0.11737195932589975     
   6.8400000000000002E-002   -0.14678190805500388     
   6.8700000000000011E-002   -0.17421044722972684     
   6.8999999999999992E-002   -0.19728509995687615     
   6.9300000000000000E-002   -0.21368165182838780     
   6.9600000000000009E-002   -0.22133639212102987     
   6.9900000000000004E-002   -0.21869321987239965     
   7.0199999999999999E-002   -0.20484093832667505     
   7.0500000000000007E-002   -0.17958847483227550     
   7.0800000000000016E-002   -0.14356319029610248     
   7.1099999999999997E-002    -9.8175651882142015E-002
   7.1400000000000005E-002    -4.5530198400595287E-002
   7.1700000000000000E-002     1.1793251145187492E-002
   7.1999999999999995E-002     7.0836731822922550E-002
   7.2300000000000003E-002    0.12848956917862231     
   7.2600000000000012E-002    0.18172266911721718     
   7.2900000000000006E-002    0.22772829280139328     
   7.3200000000000001E-002    0.26410370206285316     
   7.3499999999999996E-002    0.28896887911808034     
   7.3800000000000004E-002    0.30103296052757672     
   7.4099999999999999E-002    0.29962029449356276     
   7.4400000000000008E-002    0.28475075595879573     
   7.4700000000000003E-002    0.25709510762401566     
   7.5000000000000011E-002    0.21802540965501732     
   7.5299999999999992E-002    0.16951994882461147     
   7.5600000000000001E-002    0.11417452156115293     
   7.5900000000000009E-002     5.5079165697624527E-002
   7.6200000000000004E-002    -4.2434231142560782E-003
   7.6499999999999999E-002    -6.0016941669277360E-002
   7.6800000000000007E-002   -0.10849379573451642     
   7.7099999999999988E-002   -0.14617218480397220     
   7.7399999999999997E-002   -0.17005867578257006     
   7.7700000000000005E-002   -0.17815466442011385     
   7.8000000000000014E-002   -0.16955647649175484     
   7.8299999999999995E-002   -0.14483108097028097     
   7.8600000000000003E-002   -0.10606538557147042     
   7.8900000000000012E-002    -5.6896655526565768E-002
   7.9199999999999993E-002    -2.3025655005892622E-003
   7.9500000000000001E-002     5.1840330909736484E-002
   7.9800000000000010E-002     9.9064347177229964E-002
   8.0100000000000018E-002    0.13313446175514795     
   8.0399999999999999E-002    0.14867307023091783     
   8.0700000000000008E-002    0.14175934011406754     
   8.1000000000000003E-002    0.11062236300137024     
   8.1299999999999997E-002     5.5775143958135320E-002
   8.1600000000000006E-002    -1.9533824075381623E-002
   8.1900000000000014E-002   -0.10976240574697847     
   8.2199999999999995E-002   -0.20729030644098928     
   8.2500000000000004E-002   -0.30317747032221432     
   8.2799999999999999E-002   -0.38815051253247862     
   8.3100000000000007E-002   -0.45312365619925238     
   8.3400000000000002E-002   -0.49053705046846896     
   8.3700000000000011E-002   -0.49483717930518911     
   8.4000000000000005E-002   -0.46316893938833337     
   8.4300000000000000E-002   -0.39564017862853429     
   8.4599999999999995E-002   -0.29504199147282145     
   8.4900000000000003E-002   -0.16689854382432656     
   8.5199999999999998E-002    -1.8450672378496180E-002
   8.5500000000000007E-002    0.14173743381737761     
   8.5800000000000001E-002    0.30485306727846273     
   8.6100000000000010E-002    0.46256393655649308     
   8.6399999999999991E-002    0.60740564998969926     
   8.6699999999999999E-002    0.73391340470110800     
   8.7000000000000008E-002    0.83780267812566722     
   8.7300000000000003E-002    0.91699152443270604     
   8.7599999999999997E-002    0.97065862056768681     
   8.7900000000000006E-002    0.99920347110544516     
   8.8200000000000014E-002     1.0038782996793636     
   8.8499999999999995E-002    0.98595303682098234     
   8.8800000000000004E-002    0.94711963582366332     
   8.9100000000000013E-002    0.88851147387080021     
   8.9399999999999993E-002    0.81117268700895795     
   8.9700000000000002E-002    0.71605785683082712     
   9.0000000000000011E-002    0.60399928490386412     
   9.0299999999999991E-002    0.47659446005443451     
   9.0600000000000000E-002    0.33551902011083279     
   9.0900000000000009E-002    0.18380374261627178     
   9.1200000000000017E-002     2.5287744565134385E-002
   9.1499999999999998E-002   -0.13535135511695012     
   9.1800000000000007E-002   -0.29233994475835196     
   9.2100000000000001E-002   -0.43975559411320858     
   9.2399999999999996E-002   -0.57131924063813155     
   9.2700000000000005E-002   -0.68135504140165482     
   9.3000000000000013E-002   -0.76510973884984979     
   9.3300000000000008E-002   -0.81918126741296515     
   9.3600000000000003E-002   -0.84209824403928324     
   9.3899999999999997E-002   -0.83396757396126087     
   9.4200000000000006E-002   -0.79729551699793533     
   9.4500000000000001E-002   -0.73613089807469345     
   9.4800000000000009E-002   -0.65623045054787643     
   9.5100000000000004E-002   -0.56427751132437742     
   9.5399999999999999E-002   -0.46756082255215015     
   9.5699999999999993E-002   -0.37316913378200178     
   9.6000000000000002E-002   -0.28784083326294663     
   9.6300000000000011E-002   -0.21677358457573592     
   9.6600000000000005E-002   -0.16402562530315704     
   9.6900000000000000E-002   -0.13179936821984545     
   9.7200000000000009E-002   -0.12045648779446499     
   9.7499999999999989E-002   -0.12883464079250428     
   9.7799999999999998E-002   -0.15395271727892115     
   9.8100000000000007E-002   -0.19205456324169226     
   9.8400000000000015E-002   -0.23846695294091447     
   9.8699999999999996E-002   -0.28790142519971379     
   9.9000000000000005E-002   -0.33547093143846651     
   9.9300000000000013E-002   -0.37631948075847427     
   9.9599999999999994E-002   -0.40623014398247048     
   9.9900000000000003E-002   -0.42182851822260226     
  0.10020000000000001        -0.42055449943362888     
  0.10049999999999999        -0.40104285477729007     
  0.10080000000000000        -0.36254541155756348     
  0.10110000000000001        -0.30581872860898018     
  0.10140000000000000        -0.23228793198825765     
  0.10170000000000000        -0.14450034641687026     
  0.10200000000000001         -4.5906719398353557E-002
  0.10230000000000002          5.9086216607461765E-002
  0.10260000000000000         0.16550725540225786     
  0.10290000000000001         0.26783299739583383     
  0.10320000000000000         0.36043556299478752     
  0.10350000000000001         0.43743792697248318     
  0.10380000000000000         0.49362580961611613     
  0.10410000000000001         0.52454275012179175     
  0.10440000000000001         0.52689326114056156     
  0.10470000000000000         0.49861658436798406     
  0.10500000000000000         0.43946770582471828     
  0.10530000000000000         0.35081558922530953     
  0.10560000000000000         0.23588257850256927     
  0.10590000000000001          9.9380710900457747E-002
  0.10620000000000000         -5.2558614124971606E-002
  0.10650000000000001        -0.21273137062189046     
  0.10679999999999999        -0.37326989953991951     
  0.10710000000000000        -0.52606565237474756     
  0.10740000000000001        -0.66286255194480959     
  0.10770000000000000        -0.77602738095891532     
  0.10800000000000000        -0.85865379755790117     
  0.10830000000000001        -0.90490633377884411     
  0.10859999999999999        -0.90996295906298319     
  0.10890000000000000        -0.87057246262082844     
  0.10920000000000001        -0.78529991793585741     
  0.10950000000000001        -0.65428987652046744     
  0.10979999999999999        -0.47979191622114525     
  0.11009999999999999        -0.26624129365924681     
  0.11040000000000001         -2.0181269355168729E-002
  0.11070000000000001         0.24923753247962221     
  0.11100000000000000         0.53122799285658240     
  0.11130000000000000         0.81271085535301013     
  0.11160000000000002          1.0795570128432805     
  0.11190000000000001          1.3166475528741466     
  0.11220000000000001          1.5092938161509024     
  0.11250000000000000          1.6438682270246245     
  0.11280000000000000          1.7090580891206599     
  0.11309999999999999          1.6971645621262306     
  0.11340000000000001          1.6042828172461663     
  0.11369999999999998          1.4316107779304990     
  0.11400000000000000          1.1860134089796803     
  0.11430000000000000         0.87876839644162175     
  0.11460000000000002         0.52633018936416087     
  0.11489999999999999         0.14832974533612964     
  0.11520000000000001        -0.23316530500156138     
  0.11550000000000001        -0.59529053637787521     
  0.11580000000000000        -0.91684191939979520     
  0.11609999999999999         -1.1787544050554766     
  0.11640000000000002         -1.3666404384505333     
  0.11670000000000001         -1.4711752671842069     
  0.11700000000000001         -1.4889022854304024     
  0.11730000000000000         -1.4226822605308103     
  0.11760000000000000         -1.2805834893096890     
  0.11789999999999999         -1.0757241709863701     
  0.11820000000000001        -0.82457651596419002     
  0.11850000000000001        -0.54542744984571867     
  0.11880000000000000        -0.25724839235727226     
  0.11910000000000000          2.2464278515976238E-002
  0.11940000000000002         0.27830544397654489     
  0.11970000000000001         0.49870266119840978     
  0.12000000000000001         0.67587969440965900     
  0.12030000000000000         0.80641208633504702     
  0.12060000000000000         0.89103365799522682     
  0.12089999999999999         0.93401173282887351     
  0.12119999999999999         0.94209741603442265     
  0.12150000000000001         0.92414002736257195     
  0.12180000000000001         0.88942446309796097     
  0.12210000000000000         0.84669688126343812     
  0.12239999999999999         0.80376778666186177     
  0.12270000000000002         0.76623865011753045     
  0.12300000000000001         0.73732467228457133     
  0.12330000000000001         0.71762750300941835     
  0.12360000000000000         0.70526479264582898     
  0.12390000000000000         0.69608233486261228     
  0.12419999999999999         0.68424071217847726     
  0.12450000000000001         0.66316961738250835     
  0.12480000000000001         0.62585159265980028     
  0.12509999999999999         0.56614159438242340     
  0.12540000000000001         0.47911607274422652     
  0.12570000000000003         0.36168472919998823     
  0.12600000000000000         0.21359861927777840     
  0.12630000000000002          3.6878883751975275E-002
  0.12659999999999999        -0.16351598051309685     
  0.12690000000000001        -0.38055465033903202     
  0.12719999999999998        -0.60486547533582546     
  0.12750000000000000        -0.82614707368426910     
  0.12780000000000002         -1.0334138155811083     
  0.12809999999999999         -1.2164285609649221     
  0.12840000000000001         -1.3660793414796804     
  0.12869999999999998         -1.4755180033413129     
  0.12900000000000000         -1.5406521836966838     
  0.12930000000000003         -1.5604683970758886     
  0.12959999999999999         -1.5369756303070097     
  0.12990000000000002         -1.4756013873434111     
  0.13019999999999998         -1.3835049878302772     
  0.13050000000000000         -1.2700680592130746     
  0.13080000000000003         -1.1447880037196680     
  0.13109999999999999         -1.0172504857803417     
  0.13140000000000002        -0.89544684946023878     
  0.13169999999999998        -0.78529556800256173     
  0.13200000000000001        -0.69000710369610530     
  0.13229999999999997        -0.60980097135769507     
  0.13260000000000000        -0.54205215197136236     
  0.13290000000000002        -0.48134195096381871     
  0.13319999999999999        -0.42066642198936177     
  0.13350000000000001        -0.35172741921612566     
  0.13380000000000003        -0.26614156254204713     
  0.13410000000000000        -0.15638685429874080     
  0.13440000000000002         -1.6700353945749081E-002
  0.13469999999999999         0.15649063740254196     
  0.13500000000000001         0.36317340306162460     
  0.13529999999999998         0.60056231869398879     
  0.13560000000000000         0.86228478062877223     
  0.13590000000000002          1.1387248582798899     
  0.13619999999999999          1.4176857707141572     
  0.13650000000000001          1.6846361423567380     
  0.13680000000000003          1.9239617350054123     
  0.13710000000000000          2.1196456294287329     
  0.13740000000000002          2.2566118705597487     
  0.13769999999999999          2.3220224381349803     
  0.13800000000000001          2.3058226065334742     
  0.13829999999999998          2.2029565452410980     
  0.13860000000000000          2.0129993474112502     
  0.13890000000000002          1.7417421023592725     
  0.13919999999999999          1.4008903883098167     
  0.13950000000000001          1.0075683480989062     
  0.13979999999999998         0.58380618580706689     
  0.14010000000000000         0.15466876273684055     
  0.14040000000000002        -0.25306267272065819     
  0.14069999999999999        -0.61352132849488217     
  0.14100000000000001        -0.90398088557281409     
  0.14130000000000004         -1.1067332291228809     
  0.14160000000000000         -1.2115402244148021     
  0.14189999999999997         -1.2158750317256932     
  0.14219999999999999         -1.1267766684766063     
  0.14250000000000002        -0.95919805966806293     
  0.14279999999999998        -0.73561744575371701     
  0.14310000000000000        -0.48397066698586155     
  0.14339999999999997        -0.23449096657038287     
  0.14369999999999999         -1.7710588211425821E-002
  0.14400000000000002         0.13955465187139046     
  0.14429999999999998         0.21590894103901098     
  0.14460000000000001         0.19835121920266516     
  0.14490000000000003          8.2845266171652235E-002
  0.14520000000000000        -0.12466162529158802     
  0.14550000000000002        -0.40927032256999707     
  0.14579999999999999        -0.74857966529191033     
  0.14610000000000001         -1.1147791392876534     
  0.14640000000000003         -1.4775840814787897     
  0.14670000000000000         -1.8072980173163500     
  0.14699999999999996         -2.0773129748192609     
  0.14729999999999999         -2.2664279510147844     
  0.14760000000000001         -2.3608187243469718     
  0.14789999999999998         -2.3540628323817683     
  0.14820000000000000         -2.2481339873959438     