  -1.4999999999999999E-002     0.0000000000000000     
  -1.4700000000000000E-002     0.0000000000000000     
  -1.4400000000000000E-002     0.0000000000000000     
  -1.4100000000000000E-002     0.0000000000000000     
  -1.3800000000000000E-002     0.0000000000000000     
  -1.3500000000000000E-002     0.0000000000000000     
  -1.3200000000000000E-002     0.0000000000000000     
  -1.2899999999999998E-002     0.0000000000000000     
  -1.2600000000000000E-002     0.0000000000000000     
  -1.2299999999999998E-002     0.0000000000000000     
  -1.2000000000000000E-002     0.0000000000000000     
  -1.1699999999999999E-002     0.0000000000000000     
  -1.1399999999999999E-002     0.0000000000000000     
  -1.1099999999999999E-002     0.0000000000000000     
  -1.0799999999999999E-002     0.0000000000000000     
  -1.0499999999999999E-002     0.0000000000000000     
  -1.0199999999999999E-002     0.0000000000000000     
  -9.8999999999999991E-003     0.0000000000000000     
  -9.5999999999999992E-003     0.0000000000000000     
  -9.2999999999999992E-003     0.0000000000000000     
  -8.9999999999999993E-003     0.0000000000000000     
  -8.6999999999999994E-003     0.0000000000000000     
  -8.3999999999999995E-003     0.0000000000000000     
  -8.0999999999999996E-003     0.0000000000000000     
  -7.7999999999999988E-003     0.0000000000000000     
  -7.4999999999999997E-003     0.0000000000000000     
  -7.1999999999999998E-003     0.0000000000000000     
  -6.8999999999999981E-003     0.0000000000000000     
  -6.5999999999999982E-003     0.0000000000000000     
  -6.3000000000000000E-003     0.0000000000000000     
  -6.0000000000000001E-003     0.0000000000000000     
  -5.6999999999999985E-003     0.0000000000000000     
  -5.3999999999999986E-003     0.0000000000000000     
  -5.1000000000000004E-003     0.0000000000000000     
  -4.7999999999999987E-003     0.0000000000000000     
  -4.5000000000000005E-003     0.0000000000000000     
  -4.1999999999999989E-003     0.0000000000000000     
  -3.8999999999999990E-003     0.0000000000000000     
  -3.5999999999999990E-003     0.0000000000000000     
  -3.2999999999999991E-003     0.0000000000000000     
  -2.9999999999999992E-003     0.0000000000000000     
  -2.6999999999999993E-003     0.0000000000000000     
  -2.3999999999999994E-003     0.0000000000000000     
  -2.0999999999999977E-003     0.0000000000000000     
  -1.7999999999999995E-003     0.0000000000000000     
  -1.4999999999999979E-003     0.0000000000000000     
  -1.1999999999999997E-003     0.0000000000000000     
  -8.9999999999999976E-004     0.0000000000000000     
  -5.9999999999999810E-004     0.0000000000000000     
  -2.9999999999999992E-004     0.0000000000000000     
   0.0000000000000000          0.0000000000000000     
   3.0000000000000165E-004     0.0000000000000000     
   5.9999999999999984E-004     0.0000000000000000     
   9.0000000000000149E-004     0.0000000000000000     
   1.2000000000000031E-003     0.0000000000000000     
   1.5000000000000013E-003     0.0000000000000000     
   1.8000000000000030E-003     0.0000000000000000     
   2.1000000000000012E-003     0.0000000000000000     
   2.3999999999999994E-003     0.0000000000000000     
   2.7000000000000010E-003     0.0000000000000000     
   2.9999999999999992E-003     0.0000000000000000     
   3.3000000000000008E-003     0.0000000000000000     
   3.6000000000000025E-003     0.0000000000000000     
   3.9000000000000007E-003     0.0000000000000000     
   4.2000000000000023E-003     0.0000000000000000     
   4.5000000000000005E-003     0.0000000000000000     
   4.7999999999999987E-003     0.0000000000000000     
   5.1000000000000004E-003     0.0000000000000000     
   5.4000000000000020E-003     0.0000000000000000     
   5.7000000000000037E-003     0.0000000000000000     
   5.9999999999999984E-003     0.0000000000000000     
   6.3000000000000000E-003     0.0000000000000000     
   6.6000000000000017E-003     0.0000000000000000     
   6.9000000000000034E-003     0.0000000000000000     
   7.2000000000000015E-003     0.0000000000000000     
   7.5000000000000032E-003     0.0000000000000000     
   7.8000000000000014E-003     0.0000000000000000     
   8.0999999999999996E-003     0.0000000000000000     
   8.4000000000000012E-003     0.0000000000000000     
   8.7000000000000029E-003     0.0000000000000000     
   9.0000000000000011E-003     0.0000000000000000     
   9.2999999999999992E-003     0.0000000000000000     
   9.6000000000000009E-003     0.0000000000000000     
   9.8999999999999991E-003     0.0000000000000000     
   1.0200000000000001E-002     0.0000000000000000     
   1.0500000000000002E-002     0.0000000000000000     
   1.0800000000000004E-002     0.0000000000000000     
   1.1099999999999999E-002     0.0000000000000000     
   1.1400000000000000E-002     0.0000000000000000     
   1.1700000000000002E-002     0.0000000000000000     
   1.2000000000000004E-002     0.0000000000000000     
   1.2300000000000002E-002     0.0000000000000000     
   1.2600000000000000E-002     0.0000000000000000     
   1.2900000000000002E-002     0.0000000000000000     
   1.3200000000000000E-002     0.0000000000000000     
   1.3500000000000002E-002     0.0000000000000000     
   1.3800000000000003E-002     0.0000000000000000     
   1.4100000000000001E-002     0.0000000000000000     
   1.4400000000000000E-002     0.0000000000000000     
   1.4700000000000001E-002     0.0000000000000000     
   1.4999999999999999E-002     0.0000000000000000     
   1.5300000000000001E-002     0.0000000000000000     
   1.5600000000000003E-002     0.0000000000000000     
   1.5899999999999997E-002     0.0000000000000000     
   1.6199999999999999E-002     0.0000000000000000     
   1.6500000000000001E-002     0.0000000000000000     
   1.6800000000000002E-002     0.0000000000000000     
   1.7100000000000004E-002     0.0000000000000000     
   1.7400000000000006E-002     0.0000000000000000     
   1.7700000000000000E-002     0.0000000000000000     
   1.8000000000000002E-002     0.0000000000000000     
   1.8300000000000004E-002     0.0000000000000000     
   1.8600000000000005E-002     0.0000000000000000     
   1.8900000000000000E-002     0.0000000000000000     
   1.9200000000000002E-002     0.0000000000000000     
   1.9500000000000003E-002     0.0000000000000000     
   1.9799999999999998E-002     0.0000000000000000     
   2.0100000000000000E-002     0.0000000000000000     
   2.0400000000000001E-002     0.0000000000000000     
   2.0700000000000003E-002     0.0000000000000000     
   2.0999999999999998E-002     0.0000000000000000     
   2.1299999999999999E-002     0.0000000000000000     
   2.1600000000000001E-002     0.0000000000000000     
   2.1900000000000003E-002     0.0000000000000000     
   2.2200000000000004E-002     0.0000000000000000     
   2.2500000000000006E-002     0.0000000000000000     
   2.2800000000000001E-002     0.0000000000000000     
   2.3100000000000002E-002     0.0000000000000000     
   2.3400000000000004E-002     0.0000000000000000     
   2.3699999999999999E-002     0.0000000000000000     
   2.4000000000000000E-002     0.0000000000000000     
   2.4300000000000002E-002     0.0000000000000000     
   2.4599999999999997E-002     0.0000000000000000     
   2.4900000000000005E-002     0.0000000000000000     
   2.5200000000000000E-002     0.0000000000000000     
   2.5499999999999995E-002     0.0000000000000000     
   2.5800000000000003E-002     0.0000000000000000     
   2.6099999999999998E-002     0.0000000000000000     
   2.6400000000000007E-002     0.0000000000000000     
   2.6700000000000002E-002     0.0000000000000000     
   2.6999999999999996E-002     0.0000000000000000     
   2.7300000000000005E-002     0.0000000000000000     
   2.7600000000000000E-002     0.0000000000000000     
   2.7900000000000008E-002     0.0000000000000000     
   2.8200000000000003E-002     0.0000000000000000     
   2.8499999999999998E-002     0.0000000000000000     
   2.8800000000000006E-002    -4.0573114319282582E-041
   2.9100000000000001E-002     3.3499812389261561E-040
   2.9400000000000003E-002    -2.8313473457195872E-038
   2.9700000000000004E-002    -6.5541031607486379E-037
   3.0000000000000006E-002     1.8817711370571583E-036
   3.0300000000000001E-002     3.0867197906922920E-035
   3.0600000000000002E-002    -1.3107202943911562E-034
   3.0900000000000004E-002     4.4891550005479898E-034
   3.1199999999999999E-002    -3.6737821195064635E-034
   3.1500000000000007E-002    -3.4055041586204017E-033
   3.1800000000000002E-002     1.7132780920872502E-032
   3.2099999999999997E-002    -5.8437914335061236E-032
   3.2400000000000005E-002     1.7153188306698686E-031
   3.2700000000000000E-002    -4.4353241738924872E-031
   3.3000000000000002E-002     9.8281896924876389E-031
   3.3300000000000003E-002    -1.7141527657264825E-030
   3.3599999999999998E-002     1.5982053373289246E-030
   3.3900000000000000E-002     3.5506172850713096E-030
   3.4200000000000001E-002    -2.5719706354742887E-029
   3.4500000000000003E-002     9.1270159177240914E-029
   3.4799999999999998E-002    -2.4090773727697083E-028
   3.5099999999999999E-002     4.9226861406708831E-028
   3.5400000000000001E-002    -6.9315734160774633E-028
   3.5699999999999996E-002     1.5938301311310806E-028
   3.6000000000000004E-002     2.9190716310018297E-027
   3.6299999999999999E-002    -1.1835413768737268E-026
   3.6600000000000008E-002     2.9803447603048621E-026
   3.6900000000000002E-002    -5.3006134471602956E-026
   3.7199999999999997E-002     5.4350792036176213E-026
   3.7500000000000006E-002     4.0270104157542192E-026
   3.7800000000000000E-002    -3.6437055794053791E-025
   3.8100000000000009E-002     1.0703639632420430E-024
   3.8400000000000004E-002    -2.1995177030223351E-024
   3.8699999999999998E-002     3.4977781820485734E-024
   3.9000000000000007E-002    -4.2167743818670603E-024
   3.9300000000000002E-002     2.1288420554134929E-024
   3.9600000000000003E-002     1.2071373173314850E-023
   3.9900000000000005E-002    -7.3007080235477485E-023
   4.0200000000000000E-002     2.6936733395142959E-022
   4.0500000000000001E-002    -7.0988215082072563E-022
   4.0800000000000003E-002     1.1722902521667660E-021
   4.1100000000000005E-002    -4.5548438073616790E-023
   4.1399999999999999E-002    -7.1006682784230171E-021
   4.1700000000000008E-002     2.5829730736455452E-020
   4.2000000000000003E-002    -4.8986893049159942E-020
   4.2299999999999997E-002     2.2445788814896183E-020
   4.2600000000000006E-002     1.8604734870573294E-019
   4.2900000000000001E-002    -7.0463728420010062E-019
   4.3200000000000002E-002     1.2576030295655663E-018
   4.3500000000000004E-002    -3.7330720479346387E-019
   4.3799999999999999E-002    -5.0903735616359336E-018
   4.4100000000000000E-002     1.7583947834373953E-017
   4.4400000000000002E-002    -2.8922440742792576E-017
   4.4700000000000004E-002     7.1041900005292191E-020
   4.4999999999999998E-002     1.4974428840843443E-016
   4.5300000000000000E-002    -4.5778899058518538E-016
   4.5600000000000002E-002     5.7905958614772444E-016
   4.5899999999999996E-002     7.2082078039722736E-016
   4.6200000000000005E-002    -4.9906415785800100E-015
   4.6500000000000000E-002     9.5972287313893641E-015
   4.6799999999999994E-002     4.1883799247712016E-016
   4.7100000000000003E-002    -4.7089642376101471E-014
   4.7399999999999998E-002     1.0410113718008970E-013
   4.7700000000000006E-002    -6.6876348840093485E-015
   4.8000000000000001E-002    -4.4561548489916411E-013
   4.8300000000000010E-002     8.5202428569121842E-013
   4.8600000000000004E-002     3.7586607081767733E-013
   4.8899999999999999E-002    -3.8660893162729591E-012
   4.9200000000000008E-002     3.2944431470365835E-012
   4.9500000000000002E-002     1.2737664911878826E-011
   4.9800000000000011E-002    -2.9668455653192250E-011
   5.0100000000000006E-002    -2.6617173444422091E-011
   5.0400000000000000E-002     1.9985441337965974E-010
   5.0700000000000009E-002    -2.4836377409363103E-010
   5.1000000000000004E-002    -3.6822231493156132E-010
   5.1299999999999998E-002     1.7389268933676548E-009
   5.1600000000000007E-002    -2.5618970357441934E-009
   5.1900000000000002E-002     6.1469163237171096E-011
   5.2200000000000010E-002     1.0122370131604890E-008
   5.2500000000000005E-002    -3.0046154721870402E-008
   5.2800000000000000E-002     2.9149551818939841E-008
   5.3099999999999994E-002     8.7995415196544610E-008
   5.3400000000000003E-002    -3.7315700718975241E-007
   5.3699999999999998E-002     9.4623669893501232E-008
   5.4000000000000006E-002     3.6608466238642065E-006
   5.4300000000000001E-002     9.1115412623879401E-006
   5.4599999999999996E-002     1.4874834366095207E-005
   5.4900000000000004E-002     2.0408524800163875E-005
   5.5199999999999999E-002     2.5259628224478897E-005
   5.5499999999999994E-002     3.4207924361204448E-005
   5.5800000000000002E-002     5.4338485569820769E-005
   5.6099999999999997E-002     8.8444298204687705E-005
   5.6400000000000006E-002     1.3515735834200262E-004
   5.6700000000000000E-002     1.9258807403783090E-004
   5.6999999999999995E-002     2.6918535824697448E-004
   5.7300000000000004E-002     3.8168477082992065E-004
   5.7599999999999998E-002     5.3934536855990752E-004
   5.7900000000000007E-002     7.4538280691932688E-004
   5.8200000000000002E-002     1.0070439485964874E-003
   5.8499999999999996E-002     1.3318089076588763E-003
   5.8800000000000005E-002     1.7206679347228724E-003
   5.9100000000000000E-002     2.1726859790094596E-003
   5.9400000000000008E-002     2.6790702917321198E-003
   5.9700000000000003E-002     3.2089212918488671E-003
   6.0000000000000012E-002     3.7139956397037252E-003
   6.0300000000000006E-002     4.1256971203260228E-003
   6.0600000000000001E-002     4.3388719602463002E-003
   6.0900000000000010E-002     4.2167882976815391E-003
   6.1200000000000004E-002     3.5952397663400401E-003
   6.1500000000000013E-002     2.2735562683952899E-003
   6.1800000000000008E-002     3.4250231142319957E-005
   6.2100000000000002E-002    -3.3351828514095569E-003
   6.2399999999999997E-002    -8.0418878356008014E-003
   6.2700000000000006E-002    -1.4251663975279452E-002
   6.3000000000000000E-002    -2.2041686971325993E-002
   6.3300000000000009E-002    -3.1358689753888308E-002
   6.3600000000000004E-002    -4.1956400125771162E-002
   6.3899999999999998E-002    -5.3377317727611721E-002
   6.4199999999999993E-002    -6.4946264469262605E-002
   6.4500000000000002E-002    -7.5718076084022395E-002
   6.4800000000000010E-002    -8.4475008084098829E-002
   6.5100000000000005E-002    -8.9797878797264780E-002
   6.5400000000000000E-002    -9.0140030634439761E-002
   6.5700000000000008E-002    -8.3926399269470070E-002
   6.5999999999999989E-002    -6.9703942706679178E-002
   6.6299999999999998E-002    -4.6302490727883894E-002
   6.6600000000000006E-002    -1.3025674452903410E-002
   6.6900000000000001E-002     3.0166279981059189E-002
   6.7199999999999996E-002     8.2525111008081770E-002
   6.7500000000000004E-002    0.14239872087751476     
   6.7800000000000013E-002    0.20718772175362524     
   6.8099999999999994E-002    0.27341895332286098     
   6.8400000000000002E-002    0.33687584346173760     
   6.8700000000000011E-002    0.39282674100864018     
   6.8999999999999992E-002    0.43636625470583346     
   6.9300000000000000E-002    0.46281012858985215     
   6.9600000000000009E-002    0.46810998051177588     
   6.9900000000000004E-002    0.44928356163509731     
   7.0199999999999999E-002    0.40478023412885478     
   7.0500000000000007E-002    0.33475442187773863     
   7.0800000000000016E-002    0.24126148167416506     
   7.1099999999999997E-002    0.12824018043644170     
   7.1400000000000005E-002     1.3558594126398763E-003
   7.1700000000000000E-002   -0.13234352988239334     
   7.1999999999999995E-002   -0.26488050201935343     
   7.2300000000000003E-002   -0.38791690703797654     
   7.2600000000000012E-002   -0.49339794404875648     
   7.2900000000000006E-002   -0.57426963047323576     
   7.3200000000000001E-002   -0.62496082299179323     
   7.3499999999999996E-002   -0.64189434613194651     
   7.3800000000000004E-002   -0.62383558246562132     
   7.4099999999999999E-002   -0.57201057058012261     
   7.4400000000000008E-002   -0.49001624931178733     
   7.4700000000000003E-002   -0.38350446169812286     
   7.5000000000000011E-002   -0.25984921700485147     
   7.5299999999999992E-002   -0.12748575969502457     
   7.5600000000000001E-002     4.7656632761188238E-003
   7.5900000000000009E-002    0.12824276718892225     
   7.6200000000000004E-002    0.23515948169868028     
   7.6499999999999999E-002    0.31911864643231658     
   7.6800000000000007E-002    0.37549569456281773     
   7.7099999999999988E-002    0.40162665372162104     
   7.7399999999999997E-002    0.39690779499963014     
   7.7700000000000005E-002    0.36271361428498650     
   7.8000000000000014E-002    0.30208034506445963     
   7.8299999999999995E-002    0.21943422000915680     
   7.8600000000000003E-002    0.12021534650943744     
   7.8900000000000012E-002     1.0340856213735348E-002
   7.9199999999999993E-002   -0.10417142836829166     
   7.9500000000000001E-002   -0.21751751180520323     
   7.9800000000000010E-002   -0.32442202652741758     
   8.0100000000000018E-002   -0.42038495029234152     
   8.0399999999999999E-002   -0.50180079157598145     
   8.0700000000000008E-002   -0.56597831549407229     
   8.1000000000000003E-002   -0.61106103557583280     
   8.1299999999999997E-002   -0.63609301377169625     
   8.1600000000000006E-002   -0.64080610307519859     
   8.1900000000000014E-002   -0.62544421332019406     
   8.2199999999999995E-002   -0.59083644835835014     
   8.2500000000000004E-002   -0.53806926358865459     
   8.2799999999999999E-002   -0.46853711526709707     
   8.3100000000000007E-002   -0.38390705520129703     
   8.3400000000000002E-002   -0.28598791798592477     
   8.3700000000000011E-002   -0.17685852710824090     
   8.4000000000000005E-002    -5.8611457646420312E-002
   8.4300000000000000E-002     6.6227949624544216E-002
   8.4599999999999995E-002    0.19490405395324750     
   8.4900000000000003E-002    0.32469129746891279     
   8.5199999999999998E-002    0.45230631387501063     
   8.5500000000000007E-002    0.57445820304471740     
   8.5800000000000001E-002    0.68776225881591369     
   8.6100000000000010E-002    0.78864087006503081     
   8.6399999999999991E-002    0.87369315986941565     
   8.6699999999999999E-002    0.93970087210002973     
   8.7000000000000008E-002    0.98381303085219463     
   8.7300000000000003E-002     1.0035011097771682     
   8.7599999999999997E-002    0.99706535141811248     
   8.7900000000000006E-002    0.96370148436796699     
   8.8200000000000014E-002    0.90330888263818987     
   8.8499999999999995E-002    0.81699237671656211     
   8.8800000000000004E-002    0.70700844568229737     
   8.9100000000000013E-002    0.57669517038617935     
   8.9399999999999993E-002    0.43048595708681037     
   8.9700000000000002E-002    0.27384155960048062     
   9.0000000000000011E-002    0.11285495376510291     
   9.0299999999999991E-002    -4.5953495161305910E-002
   9.0600000000000000E-002   -0.19577984615616928     
   9.0900000000000009E-002   -0.33035534929773563     
   9.1200000000000017E-002   -0.44409784900626326     
   9.1499999999999998E-002   -0.53245915069874483     
   9.1800000000000007E-002   -0.59261410099385203     
   9.2100000000000001E-002   -0.62338142895101523     
   9.2399999999999996E-002   -0.62557116916149114     
   9.2700000000000005E-002   -0.60188401030488103     
   9.3000000000000013E-002   -0.55679015023211220     
   9.3300000000000008E-002   -0.49623601547656193     
   9.3600000000000003E-002   -0.42708325517052320     
   9.3899999999999997E-002   -0.35661411568414225     
   9.4200000000000006E-002   -0.29183913210665513     
   9.4500000000000001E-002   -0.23904801427781830     
   9.4800000000000009E-002   -0.20309004447626974     
   9.5100000000000004E-002   -0.18683560542435101     
   9.5399999999999999E-002   -0.19120507086621238     
   9.5699999999999993E-002   -0.21495019506595808     
   9.6000000000000002E-002   -0.25452098193004091     
   9.6300000000000011E-002   -0.30448477737332752     
   9.6600000000000005E-002   -0.35842768781890660     
   9.6900000000000000E-002   -0.40892703731872282     
   9.7200000000000009E-002   -0.44820593276164566     
   9.7499999999999989E-002   -0.46939944151218171     
   9.7799999999999998E-002   -0.46656501120584593     
   9.8100000000000007E-002   -0.43545391424618296     
   9.8400000000000015E-002   -0.37391903314593467     
   9.8699999999999996E-002   -0.28206652827617162     
   9.9000000000000005E-002   -0.16257055876003115     
   9.9300000000000013E-002    -2.0112723384245051E-002
   9.9599999999999994E-002    0.13840845333634844     
   9.9900000000000003E-002    0.30429190331799566     
  0.10020000000000001         0.46777519376315901     
  0.10049999999999999         0.61842473442772206     
  0.10080000000000000         0.74575244608641189     
  0.10110000000000001         0.83977519488499963     
  0.10140000000000000         0.89184201359264570     
  0.10170000000000000         0.89522730229857883     
  0.10200000000000001         0.84525749270985584     
  0.10230000000000002         0.74018490225235556     
  0.10260000000000000         0.58146015091806036     
  0.10290000000000001         0.37350291297286997     
  0.10320000000000000         0.12403513372416436     
  0.10350000000000001        -0.15606649536547929     
  0.10380000000000000        -0.45363365879601047     
  0.10410000000000001        -0.75345465096627540     
  0.10440000000000001         -1.0388696611463204     
  0.10470000000000000         -1.2927450558328633     
  0.10500000000000000         -1.4988766979125905     
  0.10530000000000000         -1.6424539112719094     
  0.10560000000000000         -1.7107860783916333     
  0.10590000000000001         -1.6949397658297087     
  0.10620000000000000         -1.5899501596367103     
  0.10650000000000001         -1.3953604917806202     
  0.10679999999999999         -1.1156167707481555     
  0.10710000000000000        -0.75987810023772973     
  0.10740000000000001        -0.34218702781010252     
  0.10770000000000000         0.11973722204822186     
  0.10800000000000000         0.60516677735077118     
  0.10830000000000001          1.0911110646244369     
  0.10859999999999999          1.5539046295905719     
  0.10890000000000000          1.9707047200662804     
  0.10920000000000001          2.3208414975825051     
  0.10950000000000001          2.5865777014873590     
  0.10979999999999999          2.7547177623427839     
  0.11009999999999999          2.8176133989823637     
  0.11040000000000001          2.7729766855162534     
  0.11070000000000001          2.6243395867477193     
  0.11100000000000000          2.3809041345704207     
  0.11130000000000000          2.0564631574075141     
  0.11160000000000002          1.6687290793444416     
  0.11190000000000001          1.2379897060552421     
  0.11220000000000001         0.78566998297798452     
  0.11250000000000000         0.33321006655852614     
  0.11280000000000000         -9.9413335984764276E-002
  0.11309999999999999        -0.49464135855543967     
  0.11340000000000001        -0.83832270188111691     
  0.11369999999999998         -1.1201472033628426     
  0.11400000000000000         -1.3338851172626953     
  0.11430000000000000         -1.4772767723576554     
  0.11460000000000002         -1.5517819458867823     
  0.11489999999999999         -1.5622179328141770     
  0.11520000000000001         -1.5156736727805209     
  0.11550000000000001         -1.4209744015081998     
  0.11580000000000000         -1.2885649904547056     
  0.11609999999999999         -1.1286656687333878     
  0.11640000000000002        -0.95150902181700725     
  0.11670000000000001        -0.76708301482608632     
  0.11700000000000001        -0.58418901435708437     
  0.11730000000000000        -0.41077607786368076     
  0.11760000000000000        -0.25358207007426892     
  0.11789999999999999        -0.11835890244921288     
  0.11820000000000001         -9.9708284357720705E-003
  0.11850000000000001          6.7925574152590637E-002
  0.11880000000000000         0.11266713176940474     
  0.11910000000000000         0.12253804796448070     
  0.11940000000000002          9.7159411182735800E-002
  0.11970000000000001          3.7743126814310586E-002
  0.12000000000000001         -5.2991040250609786E-002
  0.12030000000000000        -0.17057825379757682     
  0.12060000000000000        -0.30831116417333476     
  0.12089999999999999        -0.45775559578920261     
  0.12119999999999999        -0.60912515829737335     
  0.12150000000000001        -0.75118368286822634     
  0.12180000000000001        -0.87215527439742468     
  0.12210000000000000        -0.96087254002502087     
  0.12239999999999999         -1.0074239735544297     
  0.12270000000000002         -1.0037328411574225     
  0.12300000000000001        -0.94482281155898185     
  0.12330000000000001        -0.82939386276362592     
  0.12360000000000000        -0.66006452552265071     
  0.12390000000000000        -0.44306677310962916     
  0.12419999999999999        -0.18819966143889119     
  0.12450000000000001          9.1607441923955285E-002
  0.12480000000000001         0.38155485458887906     
  0.12509999999999999         0.66631632664184870     
  0.12540000000000001         0.93055841200834943     
  0.12570000000000003          1.1600281649189612     
  0.12600000000000000          1.3429579550860473     
  0.12630000000000002          1.4705759448033120     
  0.12659999999999999          1.5368723249355778     
  0.12690000000000001          1.5392660876334427     
  0.12719999999999998          1.4786470283097128     
  0.12750000000000000          1.3586027399678673     
  0.12780000000000002          1.1849428440735039     
  0.12809999999999999         0.96580668335362474     
  0.12840000000000001         0.71092238855590661     
  0.12869999999999998         0.43091546509567458     
  0.12900000000000000         0.13749307765805074     
  0.12930000000000003        -0.15698401788590088     
  0.12959999999999999        -0.44011167555345276     
  0.12990000000000002        -0.69949900495050521     
  0.13019999999999998        -0.92309710640474085     
  0.13050000000000000         -1.1000218703990678     
  0.13080000000000003         -1.2212934693897308     
  0.13109999999999999         -1.2800553297285440     
  0.13140000000000002         -1.2725041227570315     
  0.13169999999999998         -1.1987630666742657     
  0.13200000000000001         -1.0626850989892715     
  0.13229999999999997        -0.87204697413537080     
  0.13260000000000000        -0.63869244764031108     
  0.13290000000000002        -0.37741376165399110     
  0.13319999999999999        -0.10490557172645917     
  0.13350000000000001         0.16114635764562502     
  0.13380000000000003         0.40347951453848707     
  0.13410000000000000         0.60662391161520557     
  0.13440000000000002         0.75862925075607945     
  0.13469999999999999         0.85107603526551756     
  0.13500000000000001         0.87990359964563480     
  0.13529999999999998         0.84609110382966246     
  0.13560000000000000         0.75449706602938116     
  0.13590000000000002         0.61378647199310599     
  0.13619999999999999         0.43515572989621099     
  0.13650000000000001         0.23138139477059821     
  0.13680000000000003          1.6198246882885507E-002
  0.13710000000000000        -0.19777466062634358     
  0.13740000000000002        -0.39891262916229442     
  0.13769999999999999        -0.57721718881755080     
  0.13800000000000001        -0.72488368254871993     
  0.13829999999999998        -0.83670194238516604     
  0.13860000000000000        -0.90928998019710816     
  0.13890000000000002        -0.94093263237032931     
  0.13919999999999999        -0.93189108582789770     
  0.13950000000000001        -0.88375926972450980     
  0.13979999999999998        -0.79886580375431793     
  0.14010000000000000        -0.68057351978627589     
  0.14040000000000002        -0.53302758701901620     
  0.14069999999999999        -0.36109310757231378     
  0.14100000000000001        -0.17014030168974115     
  0.14130000000000004          3.3650700969646181E-002
  0.14160000000000000         0.24338079077297026     
  0.14189999999999997         0.45166122347805976     
  0.14219999999999999         0.65061256853163796     
  0.14250000000000002         0.83217161886728042     
  0.14279999999999998         0.98835690477808269     
  0.14310000000000000          1.1117326031307400     
  0.14339999999999997          1.1958876107176299     
  0.14369999999999999          1.2357395282806665     
  0.14400000000000002          1.2281101901180538     
  0.14429999999999998          1.1722978516878295     
  0.14460000000000001          1.0697193631496267     
  0.14490000000000003         0.92439754211949543     
  0.14520000000000000         0.74297264226777293     
  0.14550000000000002         0.53386807247330204     
  0.14579999999999999         0.30727336486797496     
  0.14610000000000001          7.4017005352219695E-002
  0.14640000000000003        -0.15467542967381898     
  0.14670000000000000        -0.36810955942897255     
  0.14699999999999996        -0.55728663828067371     
  0.14729999999999999        -0.71471122605413751     
  0.14760000000000001        -0.83523050228895068     
  0.14789999999999998        -0.91608139801234112     
  0.14820000000000000        -0.95705723685206134     