  -1.4999999999999999E-002     0.0000000000000000     
  -1.4700000000000000E-002     0.0000000000000000     
  -1.4400000000000000E-002     3.5467386843405818E-028
  -1.4100000000000000E-002     1.1506891815540636E-024
  -1.3800000000000000E-002    -6.0262511262187684E-023
  -1.3500000000000000E-002    -4.1828852161723873E-021
  -1.3200000000000000E-002     5.0906626254227170E-020
  -1.2899999999999998E-002     1.2642066707274128E-019
  -1.2600000000000000E-002    -1.8877403873750876E-018
  -1.2299999999999998E-002    -6.4635406279504002E-019
  -1.2000000000000000E-002     2.1706182661145347E-017
  -1.1699999999999999E-002     1.4122795596948616E-017
  -1.1399999999999999E-002    -1.3346738272876982E-016
  -1.1099999999999999E-002    -2.7088775436301312E-016
  -1.0799999999999999E-002     5.1084605386734999E-016
  -1.0499999999999999E-002     2.3524339489056061E-015
  -1.0199999999999999E-002    -5.6237131812447922E-016
  -9.8999999999999991E-003    -1.2505697197296998E-014
  -9.5999999999999992E-003    -2.3396232793691406E-015
  -9.2999999999999992E-003     1.9350421928102836E-014
  -8.9999999999999993E-003     7.4030376084169032E-014
  -8.6999999999999994E-003     4.8561995131947040E-015
  -8.3999999999999995E-003    -3.7910853676268885E-013
  -8.0999999999999996E-003     2.1834088881903252E-014
  -7.7999999999999988E-003     3.1347659341529815E-013
  -7.4999999999999997E-003     8.4114676645740003E-013
  -7.1999999999999998E-003     1.6414980724371001E-012
  -6.8999999999999981E-003    -5.6523251213035423E-012
  -6.5999999999999982E-003    -2.3054053540965200E-012
  -6.3000000000000000E-003     6.3646433011195321E-012
  -6.0000000000000001E-003    -2.2582980114047525E-012
  -5.6999999999999985E-003     3.4910148737038754E-011
  -5.3999999999999986E-003    -3.1938130535754719E-011
  -5.1000000000000004E-003    -7.1955872557342029E-011
  -4.7999999999999987E-003     8.7873128534110314E-011
  -4.5000000000000005E-003    -1.0753071219407093E-010
  -4.1999999999999989E-003     2.5192679373180724E-010
  -3.8999999999999990E-003     1.5004587768399940E-010
  -3.5999999999999990E-003    -7.6241265147784375E-010
  -3.2999999999999991E-003     5.7108826399624276E-010
  -2.9999999999999992E-003    -7.5379773307615539E-010
  -2.6999999999999993E-003     3.3041930146872620E-010
  -2.3999999999999994E-003     2.8901464060167911E-009
  -2.0999999999999977E-003    -4.0293232578422145E-009
  -1.7999999999999995E-003     2.7175825934136811E-009
  -1.4999999999999979E-003    -2.9904405249041178E-009
  -1.1999999999999997E-003    -5.9559985033931297E-009
  -8.9999999999999976E-004     2.1027658597350284E-008
  -5.9999999999999810E-004    -2.2141118552863921E-008
  -2.9999999999999992E-004     1.3998824302148989E-008
   0.0000000000000000          2.5513018316255134E-008
   3.0000000000000165E-004    -1.1040652148070838E-007
   5.9999999999999984E-004     1.1836107685622284E-007
   9.0000000000000149E-004     4.0593131781447898E-008
   1.2000000000000031E-003    -2.6485256692951541E-007
   1.5000000000000013E-003     3.4211187329774156E-007
   1.8000000000000030E-003    -7.1160664524491564E-009
   2.1000000000000012E-003    -5.5845602014246411E-007
   2.3999999999999994E-003     5.7523814004904436E-007
   2.7000000000000010E-003     6.7581527183826525E-008
   2.9999999999999992E-003    -5.6266083933613577E-007
   3.3000000000000008E-003     5.5349649978512371E-007
   3.6000000000000025E-003    -2.1367892059079769E-007
   3.9000000000000007E-003    -2.7600313394734941E-007
   4.2000000000000023E-003     5.9488543712033418E-007
   4.5000000000000005E-003    -5.3433719857061418E-007
   4.7999999999999987E-003     4.1250344846899645E-008
   5.1000000000000004E-003     6.0124808323274887E-007
   5.4000000000000020E-003    -5.9345418053224748E-007
   5.7000000000000037E-003     1.3331976703107235E-008
   5.9999999999999984E-003     2.0089514050530230E-007
   6.3000000000000000E-003    -2.1741188693606130E-007
   6.6000000000000017E-003     4.4013474336663441E-007
   6.9000000000000034E-003    -1.6846680552151409E-007
   7.2000000000000015E-003    -4.2103679630889835E-007
   7.5000000000000032E-003     1.3217511496972495E-006
   7.8000000000000014E-003     3.2828109066191782E-006
   8.0999999999999996E-003     5.5455120954744698E-006
   8.4000000000000012E-003     8.1853896016946037E-006
   8.7000000000000029E-003     1.1010619394212415E-005
   9.0000000000000011E-003     1.7188918787301085E-005
   9.2999999999999992E-003     2.8582391805988697E-005
   9.6000000000000009E-003     4.1455339853632902E-005
   9.8999999999999991E-003     5.2203078879200814E-005
   1.0200000000000001E-002     6.3941581376454509E-005
   1.0500000000000002E-002     8.0648213351399919E-005
   1.0800000000000004E-002     8.8410088699230024E-005
   1.1099999999999999E-002     7.8396915795434576E-005
   1.1400000000000000E-002     5.5440712818151691E-005
   1.1700000000000002E-002    -7.2495234860986332E-006
   1.2000000000000004E-002    -1.3395951874910504E-004
   1.2300000000000002E-002    -3.4890923550544810E-004
   1.2600000000000000E-002    -7.2700489839368210E-004
   1.2900000000000002E-002    -1.3639497391970999E-003
   1.3200000000000000E-002    -2.4014494942314318E-003
   1.3500000000000002E-002    -4.0244469578133322E-003
   1.3800000000000003E-002    -6.5256431957087689E-003
   1.4100000000000001E-002    -1.0302387219609294E-002
   1.4400000000000000E-002    -1.5712883387234054E-002
   1.4700000000000001E-002    -2.3292854522533345E-002
   1.4999999999999999E-002    -3.3780958640945748E-002
   1.5300000000000001E-002    -4.7872413145240850E-002
   1.5600000000000003E-002    -6.6331595452816847E-002
   1.5899999999999997E-002    -9.0024456749529122E-002
   1.6199999999999999E-002   -0.11977727015243744     
   1.6500000000000001E-002   -0.15619839791860565     
   1.6800000000000002E-002   -0.19957229576754998     
   1.7100000000000004E-002   -0.24974440140586815     
   1.7400000000000006E-002   -0.30585673576693073     
   1.7700000000000000E-002   -0.36621230990564146     
   1.8000000000000002E-002   -0.42795747693592795     
   1.8300000000000004E-002   -0.48696655233740782     
   1.8600000000000005E-002   -0.53789967517276849     
   1.8900000000000000E-002   -0.57392865651417424     
   1.9200000000000002E-002   -0.58699065682015583     
   1.9500000000000003E-002   -0.56830334887680889     
   1.9799999999999998E-002   -0.50858903126151123     
   2.0100000000000000E-002   -0.39888921523874893     
   2.0400000000000001E-002   -0.23154784806108508     
   2.0700000000000003E-002    -1.2407652949083655E-003
   2.0999999999999998E-002    0.29414758259334767     
   2.1299999999999999E-002    0.65234458783422378     
   2.1600000000000001E-002     1.0657286696517851     
   2.1900000000000003E-002     1.5209305359787544     
   2.2200000000000004E-002     1.9986680841356870     
   2.2500000000000006E-002     2.4740505335650838     
   2.2800000000000001E-002     2.9177625316961726     
   2.3100000000000002E-002     3.2976765787984359     
   2.3400000000000004E-002     3.5810470749656953     
   2.3699999999999999E-002     3.7371661838903409     
   2.4000000000000000E-002     3.7396381077182062     
   2.4300000000000002E-002     3.5692618060801862     
   2.4599999999999997E-002     3.2165322454138181     
   2.4900000000000005E-002     2.6826360349907867     
   2.5200000000000000E-002     1.9805619806399322     
   2.5499999999999995E-002     1.1343667554978343     
   2.5800000000000003E-002    0.17810711265577583     
   2.6099999999999998E-002   -0.84655011217216214     
   2.6400000000000007E-002    -1.8939935074317911     
   2.6700000000000002E-002    -2.9177630105896095     
   2.6999999999999996E-002    -3.8738787382253759     
   2.7300000000000005E-002    -4.7246341957924782     
   2.7600000000000000E-002    -5.4408054642360524     
   2.7900000000000008E-002    -6.0031242691402813     
   2.8200000000000003E-002    -6.4027915343437272     
   2.8499999999999998E-002    -6.6408434269667360     
   2.8800000000000006E-002    -6.7260108353567931     
   2.9100000000000001E-002    -6.6720195171739913     
   2.9400000000000003E-002    -6.4950299606276047     
   2.9700000000000004E-002    -6.2106228199670683     
   3.0000000000000006E-002    -5.8318004908982379     
   3.0300000000000001E-002    -5.3678274426206167     
   3.0600000000000002E-002    -4.8229069947069201     
   3.0900000000000004E-002    -4.1975507934404712     
   3.1199999999999999E-002    -3.4898185884777182     
   3.1500000000000007E-002    -2.6976862060984428     
   3.1800000000000002E-002    -1.8214658554631482     
   3.2099999999999997E-002   -0.86810481565588660     
   3.2400000000000005E-002    0.14741327416786873     
   3.2700000000000000E-002     1.2005012147020828     
   3.3000000000000002E-002     2.2556948828827368     
   3.3300000000000003E-002     3.2661805371638648     
   3.3599999999999998E-002     4.1784296299828458     
   3.3900000000000000E-002     4.9335456193844704     
   3.4200000000000001E-002     5.4728660904529267     
   3.4500000000000003E-002     5.7431431143041420     
   3.4799999999999998E-002     5.7030268028457414     
   3.5099999999999999E-002     5.3308840078167217     
   3.5400000000000001E-002     4.6299658049407348     
   3.5699999999999996E-002     3.6343150296312867     
   3.6000000000000004E-002     2.4113087727192433     
   3.6299999999999999E-002     1.0627077798634299     
   3.6600000000000008E-002   -0.27846787490126174     
   3.6900000000000002E-002    -1.4547569944635175     
   3.7199999999999997E-002    -2.2940092340122442     
   3.7500000000000006E-002    -2.6239712519705463     
   3.7800000000000000E-002    -2.2891717223489585     
   3.8100000000000009E-002    -1.1691210469677598     
   3.8400000000000004E-002    0.80413835472231898     
   3.8699999999999998E-002     3.6291740043904048     
   3.9000000000000007E-002     7.2250614502279324     
   3.9300000000000002E-002     11.425627769606141     
   3.9600000000000003E-002     15.983805747941977     
   3.9900000000000005E-002     20.583555344046044     
   4.0200000000000000E-002     24.860139998510373     
   4.0500000000000001E-002     28.426389870789297     
   4.0800000000000003E-002     30.908155635898947     
   4.1100000000000005E-002     31.976724828228072     
   4.1399999999999999E-002     31.381908618599319     
   4.1700000000000008E-002     28.981287190883762     
   4.2000000000000003E-002     24.757732554097633     
   4.2299999999999997E-002     18.827833301498615     
   4.2600000000000006E-002     11.436089595053838     
   4.2900000000000001E-002     2.9423625725754912     
   4.3200000000000002E-002    -6.2072224941818233     
   4.3500000000000004E-002    -15.517432304474964     
   4.3799999999999999E-002    -24.478086620098527     
   4.4100000000000000E-002    -32.608383378756869     
   4.4400000000000002E-002    -39.488647704398886     
   4.4700000000000004E-002    -44.794521608357520     
   4.4999999999999998E-002    -48.312923729462959     
   4.5300000000000000E-002    -49.948219606633636     
   4.5600000000000002E-002    -49.722942657038509     
   4.5899999999999996E-002    -47.761909776051212     
   4.6200000000000005E-002    -44.276691704886112     
   4.6500000000000000E-002    -39.535473107163618     
   4.6799999999999994E-002    -33.840385637625999     
   4.7100000000000003E-002    -27.497663658125781     
   4.7399999999999998E-002    -20.796537517451139     
   4.7700000000000006E-002    -13.999926643014147     
   4.8000000000000001E-002    -7.3269868245414127     
   4.8300000000000010E-002   -0.94995796288346412     
   4.8600000000000004E-002     4.9980349936922988     
   4.8899999999999999E-002     10.425253939822840     
   4.9200000000000008E-002     15.266652207213058     
   4.9500000000000002E-002     19.480030184052524     
   4.9800000000000011E-002     23.035579825762866     
   5.0100000000000006E-002     25.913501899606672     
   5.0400000000000000E-002     28.098203830594741     
   5.0700000000000009E-002     29.576643168729188     
   5.1000000000000004E-002     30.344057264587434     
   5.1299999999999998E-002     30.403911770863672     
   5.1600000000000007E-002     29.774803336749081     
   5.1900000000000002E-002     28.491068052529275     
   5.2200000000000010E-002     26.605634843086307     
   5.2500000000000005E-002     24.193784852131756     
   5.2800000000000000E-002     21.346014143547535     
   5.3099999999999994E-002     18.170202356695356     
   5.3400000000000003E-002     14.787248692667875     
   5.3699999999999998E-002     11.321700156893360     
   5.4000000000000006E-002     7.8970046450621210     
   5.4300000000000001E-002     4.6284294346769679     
   5.4599999999999996E-002     1.6166113661270949     
   5.4900000000000004E-002    -1.0575957403455498     
   5.5199999999999999E-002    -3.3373534913102656     
   5.5499999999999994E-002    -5.1916914322568131     
   5.5800000000000002E-002    -6.6183200296493494     
   5.6099999999999997E-002    -7.6392426957345254     
   5.6400000000000006E-002    -8.2975435756394909     
   5.6700000000000000E-002    -8.6531429806706122     
   5.6999999999999995E-002    -8.7773581072014029     
   5.7300000000000004E-002    -8.7456484359492332     
   5.7599999999999998E-002    -8.6314459357808868     
   5.7900000000000007E-002    -8.4983053709575831     
   5.8200000000000002E-002    -8.3951626318885264     
   5.8499999999999996E-002    -8.3518047824351935     
   5.8800000000000005E-002    -8.3802357214433929     
   5.9100000000000000E-002    -8.4720039868786046     
   5.9400000000000008E-002    -8.6044006857724025     
   5.9700000000000003E-002    -8.7408571760038516     
   6.0000000000000012E-002    -8.8360910935084735     
   6.0300000000000006E-002    -8.8410921612817077     
   6.0600000000000001E-002    -8.7111807374706469     
   6.0900000000000010E-002    -8.4102573880070128     
   6.1200000000000004E-002    -7.9123135066666839     
   6.1500000000000013E-002    -7.2107644490096208     
   6.1800000000000008E-002    -6.3089814537868190     
   6.2100000000000002E-002    -5.2274956987926524     
   6.2399999999999997E-002    -4.0007119389388484     
   6.2700000000000006E-002    -2.6729664935134623     
   6.3000000000000000E-002    -1.2988996558449226     
   6.3300000000000009E-002     6.4971471977625012E-002
   6.3600000000000004E-002     1.3615821700879489     
   6.3899999999999998E-002     2.5396616627090181     
   6.4199999999999993E-002     3.5559027419330556     
   6.4500000000000002E-002     4.3750524788880254     
   6.4800000000000010E-002     4.9758611025065331     
   6.5100000000000005E-002     5.3514161427732390     
   6.5400000000000000E-002     5.5089397754698100     
   6.5700000000000008E-002     5.4689798673711287     
   6.5999999999999989E-002     5.2629599874138489     
   6.6299999999999998E-002     4.9311099332895596     
   6.6600000000000006E-002     4.5180802599104437     
   6.6900000000000001E-002     4.0700702894597711     
   6.7199999999999996E-002     3.6313042842546435     
   6.7500000000000004E-002     3.2407398403223371     
   6.7800000000000013E-002     2.9273500603713529     
   6.8099999999999994E-002     2.7092683463669012     
   6.8400000000000002E-002     2.5931501531283745     
   6.8700000000000011E-002     2.5723822260271465     
   6.8999999999999992E-002     2.6325595528313346     
   6.9300000000000000E-002     2.7494776407241615     
   6.9600000000000009E-002     2.8946042228424407     
   6.9900000000000004E-002     3.0361566718957205     
   7.0199999999999999E-002     3.1391806782764067     
   7.0500000000000007E-002     3.1756339255285670     
   7.0800000000000016E-002     3.1203873336575758     
   7.1099999999999997E-002     2.9569025210088657     
   7.1400000000000005E-002     2.6761760865444160     
   7.1700000000000000E-002     2.2779691348362503     
   7.1999999999999995E-002     1.7706248857831131     
   7.2300000000000003E-002     1.1681703390488045     
   7.2600000000000012E-002    0.49340981479644952     
   7.2900000000000006E-002   -0.22436745629109575     
   7.3200000000000001E-002   -0.95252800559196082     
   7.3499999999999996E-002    -1.6559226610500850     
   7.3800000000000004E-002    -2.3019526140245157     
   7.4099999999999999E-002    -2.8604366946039730     
   7.4400000000000008E-002    -3.3075852585325856     
   7.4700000000000003E-002    -3.6236264912559255     
   7.5000000000000011E-002    -3.7998934007324610     
   7.5299999999999992E-002    -3.8370282865909191     
   7.5600000000000001E-002    -3.7469315738254627     
   7.5900000000000009E-002    -3.5509343344253481     
   7.6200000000000004E-002    -3.2772932232524359     
   7.6499999999999999E-002    -2.9597189587274002     
   7.6800000000000007E-002    -2.6341920040630979     
   7.7099999999999988E-002    -2.3359086637732522     
   7.7399999999999997E-002    -2.0941376796879609     
   7.7700000000000005E-002    -1.9291545255341278     
   7.8000000000000014E-002    -1.8517649274885037     
   7.8299999999999995E-002    -1.8592357740720464     
   7.8600000000000003E-002    -1.9373380059388881     
   7.8900000000000012E-002    -2.0610718851239045     
   7.9199999999999993E-002    -2.1950059072014989     
   7.9500000000000001E-002    -2.2997002745745974     
   7.9800000000000010E-002    -2.3342530876202723     
   8.0100000000000018E-002    -2.2626555112955815     
   8.0399999999999999E-002    -2.0570619241835608     
   8.0700000000000008E-002    -1.7013993377368526     
   8.1000000000000003E-002    -1.1927678667361847     
   8.1299999999999997E-002   -0.54421455080567516     
   8.1600000000000006E-002    0.21556329795934653     
   8.1900000000000014E-002     1.0476305544461701     
   8.2199999999999995E-002     1.9022737854665526     
   8.2500000000000004E-002     2.7253313229061948     
   8.2799999999999999E-002     3.4630193920233432     
   8.3100000000000007E-002     4.0668616542095837     
   8.3400000000000002E-002     4.4976482665212680     
   8.3700000000000011E-002     4.7298722554274004     
   8.4000000000000005E-002     4.7533736515244600     
   8.4300000000000000E-002     4.5713839802356402     
   8.4599999999999995E-002     4.2026291139412191     
   8.4900000000000003E-002     3.6775088522289789     
   8.5199999999999998E-002     3.0367939644537167     
   8.5500000000000007E-002     2.3267862925201070     
   8.5800000000000001E-002     1.5942796550861842     
   8.6100000000000010E-002    0.88241029162526874     
   8.6399999999999991E-002    0.22809725983794407     
   8.6699999999999999E-002   -0.33865809768440169     
   8.7000000000000008E-002   -0.79708690017202144     
   8.7300000000000003E-002    -1.1348638608637356     
   8.7599999999999997E-002    -1.3511121358728226     
   8.7900000000000006E-002    -1.4536919684531369     
   8.8200000000000014E-002    -1.4569984762814205     
   8.8499999999999995E-002    -1.3791489680519391     
   8.8800000000000004E-002    -1.2407105036354666     
   8.9100000000000013E-002    -1.0617647225644342     
   8.9399999999999993E-002   -0.86477071481675816     
   8.9700000000000002E-002   -0.66985673040363458     
   9.0000000000000011E-002   -0.49572494847128235     
   9.0299999999999991E-002   -0.35578605647058043     
   9.0600000000000000E-002   -0.25885662468316978     
   9.0900000000000009E-002   -0.20868018266016516     
   9.1200000000000017E-002   -0.20585328355341645     
   9.1499999999999998E-002   -0.24767851901488966     
   9.1800000000000007E-002   -0.32941267030192412     
   9.2100000000000001E-002   -0.44137624099638900     
   9.2399999999999996E-002   -0.57122963913900426     
   9.2700000000000005E-002   -0.70372337422429809     
   9.3000000000000013E-002   -0.82454246699913070     
   9.3300000000000008E-002   -0.92439938110901732     
   9.3600000000000003E-002   -0.99369234437470133     
   9.3899999999999997E-002    -1.0278456271615659     
   9.4200000000000006E-002    -1.0225237665244735     
   9.4500000000000001E-002   -0.97563338808292344     
   9.4800000000000009E-002   -0.88899946708719868     
   9.5100000000000004E-002   -0.76932830086899406     
   9.5399999999999999E-002   -0.62717146095850829     
   9.5699999999999993E-002   -0.47338670810387978     
   9.6000000000000002E-002   -0.31707668498392971     
   9.6300000000000011E-002   -0.16590558077463496     
   9.6600000000000005E-002    -2.6203354966885428E-002
   9.6900000000000000E-002     9.3250066240002746E-002
   9.7200000000000009E-002    0.18567039123111861     
   9.7499999999999989E-002    0.24725701010038523     
   9.7799999999999998E-002    0.27731108807162080     
   9.8100000000000007E-002    0.28038007185884650     
   9.8400000000000015E-002    0.26034063249022604     
   9.8699999999999996E-002    0.22109921381375564     
   9.9000000000000005E-002    0.16780655149956802     
   9.9300000000000013E-002    0.10713492372156587     
   9.9599999999999994E-002     4.6874135979456028E-002
   9.9900000000000003E-002    -4.6771098268908722E-003
  0.10020000000000001         -4.0153093890478157E-002
  0.10049999999999999         -5.5935681391318638E-002
  0.10080000000000000         -5.0942429033258588E-002
  0.10110000000000001         -2.3981757888313245E-002
  0.10140000000000000          2.3851381559165594E-002
  0.10170000000000000          8.9798622135580583E-002
  0.10200000000000001         0.16956539512412036     
  0.10230000000000002         0.25508055176087296     
  0.10260000000000000         0.33848762635651602     
  0.10290000000000001         0.41246029910242327     
  0.10320000000000000         0.47132712833597262     
  0.10350000000000001         0.51245159175939292     
  0.10380000000000000         0.53455311328571109     
  0.10410000000000001         0.53539264452883983     
  0.10440000000000001         0.51574367519816477     
  0.10470000000000000         0.47866538409800191     
  0.10500000000000000         0.42995864408729018     
  0.10530000000000000         0.37708440679129290     
  0.10560000000000000         0.32597658260140017     
  0.10590000000000001         0.28271880919024672     
  0.10620000000000000         0.24741317474959038     
  0.10650000000000001         0.22288625093302913     
  0.10679999999999999         0.21127873845389639     
  0.10710000000000000         0.21428813251397588     
  0.10740000000000001         0.23259173537027353     
  0.10770000000000000         0.26232987821006687     
  0.10800000000000000         0.29944372341917574     
  0.10830000000000001         0.33908626626876304     
  0.10859999999999999         0.37928870552753047     
  0.10890000000000000         0.42028758197563620     
  0.10920000000000001         0.45877912909949142     
  0.10950000000000001         0.49353426945614481     
  0.10979999999999999         0.51969689366815219     
  0.11009999999999999         0.53585392479560834     
  0.11040000000000001         0.54061854149372612     
  0.11070000000000001         0.53485763351598059     
  0.11100000000000000         0.51930785452799266     
  0.11130000000000000         0.49414259448541753     
  0.11160000000000002         0.45918458926339051     
  0.11190000000000001         0.41623467416852927     
  0.11220000000000001         0.36782959300310974     
  0.11250000000000000         0.31680637789794491     
  0.11280000000000000         0.26644066157573759     
  0.11309999999999999         0.21848556565873656     
  0.11340000000000001         0.17462526414045795     
  0.11369999999999998         0.13554898035261945     
  0.11400000000000000         0.10009307534974651     
  0.11430000000000000          6.6373349325167807E-002
  0.11460000000000002          3.2025043917796425E-002
  0.11489999999999999         -6.7545595479265603E-003
  0.11520000000000001         -5.3841832505596682E-002
  0.11550000000000001        -0.11236035065383876     
  0.11580000000000000        -0.18606415434476792     
  0.11609999999999999        -0.27706211911126211     
  0.11640000000000002        -0.38595459046981495     
  0.11670000000000001        -0.51212567358311878     
  0.11700000000000001        -0.65423727397364728     
  0.11730000000000000        -0.80791324837827549     
  0.11760000000000000        -0.96942622031199110     
  0.11789999999999999         -1.1320381231077552     
  0.11820000000000001         -1.2905856447831152     
  0.11850000000000001         -1.4381841507424833     
  0.11880000000000000         -1.5706790779936339     
  0.11910000000000000         -1.6804034809749910     
  0.11940000000000002         -1.7622865542323340     
  0.11970000000000001         -1.8116833077610421     
  0.12000000000000001         -1.8257358181272176     
  0.12030000000000000         -1.8036393032841103     
  0.12060000000000000         -1.7439311844146381     
  0.12089999999999999         -1.6496095752391915     
  0.12119999999999999         -1.5206307258799632     
  0.12150000000000001         -1.3630296068712584     
  0.12180000000000001         -1.1814647978624986     
  0.12210000000000000        -0.98175418915648338     
  0.12239999999999999        -0.76999628955145227     
  0.12270000000000002        -0.55149400520229752     
  0.12300000000000001        -0.33153554966704613     
  0.12330000000000001        -0.11538948919303640     
  0.12360000000000000          9.2990294692857939E-002
  0.12390000000000000         0.28987595613992845     
  0.12419999999999999         0.47411975546843360     
  0.12450000000000001         0.64435077079381686     
  0.12480000000000001         0.80074948506376808     
  0.12509999999999999         0.94018733990680536     
  0.12540000000000001          1.0624145325028682     
  0.12570000000000003          1.1656366649137744     
  0.12600000000000000          1.2516611883482531     
  0.12630000000000002          1.3204327894350814     
  0.12659999999999999          1.3733832909814816     
  0.12690000000000001          1.4109350516296544     
  0.12719999999999998          1.4315502717292221     
  0.12750000000000000          1.4371801690562069     
  0.12780000000000002          1.4300332147366925     
  0.12809999999999999          1.4141970951672753     
  0.12840000000000001          1.3917467670809300     
  0.12869999999999998          1.3640656544068614     
  0.12900000000000000          1.3308376143534029     
  0.12930000000000003          1.2921761342957085     
  0.12959999999999999          1.2492367098847226     
  0.12990000000000002          1.2037981818644852     
  0.13019999999999998          1.1575516530335126     
  0.13050000000000000          1.1104371611360455     
  0.13080000000000003          1.0609370528514412     
  0.13109999999999999          1.0076708849322382     
  0.13140000000000002         0.94983572316102005     
  0.13169999999999998         0.88819498371600347     
  0.13200000000000001         0.82167703440576845     
  0.13229999999999997         0.74984914540270353     
  0.13260000000000000         0.66836303883011783     
  0.13290000000000002         0.57388341771691087     
  0.13319999999999999         0.46280178722347814     
  0.13350000000000001         0.33339151987512000     
  0.13380000000000003         0.18592758656738925     
  0.13410000000000000          1.9965599181410248E-002
  0.13440000000000002        -0.16268372582551668     
  0.13469999999999999        -0.36008191289730851     
  0.13500000000000001        -0.56972724509664763     
  0.13529999999999998        -0.78423327630615303     
  0.13560000000000000        -0.99816400350055412     
  0.13590000000000002         -1.2019646233303358     
  0.13619999999999999         -1.3899439651252266     
  0.13650000000000001         -1.5570262759840450     
  0.13680000000000003         -1.6978050568163543     
  0.13710000000000000         -1.8092861279121770     
  0.13740000000000002         -1.8873262512034261     
  0.13769999999999999         -1.9302370657086805     
  0.13800000000000001         -1.9381281247239079     
  0.13829999999999998         -1.9115533937455769     
  0.13860000000000000         -1.8524726734767922     
  0.13890000000000002         -1.7637437681645567     
  0.13919999999999999         -1.6465420815677723     
  0.13950000000000001         -1.5039949502723278     
  0.13979999999999998         -1.3407653647373130     
  0.14010000000000000         -1.1607492038101894     
  0.14040000000000002        -0.96854240268794334     
  0.14069999999999999        -0.76817530844382753     
  0.14100000000000001        -0.56227052550838208     
  0.14130000000000004        -0.35539451477610695     
  0.14160000000000000        -0.15079516312171698     
  0.14189999999999997          4.7407231935915950E-002
  0.14219999999999999         0.23714862850828819     
  0.14250000000000002         0.41799363697982894     
  0.14279999999999998         0.58832198688937976     
  0.14310000000000000         0.74801344070664733     
  0.14339999999999997         0.89520419110842608     
  0.14369999999999999          1.0273393446855719     
  0.14400000000000002          1.1439006391244877     
  0.14429999999999998          1.2424073290053868     
  0.14460000000000001          1.3222782689667500     
  0.14490000000000003          1.3821233592671383     
  0.14520000000000000          1.4205319964961225     
  0.14550000000000002          1.4349920833003111     
  0.14579999999999999          1.4254473530887042     
  0.14610000000000001          1.3908250415118526     
  0.14640000000000003          1.3334064565865318     
  0.14670000000000000          1.2553782541578613     
  0.14699999999999996          1.1599367928677422     
  0.14729999999999999          1.0479728045585139     
  0.14760000000000001         0.92083222213590010     
  0.14789999999999998         0.77999884357167959     
  0.14820000000000000         0.62813669848567921     