  -1.4999999999999999E-002     0.0000000000000000     
  -1.4700000000000000E-002     0.0000000000000000     
  -1.4400000000000000E-002     0.0000000000000000     
  -1.4100000000000000E-002     0.0000000000000000     
  -1.3800000000000000E-002     0.0000000000000000     
  -1.3500000000000000E-002     0.0000000000000000     
  -1.3200000000000000E-002     0.0000000000000000     
  -1.2899999999999998E-002     0.0000000000000000     
  -1.2600000000000000E-002     0.0000000000000000     
  -1.2299999999999998E-002     0.0000000000000000     
  -1.2000000000000000E-002     0.0000000000000000     
  -1.1699999999999999E-002     0.0000000000000000     
  -1.1399999999999999E-002     0.0000000000000000     
  -1.1099999999999999E-002     0.0000000000000000     
  -1.0799999999999999E-002     0.0000000000000000     
  -1.0499999999999999E-002     0.0000000000000000     
  -1.0199999999999999E-002     0.0000000000000000     
  -9.8999999999999991E-003     0.0000000000000000     
  -9.5999999999999992E-003     0.0000000000000000     
  -9.2999999999999992E-003     0.0000000000000000     
  -8.9999999999999993E-003     0.0000000000000000     
  -8.6999999999999994E-003     0.0000000000000000     
  -8.3999999999999995E-003     0.0000000000000000     
  -8.0999999999999996E-003     0.0000000000000000     
  -7.7999999999999988E-003     0.0000000000000000     
  -7.4999999999999997E-003     0.0000000000000000     
  -7.1999999999999998E-003     0.0000000000000000     
  -6.8999999999999981E-003     0.0000000000000000     
  -6.5999999999999982E-003     0.0000000000000000     
  -6.3000000000000000E-003     0.0000000000000000     
  -6.0000000000000001E-003     0.0000000000000000     
  -5.6999999999999985E-003     0.0000000000000000     
  -5.3999999999999986E-003     0.0000000000000000     
  -5.1000000000000004E-003     0.0000000000000000     
  -4.7999999999999987E-003     0.0000000000000000     
  -4.5000000000000005E-003     0.0000000000000000     
  -4.1999999999999989E-003     0.0000000000000000     
  -3.8999999999999990E-003     0.0000000000000000     
  -3.5999999999999990E-003     0.0000000000000000     
  -3.2999999999999991E-003     0.0000000000000000     
  -2.9999999999999992E-003     0.0000000000000000     
  -2.6999999999999993E-003     0.0000000000000000     
  -2.3999999999999994E-003     0.0000000000000000     
  -2.0999999999999977E-003     0.0000000000000000     
  -1.7999999999999995E-003     0.0000000000000000     
  -1.4999999999999979E-003     0.0000000000000000     
  -1.1999999999999997E-003     0.0000000000000000     
  -8.9999999999999976E-004     0.0000000000000000     
  -5.9999999999999810E-004     0.0000000000000000     
  -2.9999999999999992E-004     0.0000000000000000     
   0.0000000000000000          0.0000000000000000     
   3.0000000000000165E-004     0.0000000000000000     
   5.9999999999999984E-004     0.0000000000000000     
   9.0000000000000149E-004     0.0000000000000000     
   1.2000000000000031E-003     0.0000000000000000     
   1.5000000000000013E-003     0.0000000000000000     
   1.8000000000000030E-003     0.0000000000000000     
   2.1000000000000012E-003     0.0000000000000000     
   2.3999999999999994E-003     0.0000000000000000     
   2.7000000000000010E-003     0.0000000000000000     
   2.9999999999999992E-003     0.0000000000000000     
   3.3000000000000008E-003     0.0000000000000000     
   3.6000000000000025E-003     0.0000000000000000     
   3.9000000000000007E-003     0.0000000000000000     
   4.2000000000000023E-003     0.0000000000000000     
   4.5000000000000005E-003     0.0000000000000000     
   4.7999999999999987E-003     0.0000000000000000     
   5.1000000000000004E-003     0.0000000000000000     
   5.4000000000000020E-003     0.0000000000000000     
   5.7000000000000037E-003     0.0000000000000000     
   5.9999999999999984E-003     0.0000000000000000     
   6.3000000000000000E-003     0.0000000000000000     
   6.6000000000000017E-003     0.0000000000000000     
   6.9000000000000034E-003     0.0000000000000000     
   7.2000000000000015E-003     0.0000000000000000     
   7.5000000000000032E-003     0.0000000000000000     
   7.8000000000000014E-003     0.0000000000000000     
   8.0999999999999996E-003     0.0000000000000000     
   8.4000000000000012E-003     0.0000000000000000     
   8.7000000000000029E-003     0.0000000000000000     
   9.0000000000000011E-003     0.0000000000000000     
   9.2999999999999992E-003     0.0000000000000000     
   9.6000000000000009E-003     0.0000000000000000     
   9.8999999999999991E-003     0.0000000000000000     
   1.0200000000000001E-002     0.0000000000000000     
   1.0500000000000002E-002     0.0000000000000000     
   1.0800000000000004E-002     0.0000000000000000     
   1.1099999999999999E-002     0.0000000000000000     
   1.1400000000000000E-002     0.0000000000000000     
   1.1700000000000002E-002     0.0000000000000000     
   1.2000000000000004E-002     1.5385350944330566E-063
   1.2300000000000002E-002    -5.8066869591611739E-063
   1.2600000000000000E-002     8.8837556117302402E-063
   1.2900000000000002E-002    -1.1900633081297556E-062
   1.3200000000000000E-002    -1.2774467613208329E-062
   1.3500000000000002E-002     8.6345069491134844E-062
   1.3800000000000003E-002    -2.1103836366268336E-035
   1.4100000000000001E-002     6.8038646350988092E-035
   1.4400000000000000E-002    -1.1439037113415423E-034
   1.4700000000000001E-002    -5.9326782931546867E-036
   1.4999999999999999E-002    -3.1834034436626099E-035
   1.5300000000000001E-002    -7.1329680602921239E-034
   1.5600000000000003E-002     2.9377675250166395E-033
   1.5899999999999997E-002    -2.6200702783900878E-033
   1.6199999999999999E-002    -5.6404471697286054E-033
   1.6500000000000001E-002     1.5751296478871416E-032
   1.6800000000000002E-002    -1.2236875192142274E-032
   1.7100000000000004E-002    -1.1790701672941959E-033
   1.7400000000000006E-002    -1.7193610385096821E-033
   1.7700000000000000E-002     2.1018613638150274E-032
   1.8000000000000002E-002     2.7732813410440355E-032
   1.8300000000000004E-002    -2.7008740713870200E-031
   1.8600000000000005E-002     6.3187059857111996E-031
   1.8900000000000000E-002    -5.3038397030036838E-031
   1.9200000000000002E-002    -1.0087664108115224E-030
   1.9500000000000003E-002     4.3647646478494822E-030
   1.9799999999999998E-002    -7.5967270923551603E-030
   2.0100000000000000E-002     4.7781608178372266E-030
   2.0400000000000001E-002     1.3325918527227006E-029
   2.0700000000000003E-002    -5.0488376625180902E-029
   2.0999999999999998E-002     8.2567748489327630E-029
   2.1299999999999999E-002    -3.4958754923409789E-029
   2.1600000000000001E-002    -1.8647653190279060E-028
   2.1900000000000003E-002     5.4911452561554096E-028
   2.2200000000000004E-002    -6.8572539910830940E-028
   2.2500000000000006E-002    -8.7714248142349680E-029
   2.2800000000000001E-002     2.1531048664965866E-027
   2.3100000000000002E-002    -4.4436498220188418E-027
   2.3400000000000004E-002     3.8077319353456340E-027
   2.3699999999999999E-002     3.4680265744082991E-027
   2.4000000000000000E-002    -1.7278906693206336E-026
   2.4300000000000002E-002     2.8508796648057488E-026
   2.4599999999999997E-002    -1.8253177368158483E-026
   2.4900000000000005E-002    -3.1858704418129202E-026
   2.5200000000000000E-002     1.1510839570558776E-025
   2.5499999999999995E-002    -1.7206510505806559E-025
   2.5800000000000003E-002     9.6113622583792783E-026
   2.6099999999999998E-002     1.8753207915902396E-025
   2.6400000000000007E-002    -6.0741681685258079E-025
   2.6700000000000002E-002     9.5026258347794721E-025
   2.6999999999999996E-002    -9.3805303583825478E-025
   2.7300000000000005E-002    -4.0652110521820084E-025
   2.7600000000000000E-002     6.2694993201323645E-024
   2.7900000000000008E-002    -1.7849112313712880E-023
   2.8200000000000003E-002     9.0696971109186836E-024
   2.8499999999999998E-002     1.0556630907423792E-022
   2.8800000000000006E-002    -3.7225240793870566E-022
   2.9100000000000001E-002     3.4909036090292866E-022
   2.9400000000000003E-002     1.3801563006487079E-021
   2.9700000000000004E-002    -5.9386873759438809E-021
   3.0000000000000006E-002     8.9567728107082509E-021
   3.0300000000000001E-002     5.7565797504510407E-021
   3.0600000000000002E-002    -6.1605647970532415E-020
   3.0900000000000004E-002     1.5679819603671869E-019
   3.1199999999999999E-002    -1.7858357320485405E-019
   3.1500000000000007E-002    -2.7307783414556628E-019
   3.1800000000000002E-002     1.9952963046707493E-018
   3.2099999999999997E-002    -5.4352795534878677E-018
   3.2400000000000005E-002     8.3858873809226252E-018
   3.2700000000000000E-002    -2.9673915868229168E-018
   3.3000000000000002E-002    -3.6973603689684747E-017
   3.3300000000000003E-002     2.1805270313851769E-016
   3.3599999999999998E-002    -7.7534065427689368E-016
   3.3900000000000000E-002     1.3812315040401191E-015
   3.4200000000000001E-002     1.6158464676518836E-015
   3.4500000000000003E-002    -1.7102489242989367E-014
   3.4799999999999998E-002     4.3156698709074413E-014
   3.5099999999999999E-002    -1.4620045527383874E-014
   3.5400000000000001E-002    -2.1861995982635345E-013
   3.5699999999999996E-002     6.4236506202191434E-013
   3.6000000000000004E-002    -4.5044950723017564E-013
   3.6299999999999999E-002    -1.9808413128231572E-012
   3.6600000000000008E-002     6.3042159320904242E-012
   3.6900000000000002E-002    -5.0761297564677716E-012
   3.7199999999999997E-002    -1.3990537151903338E-011
   3.7500000000000006E-002     4.4954659307152736E-011
   3.7800000000000000E-002    -3.4690563004475939E-011
   3.8100000000000009E-002    -8.2711791596492126E-011
   3.8400000000000004E-002     2.3969216257774427E-010
   3.8699999999999998E-002    -1.4143697543668170E-010
   3.9000000000000007E-002    -4.0490997508800374E-010
   3.9300000000000002E-002     8.4916499741855598E-010
   3.9600000000000003E-002    -2.5020612862188555E-010
   3.9900000000000005E-002    -8.1704244521311216E-010
   4.0200000000000000E-002     9.1956472034837250E-010
   4.0500000000000001E-002    -3.4602076877335394E-009
   4.0800000000000003E-002     1.0051054519028872E-008
   4.1100000000000005E-002     8.8862988694642342E-009
   4.1399999999999999E-002    -7.9242480347971071E-008
   4.1700000000000008E-002     4.0565636312639898E-008
   4.2000000000000003E-002     3.0708914646850092E-007
   4.2299999999999997E-002    -5.4921960706773526E-007
   4.2600000000000006E-002    -3.9754108000990160E-007
   4.2900000000000001E-002     9.9567174841986599E-006
   4.3200000000000002E-002     3.4535172138035692E-005
   4.3500000000000004E-002     6.0768400765182628E-005
   4.3799999999999999E-002     7.6586874525284154E-005
   4.4100000000000000E-002     9.1111620952087914E-005
   4.4400000000000002E-002     1.2648397923164519E-004
   4.4700000000000004E-002     2.0031447339918356E-004
   4.4999999999999998E-002     3.1847718788253359E-004
   4.5300000000000000E-002     4.7997864842311608E-004
   4.5600000000000002E-002     6.9661687785216786E-004
   4.5899999999999996E-002     1.0018005127223485E-003
   4.6200000000000005E-002     1.4308338090870919E-003
   4.6500000000000000E-002     2.0099209814286971E-003
   4.6799999999999994E-002     2.7691707565906305E-003
   4.7100000000000003E-002     3.7451639723521087E-003
   4.7399999999999998E-002     4.9692610533606987E-003
   4.7700000000000006E-002     6.4580067116180436E-003
   4.8000000000000001E-002     8.2019519812857409E-003
   4.8300000000000010E-002     1.0161467690231381E-002
   4.8600000000000004E-002     1.2261498553431897E-002
   4.8899999999999999E-002     1.4361409276686291E-002
   4.9200000000000008E-002     1.6225937535696559E-002
   4.9500000000000002E-002     1.7524512248864803E-002
   4.9800000000000011E-002     1.7831889672154370E-002
   5.0100000000000006E-002     1.6624377816011442E-002
   5.0400000000000000E-002     1.3289562245862528E-002
   5.0700000000000009E-002     7.1387164223231572E-003
   5.1000000000000004E-002    -2.5359487369296580E-003
   5.1299999999999998E-002    -1.6345135662254446E-002
   5.1600000000000007E-002    -3.4707817736906343E-002
   5.1900000000000002E-002    -5.7775615904391696E-002
   5.2200000000000010E-002    -8.5297859109054408E-002
   5.2500000000000005E-002   -0.11647448539039043     
   5.2800000000000000E-002   -0.14985836849822740     
   5.3099999999999994E-002   -0.18328457835592182     
   5.3400000000000003E-002   -0.21387146139210006     
   5.3699999999999998E-002   -0.23812636428026990     
   5.4000000000000006E-002   -0.25210588847648241     
   5.4300000000000001E-002   -0.25168051993339785     
   5.4599999999999996E-002   -0.23292843698611276     
   5.4900000000000004E-002   -0.19259394456801229     
   5.5199999999999999E-002   -0.12853301892676935     
   5.5499999999999994E-002    -4.0175314402345889E-002
   5.5800000000000002E-002     7.1021109032637877E-002
   5.6099999999999997E-002    0.20135847984828192     
   5.6400000000000006E-002    0.34486388744280316     
   5.6700000000000000E-002    0.49338489172590022     
   5.6999999999999995E-002    0.63701342761953583     
   5.7300000000000004E-002    0.76482461952478908     
   5.7599999999999998E-002    0.86570261855524389     
   5.7900000000000007E-002    0.92928766072993008     
   5.8200000000000002E-002    0.94709740914799767     
   5.8499999999999996E-002    0.91346042232771263     
   5.8800000000000005E-002    0.82628404081437057     
   5.9100000000000000E-002    0.68754088029518512     
   5.9400000000000008E-002    0.50340860449542002     
   5.9700000000000003E-002    0.28396230560925606     
   6.0000000000000012E-002     4.2519315152148428E-002
   6.0300000000000006E-002   -0.20541854005237092     
   6.0600000000000001E-002   -0.44341772319944639     
   6.0900000000000010E-002   -0.65543233626853847     
   6.1200000000000004E-002   -0.82730632099344470     
   6.1500000000000013E-002   -0.94796704184892189     
   6.1800000000000008E-002    -1.0103200560544994     
   6.2100000000000002E-002    -1.0118119602654436     
   6.2399999999999997E-002   -0.95463918561887451     
   6.2700000000000006E-002   -0.84544025893551811     
   6.3000000000000000E-002   -0.69465564887981890     
   6.3300000000000009E-002   -0.51552771923083285     
   6.3600000000000004E-002   -0.32292055693457272     
   6.3899999999999998E-002   -0.13216180913726985     
   6.4199999999999993E-002     4.2235333483040108E-002
   6.4500000000000002E-002    0.18761117607269501     
   6.4800000000000010E-002    0.29406666500745288     
   6.5100000000000005E-002    0.35500096964872446     
   6.5400000000000000E-002    0.36743968412943406     
   6.5700000000000008E-002    0.33204343652598489     
   6.5999999999999989E-002    0.25286707117552520     
   6.6299999999999998E-002    0.13690575928874887     
   6.6600000000000006E-002    -6.5284683861422032E-003
   6.6900000000000001E-002   -0.16643839762535423     
   6.7199999999999996E-002   -0.33103849991506384     
   6.7500000000000004E-002   -0.48834874563965952     
   6.7800000000000013E-002   -0.62706255103888053     
   6.8099999999999994E-002   -0.73715310369517717     
   6.8400000000000002E-002   -0.81044064965212581     
   6.8700000000000011E-002   -0.84101950115733648     
   6.8999999999999992E-002   -0.82552306869731351     
   6.9300000000000000E-002   -0.76340459888435508     
   6.9600000000000009E-002   -0.65685283385889226     
   6.9900000000000004E-002   -0.51062887336019824     
   7.0199999999999999E-002   -0.33181482199181739     
   7.0500000000000007E-002   -0.12932428606353372     
   7.0800000000000016E-002     8.6656464647319117E-002
   7.1099999999999997E-002    0.30529290029843043     
   7.1400000000000005E-002    0.51585333880120521     
   7.1700000000000000E-002    0.70805805032901425     
   7.1999999999999995E-002    0.87297468291673119     
   7.2300000000000003E-002     1.0033538217453917     
   7.2600000000000012E-002     1.0938205583917087     
   7.2900000000000006E-002     1.1411208965476194     
   7.3200000000000001E-002     1.1441984035174122     
   7.3499999999999996E-002     1.1039020878553076     
   7.3800000000000004E-002     1.0228673092485352     
   7.4099999999999999E-002    0.90523259697491376     
   7.4400000000000008E-002    0.75615685219855888     
   7.4700000000000003E-002    0.58166544878889281     
   7.5000000000000011E-002    0.38861879184048587     
   7.5299999999999992E-002    0.18403361454689071     
   7.5600000000000001E-002    -2.4605498090486604E-002
   7.5900000000000009E-002   -0.22991336674312809     
   7.6200000000000004E-002   -0.42432787576321629     
   7.6499999999999999E-002   -0.60046547003525574     
   7.6800000000000007E-002   -0.75162314539133990     
   7.7099999999999988E-002   -0.87154190750042027     
   7.7399999999999997E-002   -0.95523791409349379     
   7.7700000000000005E-002   -0.99889903098031840     
   7.8000000000000014E-002    -1.0003900409586566     
   7.8299999999999995E-002   -0.95963172943717456     
   7.8600000000000003E-002   -0.87835179662853846     
   7.8900000000000012E-002   -0.76013057439184717     
   7.9199999999999993E-002   -0.61028324724931704     
   7.9500000000000001E-002   -0.43561213560460665     
   7.9800000000000010E-002   -0.24367315624173888     
   8.0100000000000018E-002    -4.2332289408105982E-002
   8.0399999999999999E-002    0.16074356416625532     
   8.0700000000000008E-002    0.35849982235094424     
   8.1000000000000003E-002    0.54471849895136881     
   8.1299999999999997E-002    0.71444188826680988     
   8.1600000000000006E-002    0.86424331926556008     
   8.1900000000000014E-002    0.99142562220818575     
   8.2199999999999995E-002     1.0941737761667956     
   8.2500000000000004E-002     1.1714072086169880     
   8.2799999999999999E-002     1.2222076503607153     
   8.3100000000000007E-002     1.2459763131508139     
   8.3400000000000002E-002     1.2415748675198863     
   8.3700000000000011E-002     1.2079353175369356     
   8.4000000000000005E-002     1.1438445894856006     
   8.4300000000000000E-002     1.0480835298899356     
   8.4599999999999995E-002    0.92002581317270082     
   8.4900000000000003E-002    0.75956337612607139     
   8.5199999999999998E-002    0.56769757683610489     
   8.5500000000000007E-002    0.34690767037119952     
   8.5800000000000001E-002    0.10121273823375887     
   8.6100000000000010E-002   -0.16359856553999313     
   8.6399999999999991E-002   -0.44038381640126745     
   8.6699999999999999E-002   -0.72019671492394399     
   8.7000000000000008E-002   -0.99303959542051490     
   8.7300000000000003E-002    -1.2483309348986962     
   8.7599999999999997E-002    -1.4753978065075293     
   8.7900000000000006E-002    -1.6641584423300755     
   8.8200000000000014E-002    -1.8055251607556813     
   8.8499999999999995E-002    -1.8921326159896921     
   8.8800000000000004E-002    -1.9189399240481275     
   8.9100000000000013E-002    -1.8836253647985148     
   8.9399999999999993E-002    -1.7864826699053000     
   8.9700000000000002E-002    -1.6307104630358962     
   9.0000000000000011E-002    -1.4222642017795419     
   9.0299999999999991E-002    -1.1696218122080639     
   9.0600000000000000E-002   -0.88319688123070461     
   9.0900000000000009E-002   -0.57465218996067324     
   9.1200000000000017E-002   -0.25656348379220167     
   9.1499999999999998E-002     5.8619354590880406E-002
   9.1800000000000007E-002    0.35880421928759065     
   9.2100000000000001E-002    0.63346849897209467     
   9.2399999999999996E-002    0.87379633152787584     
   9.2700000000000005E-002     1.0730485774672225     
   9.3000000000000013E-002     1.2269838895063747     
   9.3300000000000008E-002     1.3337905248316575     
   9.3600000000000003E-002     1.3940731128717003     
   9.3899999999999997E-002     1.4105002727337559     
   9.4200000000000006E-002     1.3872586345975331     
   9.4500000000000001E-002     1.3298742641564862     
   9.4800000000000009E-002     1.2450302724442870     
   9.5100000000000004E-002     1.1392613549971033     
   9.5399999999999999E-002     1.0191314136781977     
   9.5699999999999993E-002    0.89098732977448425     
   9.6000000000000002E-002    0.76073830767757655     
   9.6300000000000011E-002    0.63317882572649287     
   9.6600000000000005E-002    0.51257270220629259     
   9.6900000000000000E-002    0.40245237659421096     
   9.7200000000000009E-002    0.30544310559527055     
   9.7499999999999989E-002    0.22346065702069307     
   9.7799999999999998E-002    0.15748229371809419     
   9.8100000000000007E-002    0.10759740041860981     
   9.8400000000000015E-002     7.2624538533855587E-002
   9.8699999999999996E-002     5.0766989450309753E-002
   9.9000000000000005E-002     3.8706085851344586E-002
   9.9300000000000013E-002     3.2149566958655958E-002
   9.9599999999999994E-002     2.6220448610756196E-002
   9.9900000000000003E-002     1.5297474561398133E-002
  0.10020000000000001         -6.2058944389393666E-003
  0.10049999999999999         -4.3510795187950209E-002
  0.10080000000000000        -0.10087468776312505     
  0.10110000000000001        -0.18097156414442858     
  0.10140000000000000        -0.28469604155138462     
  0.10170000000000000        -0.41106581317456858     
  0.10200000000000001        -0.55627702996392481     
  0.10230000000000002        -0.71457379075119154     
  0.10260000000000000        -0.87868128914239130     
  0.10290000000000001         -1.0395920117292519     
  0.10320000000000000         -1.1872598939767691     
  0.10350000000000001         -1.3113287482734459     
  0.10380000000000000         -1.4023389599990717     
  0.10410000000000001         -1.4514803666047342     
  0.10440000000000001         -1.4517769598329735     
  0.10470000000000000         -1.3985017338305861     
  0.10500000000000000         -1.2892405812143226     
  0.10530000000000000         -1.1252342320912028     
  0.10560000000000000        -0.91055690219910790     
  0.10590000000000001        -0.65238117593356559     
  0.10620000000000000        -0.36114555496182915     
  0.10650000000000001         -4.9943607317306557E-002
  0.10679999999999999         0.26559447427591798     
  0.10710000000000000         0.56887953273261938     
  0.10740000000000001         0.84279678741257003     
  0.10770000000000000          1.0707045620790643     
  0.10800000000000000          1.2378775891442504     
  0.10830000000000001          1.3327143013230403     
  0.10859999999999999          1.3480658367073699     
  0.10890000000000000          1.2815630297393781     
  0.10920000000000001          1.1364182130933700     
  0.10950000000000001         0.92166000007072157     
  0.10979999999999999         0.65184467905673404     
  0.11009999999999999         0.34598046889020467     
  0.11040000000000001          2.6411891461023393E-002
  0.11070000000000001        -0.28264995230812179     
  0.11100000000000000        -0.55714492523156878     
  0.11130000000000000        -0.77455197132567344     
  0.11160000000000002        -0.91615895757378230     
  0.11190000000000001        -0.96845768334809945     
  0.11220000000000001        -0.92391114136576369     
  0.11250000000000000        -0.78157120037956662     
  0.11280000000000000        -0.54793512412901213     
  0.11309999999999999        -0.23562726540988727     
  0.11340000000000001         0.13694847342954247     
  0.11369999999999998         0.54676263119141921     
  0.11400000000000000         0.96818892146350766     
  0.11430000000000000          1.3735253557496088     
  0.11460000000000002          1.7360088528695026     
  0.11489999999999999          2.0303604274950477     
  0.11520000000000001          2.2347616804279000     
  0.11550000000000001          2.3319029461513714     
  0.11580000000000000          2.3103029396048527     
  0.11609999999999999          2.1645824607880217     
  0.11640000000000002          1.8962461691993708     
  0.11670000000000001          1.5137598316684950     
  0.11700000000000001          1.0319411626337132     
  0.11730000000000000         0.47169520947804194     
  0.11760000000000000        -0.14100625784594459     
  0.11789999999999999        -0.77684508578481526     
  0.11820000000000001         -1.4042634762864703     
  0.11850000000000001         -1.9916834551901508     
  0.11880000000000000         -2.5092386850807449     
  0.11910000000000000         -2.9305684160703631     
  0.11940000000000002         -3.2349953202950021     
  0.11970000000000001         -3.4081162931469455     
  0.12000000000000001         -3.4432143681518332     
  0.12030000000000000         -3.3415212157781555     
  0.12060000000000000         -3.1118058712900782     
  0.12089999999999999         -2.7692262725476291     
  0.12119999999999999         -2.3347205773463164     
  0.12150000000000001         -1.8324080433784484     
  0.12180000000000001         -1.2881860540283119     
  0.12210000000000000        -0.72752713077918518     
  0.12239999999999999        -0.17389891819398792     
  0.12270000000000002         0.35252147297383013     
  0.12300000000000001         0.83603201897106016     
  0.12330000000000001          1.2660577086302092     
  0.12360000000000000          1.6356409516141803     
  0.12390000000000000          1.9426098740822486     
  0.12419999999999999          2.1875688672572018     
  0.12450000000000001          2.3732924080500495     
  0.12480000000000001          2.5035848226139419     
  0.12509999999999999          2.5821160880091325     
  0.12540000000000001          2.6121642212845839     
  0.12570000000000003          2.5960597638171947     
  0.12600000000000000          2.5351564561357818     
  0.12630000000000002          2.4298898888375997     
  0.12659999999999999          2.2805058713327400     
  0.12690000000000001          2.0873644155009483     
  0.12719999999999998          1.8516802637060787     
  0.12750000000000000          1.5760283365912522     
  0.12780000000000002          1.2640364110474667     
  0.12809999999999999         0.92147850821931943     
  0.12840000000000001         0.55565577965748014     
  0.12869999999999998         0.17503873084352262     
  0.12900000000000000        -0.21111219235664988     
  0.12930000000000003        -0.59301935459170341     
  0.12959999999999999        -0.96102790605098298     
  0.12990000000000002         -1.3061921432394898     
  0.13019999999999998         -1.6202645117403194     
  0.13050000000000000         -1.8969690596592566     
  0.13080000000000003         -2.1303403156741538     
  0.13109999999999999         -2.3164012195069690     
  0.13140000000000002         -2.4519510017114854     
  0.13169999999999998         -2.5343947144872714     
  0.13200000000000001         -2.5619995318379831     
  0.13229999999999997         -2.5326344685170241     
  0.13260000000000000         -2.4446510985608993     
  0.13290000000000002         -2.2962131222197160     
  0.13319999999999999         -2.0851719114845806     
  0.13350000000000001         -1.8097263333453946     
  0.13380000000000003         -1.4689907819700205     
  0.13410000000000000         -1.0633262231936216     
  0.13440000000000002        -0.59448104008136671     
  0.13469999999999999         -6.7177291482391807E-002
  0.13500000000000001         0.51036166799106564     
  0.13529999999999998          1.1265723586915333     
  0.13560000000000000          1.7656399995193484     
  0.13590000000000002          2.4080319102910916     
  0.13619999999999999          3.0301150881085923     
  0.13650000000000001          3.6057178492911399     
  0.13680000000000003          4.1068305410207646     
  0.13710000000000000          4.5054759355967011     
  0.13740000000000002          4.7748388573944167     
  0.13769999999999999          4.8918461105234501     
  0.13800000000000001          4.8388342164309384     
  0.13829999999999998          4.6055297185871771     
  0.13860000000000000          4.1910151823377442     
  0.13890000000000002          3.6030520861216733     
  0.13919999999999999          2.8603243401668381     
  0.13950000000000001          1.9916534122006055     
  0.13979999999999998          1.0343987776726613     
  0.14010000000000000          3.1891053329766349E-002
  0.14040000000000002        -0.96813617892539261     
  0.14069999999999999         -1.9170351958038421     
  0.14100000000000001         -2.7694308373055199     
  0.14130000000000004         -3.4861013401615843     
  0.14160000000000000         -4.0379676252739412     
  0.14189999999999997         -4.4080738402621904     
  0.14219999999999999         -4.5933713269121537     
  0.14250000000000002         -4.6056079220620365     
  0.14279999999999998         -4.4700517031403901     
  0.14310000000000000         -4.2240995773518728     
  0.14339999999999997         -3.9129568988382779     
  0.14369999999999999         -3.5861310464988092     
  0.14400000000000002         -3.2926642444500005     
  0.14429999999999998         -3.0759191096237970     
  0.14460000000000001         -2.9687785705836438     
  0.14490000000000003         -2.9895276632997301     
  0.14520000000000000         -3.1406759816561189     
  0.14550000000000002         -3.4066047246954425     
  0.14579999999999999         -3.7542728925379514     
  0.14610000000000001         -4.1361059658808701     
  0.14640000000000003         -4.4946736779560288     
  0.14670000000000000         -4.7670177886783733     
  0.14699999999999996         -4.8914398619696726     
  0.14729999999999999         -4.8129066916693493     
  0.14760000000000001         -4.4905128024489489     
  0.14789999999999998         -3.9018754579465069     
  0.14820000000000000         -3.0467214301241605     