  -1.4999999999999999E-002     0.0000000000000000     
  -1.4700000000000000E-002     0.0000000000000000     
  -1.4400000000000000E-002     0.0000000000000000     
  -1.4100000000000000E-002     0.0000000000000000     
  -1.3800000000000000E-002     0.0000000000000000     
  -1.3500000000000000E-002     0.0000000000000000     
  -1.3200000000000000E-002     0.0000000000000000     
  -1.2899999999999998E-002    -2.7288074271846103E-036
  -1.2600000000000000E-002    -1.0100458651924439E-035
  -1.2299999999999998E-002     1.6585652224447908E-033
  -1.2000000000000000E-002    -3.1646930513745111E-032
  -1.1699999999999999E-002     7.4024847070692567E-032
  -1.1399999999999999E-002     1.3360336022955885E-030
  -1.1099999999999999E-002    -6.1419075807657468E-030
  -1.0799999999999999E-002    -1.8170315648283896E-029
  -1.0499999999999999E-002     1.1583758986097425E-028
  -1.0199999999999999E-002     1.8010897001355354E-028
  -9.8999999999999991E-003    -1.1688805567647884E-027
  -9.5999999999999992E-003    -2.2509813556597366E-027
  -9.2999999999999992E-003     7.9065401415211638E-027
  -8.9999999999999993E-003     2.7910429253192291E-026
  -8.6999999999999994E-003    -3.8365160856479855E-026
  -8.3999999999999995E-003    -2.6668274998040122E-025
  -8.0999999999999996E-003     1.9795421153537925E-025
  -7.7999999999999988E-003     1.3591481261241070E-024
  -7.4999999999999997E-003     4.4889304607870195E-025
  -7.1999999999999998E-003    -4.9330772526837952E-024
  -6.8999999999999981E-003    -1.5961947340905869E-023
  -6.5999999999999982E-003     3.0104635977532973E-023
  -6.3000000000000000E-003     6.9876137735402795E-023
  -6.0000000000000001E-003    -7.2657455888147487E-023
  -5.6999999999999985E-003    -1.2501017605802276E-022
  -5.3999999999999986E-003    -5.3974420489538823E-022
  -5.1000000000000004E-003     9.1451515316495500E-022
  -4.7999999999999987E-003     3.1376053496014134E-021
  -4.5000000000000005E-003    -5.8624128076320881E-021
  -4.1999999999999989E-003     3.2547867555614800E-021
  -3.8999999999999990E-003    -1.6200967352337393E-020
  -3.5999999999999990E-003     6.1780220141696643E-021
  -3.2999999999999991E-003     1.1475293507565329E-019
  -2.9999999999999992E-003    -2.2361754128780533E-019
  -2.6999999999999993E-003     2.6793373846403456E-019
  -2.3999999999999994E-003    -5.0157687216748448E-019
  -2.0999999999999977E-003     3.4173085511543337E-020
  -1.7999999999999995E-003     2.4005708564354762E-018
  -1.4999999999999979E-003    -5.6138998478901306E-018
  -1.1999999999999997E-003     1.1076122937286495E-017
  -8.9999999999999976E-004    -1.9713262042789059E-017
  -5.9999999999999810E-004     8.3702863222514732E-018
  -2.9999999999999992E-004     5.8627769750837923E-017
   0.0000000000000000         -1.9795507897980373E-016
   3.0000000000000165E-004     3.8499940252852911E-016
   5.9999999999999984E-004    -3.4019765009878557E-016
   9.0000000000000149E-004    -5.9414277446904033E-016
   1.2000000000000031E-003     2.6429591452998425E-015
   1.5000000000000013E-003    -4.3477718419813848E-015
   1.8000000000000030E-003     2.0982604044410678E-015
   2.1000000000000012E-003     8.1928089565997729E-015
   2.3999999999999994E-003    -2.3637002082093764E-014
   2.7000000000000010E-003     2.6165147330642781E-014
   2.9999999999999992E-003     7.0257827664893763E-015
   3.3000000000000008E-003    -7.3481598426297261E-014
   3.6000000000000025E-003     1.2313495435616992E-013
   3.9000000000000007E-003    -7.0954919241253274E-014
   4.2000000000000023E-003    -1.2443755069819438E-013
   4.5000000000000005E-003     3.5725015325168102E-013
   4.7999999999999987E-003    -4.0331228942695695E-013
   5.1000000000000004E-003     8.5879485317895616E-014
   5.4000000000000020E-003     5.7773667615527750E-013
   5.7000000000000037E-003    -1.2416006833663873E-012
   5.9999999999999984E-003     1.2601923030465187E-012
   6.3000000000000000E-003    -1.1738211675651695E-013
   6.6000000000000017E-003    -2.1190009053709951E-012
   6.9000000000000034E-003     4.3779566685413731E-012
   7.2000000000000015E-003    -4.2620955438292210E-012
   7.5000000000000032E-003    -4.3358757155437208E-013
   7.8000000000000014E-003     8.6304677439238095E-012
   8.0999999999999996E-003    -1.4791634249889009E-011
   8.4000000000000012E-003     1.0885958797805512E-011
   8.7000000000000029E-003     7.1922578703663203E-012
   9.0000000000000011E-003    -3.0539185558977891E-011
   9.2999999999999992E-003     3.9016411010641899E-011
   9.6000000000000009E-003    -1.6797910039177518E-011
   9.8999999999999991E-003    -3.3382605003802016E-011
   1.0200000000000001E-002     8.2078053700878052E-011
   1.0500000000000002E-002    -8.3335509119040213E-011
   1.0800000000000004E-002     1.4335430557461382E-011
   1.1099999999999999E-002     9.8204553072934433E-011
   1.1400000000000000E-002    -1.8705098084650729E-010
   1.1700000000000002E-002     1.6666212921089528E-010
   1.2000000000000004E-002     3.5221507762096769E-012
   1.2300000000000002E-002    -2.4899333846980549E-010
   1.2600000000000000E-002     4.0687685461870292E-010
   1.2900000000000002E-002    -3.2077696510006960E-010
   1.3200000000000000E-002    -3.6397636526090163E-011
   1.3500000000000002E-002     5.2384010945789446E-010
   1.3800000000000003E-002    -9.9965563486648347E-010
   1.4100000000000001E-002     1.0652844613509066E-009
   1.4400000000000000E-002     3.3689507817831875E-010
   1.4700000000000001E-002    -2.7175327564953479E-009
   1.4999999999999999E-002     2.2696814995534486E-009
   1.5300000000000001E-002     2.1250638146340521E-010
   1.5600000000000003E-002     1.1202707791287469E-009
   1.5899999999999997E-002     9.6361455619299217E-009
   1.6199999999999999E-002    -3.3400130907136092E-008
   1.6500000000000001E-002    -4.1098901714403537E-008
   1.6800000000000002E-002     1.6196372936019184E-007
   1.7100000000000004E-002     1.4709159735928326E-007
   1.7400000000000006E-002    -6.1792069193972719E-007
   1.7700000000000000E-002    -3.5982379069547333E-007
   1.8000000000000002E-002     4.2747737019357193E-006
   1.8300000000000004E-002     1.3347553236819638E-005
   1.8600000000000005E-002     2.3648038202077960E-005
   1.8900000000000000E-002     3.3824897281379453E-005
   1.9200000000000002E-002     4.4997478059732835E-005
   1.9500000000000003E-002     5.7671329622412926E-005
   1.9799999999999998E-002     7.2879449152573456E-005
   2.0100000000000000E-002     9.9046483761412290E-005
   2.0400000000000001E-002     1.5174876219362261E-004
   2.0700000000000003E-002     2.3793351252350282E-004
   2.0999999999999998E-002     3.4625389074596839E-004
   2.1299999999999999E-002     4.6139536366900216E-004
   2.1600000000000001E-002     5.8841990405550989E-004
   2.1900000000000003E-002     7.5239151654065578E-004
   2.2200000000000004E-002     9.5731732278333788E-004
   2.2500000000000006E-002     1.1623955205157669E-003
   2.2800000000000001E-002     1.3114791467381316E-003
   2.3100000000000002E-002     1.3391309340867056E-003
   2.3400000000000004E-002     1.1399942115000736E-003
   2.3699999999999999E-002     5.5926950567864288E-004
   2.4000000000000000E-002    -6.2146509457998835E-004
   2.4300000000000002E-002    -2.6909606371055658E-003
   2.4599999999999997E-002    -6.0104400065051911E-003
   2.4900000000000005E-002    -1.1056793804090735E-002
   2.5200000000000000E-002    -1.8439566147648998E-002
   2.5499999999999995E-002    -2.8862999026576106E-002
   2.5800000000000003E-002    -4.3096753228272416E-002
   2.6099999999999998E-002    -6.1960878169477651E-002
   2.6400000000000007E-002    -8.6277947814109912E-002
   2.6700000000000002E-002   -0.11683448516716798     
   2.6999999999999996E-002   -0.15428549418941154     
   2.7300000000000005E-002   -0.19901791699476049     
   2.7600000000000000E-002   -0.25107318327231021     
   2.7900000000000008E-002   -0.31007764894333306     
   2.8200000000000003E-002   -0.37518563838001173     
   2.8499999999999998E-002   -0.44495749328602002     
   2.8800000000000006E-002   -0.51737034381498959     
   2.9100000000000001E-002   -0.58980530742533677     
   2.9400000000000003E-002   -0.65915473284999271     
   2.9700000000000004E-002   -0.72195407921955268     
   3.0000000000000006E-002   -0.77453183109849255     
   3.0300000000000001E-002   -0.81331348217106925     
   3.0600000000000002E-002   -0.83490349318306334     
   3.0900000000000004E-002   -0.83634456618788133     
   3.1199999999999999E-002   -0.81543768076119016     
   3.1500000000000007E-002   -0.77071702722823809     
   3.1800000000000002E-002   -0.70157799324713521     
   3.2099999999999997E-002   -0.60824976800639174     
   3.2400000000000005E-002   -0.49177048144998259     
   3.2700000000000000E-002   -0.35400504842403685     
   3.3000000000000002E-002   -0.19734696416199099     
   3.3300000000000003E-002    -2.4605284315118825E-002
   3.3599999999999998E-002    0.16086372803365562     
   3.3900000000000000E-002    0.35545021004349781     
   3.4200000000000001E-002    0.55513184477880606     
   3.4500000000000003E-002    0.75535681834639123     
   3.4799999999999998E-002    0.95118252304406581     
   3.5099999999999999E-002     1.1371379953327381     
   3.5400000000000001E-002     1.3074545121110552     
   3.5699999999999996E-002     1.4562229092089962     
   3.6000000000000004E-002     1.5777238316629352     
   3.6299999999999999E-002     1.6669212942237295     
   3.6600000000000008E-002     1.7201656664706451     
   3.6900000000000002E-002     1.7356758493768019     
   3.7199999999999997E-002     1.7143244864930132     
   3.7500000000000006E-002     1.6597912521709863     
   3.7800000000000000E-002     1.5785981323871969     
   3.8100000000000009E-002     1.4799124237545453     
   3.8400000000000004E-002     1.3749029785256286     
   3.8699999999999998E-002     1.2753116957393185     
   3.9000000000000007E-002     1.1925848851336329     
   3.9300000000000002E-002     1.1356621368735658     
   3.9600000000000003E-002     1.1101355293646566     
   3.9900000000000005E-002     1.1165700150769549     
   4.0200000000000000E-002     1.1497136247818824     
   4.0500000000000001E-002     1.1990415290624898     
   4.0800000000000003E-002     1.2482613467650900     
   4.1100000000000005E-002     1.2774926598961185     
   4.1399999999999999E-002     1.2649643764041556     
   4.1700000000000008E-002     1.1893873415856673     
   4.2000000000000003E-002     1.0328328890637968     
   4.2299999999999997E-002    0.78307312478919433     
   4.2600000000000006E-002    0.43593617806201423     
   4.2900000000000001E-002    -3.5515705788808360E-003
   4.3200000000000002E-002   -0.52013327646370489     
   4.3500000000000004E-002    -1.0893764679879905     
   4.3799999999999999E-002    -1.6789048586572637     
   4.4100000000000000E-002    -2.2512102730315791     
   4.4400000000000002E-002    -2.7666337178976783     
   4.4700000000000004E-002    -3.1873131716416383     
   4.4999999999999998E-002    -3.4805338768879870     
   4.5300000000000000E-002    -3.6225812208315364     
   4.5600000000000002E-002    -3.6004369243621479     
   4.5899999999999996E-002    -3.4145102555576670     
   4.6200000000000005E-002    -3.0780735523373708     
   4.6500000000000000E-002    -2.6169084575571557     
   4.6799999999999994E-002    -2.0672823901176134     
   4.7100000000000003E-002    -1.4721642462086828     
   4.7399999999999998E-002   -0.87848744393248213     
   4.7700000000000006E-002   -0.33213100778856952     
   4.8000000000000001E-002    0.12555140350265209     
   4.8300000000000010E-002    0.46138731845729697     
   4.8600000000000004E-002    0.65370066406947791     
   4.8899999999999999E-002    0.69347379789553332     
   4.9200000000000008E-002    0.58588236106142866     
   4.9500000000000002E-002    0.34845865635916962     
   4.9800000000000011E-002     1.0393395166676755E-002
   5.0100000000000006E-002   -0.39067858572237835     
   5.0400000000000000E-002   -0.81225831829872064     
   5.0700000000000009E-002    -1.2101676031584245     
   5.1000000000000004E-002    -1.5433351508129356     
   5.1299999999999998E-002    -1.7762726075616670     
   5.1600000000000007E-002    -1.8826116827606039     
   5.1900000000000002E-002    -1.8471316882893425     
   5.2200000000000010E-002    -1.6657722880236174     
   5.2500000000000005E-002    -1.3467864239823006     
   5.2800000000000000E-002   -0.90767363524194733     
   5.3099999999999994E-002   -0.37441022564595028     
   5.3400000000000003E-002    0.22204423526230710     
   5.3699999999999998E-002    0.84931101514477425     
   5.4000000000000006E-002     1.4756250642554374     
   5.4300000000000001E-002     2.0738095767624585     
   5.4599999999999996E-002     2.6221764338254006     
   5.4900000000000004E-002     3.1066633096123706     
   5.5199999999999999E-002     3.5195890507080425     
   5.5499999999999994E-002     3.8601302946495473     
   5.5800000000000002E-002     4.1313616162167319     
   5.6099999999999997E-002     4.3385005658460738     
   5.6400000000000006E-002     4.4874091269813468     
   5.6700000000000000E-002     4.5802299533104343     
   5.6999999999999995E-002     4.6161721580234589     
   5.7300000000000004E-002     4.5892904932357190     
   5.7599999999999998E-002     4.4887818782143523     
   5.7900000000000007E-002     4.3013609241680886     
   5.8200000000000002E-002     4.0117420358015163     
   5.8499999999999996E-002     3.6070957133370158     
   5.8800000000000005E-002     3.0791245003164449     
   5.9100000000000000E-002     2.4265248232316408     
   5.9400000000000008E-002     1.6582540733555624     
   5.9700000000000003E-002    0.79371500644953441     
   6.0000000000000012E-002   -0.13661857131924859     
   6.0300000000000006E-002    -1.0933369131740247     
   6.0600000000000001E-002    -2.0299851610539603     
   6.0900000000000010E-002    -2.8979019404022903     
   6.1200000000000004E-002    -3.6499332244939753     
   6.1500000000000013E-002    -4.2456011604909882     
   6.1800000000000008E-002    -4.6559348378583767     
   6.2100000000000002E-002    -4.8657161513452936     
   6.2399999999999997E-002    -4.8785819539750728     
   6.2700000000000006E-002    -4.7149202800203041     
   6.3000000000000000E-002    -4.4132908567583256     
   6.3300000000000009E-002    -4.0263032761443611     
   6.3600000000000004E-002    -3.6164238798729382     
   6.3899999999999998E-002    -3.2499521907040250     
   6.4199999999999993E-002    -2.9910141493615026     
   6.4500000000000002E-002    -2.8930002838719742     
   6.4800000000000010E-002    -2.9933070676664375     
   6.5100000000000005E-002    -3.3065714091540697     
   6.5400000000000000E-002    -3.8197675554100439     
   6.5700000000000008E-002    -4.4938176769279927     
   6.5999999999999989E-002    -5.2585440602344056     
   6.6299999999999998E-002    -6.0236563974555324     
   6.6600000000000006E-002    -6.6787231732700754     
   6.6900000000000001E-002    -7.1076996342183119     
   6.7199999999999996E-002    -7.1971282170743409     
   6.7500000000000004E-002    -6.8497553120330457     
   6.7800000000000013E-002    -5.9976655870944473     
   6.8099999999999994E-002    -4.6110445390883532     
   6.8400000000000002E-002    -2.7101182944513651     
   6.8700000000000011E-002   -0.36550804917248125     
   6.8999999999999992E-002     2.2975500326813458     
   6.9300000000000000E-002     5.1095482824690288     
   6.9600000000000009E-002     7.8631813595097011     
   6.9900000000000004E-002     10.332637370451740     
   7.0199999999999999E-002     12.292137819798908     
   7.0500000000000007E-002     13.534082239100412     
   7.0800000000000016E-002     13.896887845577055     
   7.1099999999999997E-002     13.275134058770172     
   7.1400000000000005E-002     11.642200185835495     
   7.1700000000000000E-002     9.0524466246398063     
   7.1999999999999995E-002     5.6449303570631120     
   7.2300000000000003E-002     1.6360922188562737     
   7.2600000000000012E-002    -2.6955394955630121     
   7.2900000000000006E-002    -7.0292872700436781     
   7.3200000000000001E-002    -11.027022023447959     
   7.3499999999999996E-002    -14.361697146134492     
   7.3800000000000004E-002    -16.742859610696435     
   7.4099999999999999E-002    -17.942368487852637     
   7.4400000000000008E-002    -17.812497065533922     
   7.4700000000000003E-002    -16.298737692523659     
   7.5000000000000011E-002    -13.445898916637709     
   7.5299999999999992E-002    -9.3935855147847533     
   7.5600000000000001E-002    -4.3679328421040680     
   7.5900000000000009E-002     1.3376107563689228     
   7.6200000000000004E-002     7.3799005567350058     
   7.6499999999999999E-002     13.394943844933065     
   7.6800000000000007E-002     19.018941446615159     
   7.7099999999999988E-002     23.914832161685943     
   7.7399999999999997E-002     27.794216450380365     
   7.7700000000000005E-002     30.430495837343688     
   7.8000000000000014E-002     31.678319609667138     
   7.8299999999999995E-002     31.471493677386086     
   7.8600000000000003E-002     29.830625503061146     
   7.8900000000000012E-002     26.855625454755206     
   7.9199999999999993E-002     22.714652654702505     
   7.9500000000000001E-002     17.635373719757116     
   7.9800000000000010E-002     11.884440386657110     
   8.0100000000000018E-002     5.7510539025673495     
   8.0399999999999999E-002   -0.46821290975707219     
   8.0700000000000008E-002    -6.4916923334775731     
   8.1000000000000003E-002    -12.064480035572046     
   8.1299999999999997E-002    -16.972405349257084     
   8.1600000000000006E-002    -21.051853441648163     
   8.1900000000000014E-002    -24.195674287796756     
   8.2199999999999995E-002    -26.352654334359148     
   8.2500000000000004E-002    -27.528592301248104     
   8.2799999999999999E-002    -27.778105020030203     
   8.3100000000000007E-002    -27.195344721445746     
   8.3400000000000002E-002    -25.906240094702195     
   8.3700000000000011E-002    -24.053391265644311     
   8.4000000000000005E-002    -21.784578387368278     
   8.4300000000000000E-002    -19.244858463116980     
   8.4599999999999995E-002    -16.560884752570580     
   8.4900000000000003E-002    -13.842322573532496     
   8.5199999999999998E-002    -11.169377742559631     
   8.5500000000000007E-002    -8.5980062363496597     
   8.5800000000000001E-002    -6.1594008904747533     
   8.6100000000000010E-002    -3.8613421973310134     
   8.6399999999999991E-002    -1.6986737836834562     
   8.6699999999999999E-002    0.34497149085444923     
   8.7000000000000008E-002     2.2892270263855039     
   8.7300000000000003E-002     4.1491982997898562     
   8.7599999999999997E-002     5.9363598616891151     
   8.7900000000000006E-002     7.6482971592301361     
   8.8200000000000014E-002     9.2759108911255730     
   8.8499999999999995E-002     10.793859415801315     
   8.8800000000000004E-002     12.173161750853193     
   8.9100000000000013E-002     13.374314486107084     
   8.9399999999999993E-002     14.358037993293784     
   8.9700000000000002E-002     15.085714689542002     
   9.0000000000000011E-002     15.522201061049941     
   9.0299999999999991E-002     15.645549976648667     
   9.0600000000000000E-002     15.439801914867143     
   9.0900000000000009E-002     14.907121138831826     
   9.1200000000000017E-002     14.062073808315297     
   9.1499999999999998E-002     12.932903369220639     
   9.1800000000000007E-002     11.562673373335748     
   9.2100000000000001E-002     10.001442746255655     
   9.2399999999999996E-002     8.3109186006031592     
   9.2700000000000005E-002     6.5524484561964353     
   9.3000000000000013E-002     4.7896323664163507     
   9.3300000000000008E-002     3.0804067496179668     
   9.3600000000000003E-002     1.4749392531127499     
   9.3899999999999997E-002     1.1830923308280061E-002
   9.4200000000000006E-002    -1.2818597791988720     
   9.4500000000000001E-002    -2.3938201968594752     
   9.4800000000000009E-002    -3.3240116497926828     
   9.5100000000000004E-002    -4.0840114324660268     
   9.5399999999999999E-002    -4.6950863283290492     
   9.5699999999999993E-002    -5.1821423620471041     
   9.6000000000000002E-002    -5.5753436233458027     
   9.6300000000000011E-002    -5.9001368207565390     
   9.6600000000000005E-002    -6.1809673598142654     
   9.6900000000000000E-002    -6.4333389973680895     
   9.7200000000000009E-002    -6.6667317207227148     
   9.7499999999999989E-002    -6.8818158391436031     
   9.7799999999999998E-002    -7.0713906628876391     
   9.8100000000000007E-002    -7.2236613087914385     
   9.8400000000000015E-002    -7.3192615125945615     
   9.8699999999999996E-002    -7.3411584203558835     
   9.9000000000000005E-002    -7.2688964606787483     
   9.9300000000000013E-002    -7.0880687396289224     
   9.9599999999999994E-002    -6.7865614218163461     
   9.9900000000000003E-002    -6.3593058134369382     
  0.10020000000000001         -5.8092608226335249     
  0.10049999999999999         -5.1446519770267694     
  0.10080000000000000         -4.3819276113426628     
  0.10110000000000001         -3.5433894083114832     
  0.10140000000000000         -2.6546111429475365     
  0.10170000000000000         -1.7454454630415834     
  0.10200000000000001        -0.84435562301153366     
  0.10230000000000002          2.0665384491526911E-002
  0.10260000000000000         0.82553634253986585     
  0.10290000000000001          1.5512757363110685     
  0.10320000000000000          2.1847465244002962     
  0.10350000000000001          2.7207394770695363     
  0.10380000000000000          3.1587787201989950     
  0.10410000000000001          3.5062678463116779     
  0.10440000000000001          3.7735347152215746     
  0.10470000000000000          3.9744400035533420     
  0.10500000000000000          4.1229179487004641     
  0.10530000000000000          4.2312858947555707     
  0.10560000000000000          4.3110522941236677     
  0.10590000000000001          4.3653644236617195     
  0.10620000000000000          4.3981552349226281     
  0.10650000000000001          4.4039869595694734     
  0.10679999999999999          4.3763765435110411     
  0.10710000000000000          4.3060733757526650     
  0.10740000000000001          4.1818927923647591     
  0.10770000000000000          3.9970061121272176     
  0.10800000000000000          3.7438617977153328     
  0.10830000000000001          3.4231097854856976     
  0.10859999999999999          3.0369984957849621     
  0.10890000000000000          2.5948748451907502     
  0.10920000000000001          2.1106701392120297     
  0.10950000000000001          1.5996198916391318     
  0.10979999999999999          1.0803471697597742     
  0.11009999999999999         0.56914881687761787     
  0.11040000000000001          8.2031913947198692E-002
  0.11070000000000001        -0.37095607053444457     
  0.11100000000000000        -0.78240207942837103     
  0.11130000000000000         -1.1506316591631691     
  0.11160000000000002         -1.4782997954131025     
  0.11190000000000001         -1.7710678787026186     
  0.11220000000000001         -2.0363472838478378     
  0.11250000000000000         -2.2821428602362341     
  0.11280000000000000         -2.5131039247742981     
  0.11309999999999999         -2.7346241609337771     
  0.11340000000000001         -2.9435788153803215     
  0.11369999999999998         -3.1377531372397014     
  0.11400000000000000         -3.3078553631631311     
  0.11430000000000000         -3.4437687778557433     
  0.11460000000000002         -3.5335305802157677     
  0.11489999999999999         -3.5655958920385089     
  0.11520000000000001         -3.5309500967027168     
  0.11550000000000001         -3.4222034338393748     
  0.11580000000000000         -3.2377683631282488     
  0.11609999999999999         -2.9793558621431151     
  0.11640000000000002         -2.6533315844720815     
  0.11670000000000001         -2.2694539295110165     
  0.11700000000000001         -1.8407090971444937     
  0.11730000000000000         -1.3802071532999987     
  0.11760000000000000        -0.90307766374986675     
  0.11789999999999999        -0.42157336641995113     
  0.11820000000000001          5.1726802460948781E-002
  0.11850000000000001         0.50732365030991233     
  0.11880000000000000         0.93722468303736439     
  0.11910000000000000          1.3346364176927064     
  0.11940000000000002          1.6956574874243471     
  0.11970000000000001          2.0139868489760913     
  0.12000000000000001          2.2866326528135485     
  0.12030000000000000          2.5076844399943821     
  0.12060000000000000          2.6726731384341269     
  0.12089999999999999          2.7775578586623979     
  0.12119999999999999          2.8164405917073894     
  0.12150000000000001          2.7874809200617383     
  0.12180000000000001          2.6885526067071308     
  0.12210000000000000          2.5214437387651447     
  0.12239999999999999          2.2908828215312425     
  0.12270000000000002          2.0038143878624730     
  0.12300000000000001          1.6726170451029787     
  0.12330000000000001          1.3103819176161635     
  0.12360000000000000         0.93394296656156151     
  0.12390000000000000         0.56035569437444732     
  0.12419999999999999         0.20722900938949734     
  0.12450000000000001        -0.10914039390670432     
  0.12480000000000001        -0.37458762020616376     
  0.12509999999999999        -0.57860553966689066     
  0.12540000000000001        -0.71428805302726861     
  0.12570000000000003        -0.78101136608753619     
  0.12600000000000000        -0.77932938357972370     
  0.12630000000000002        -0.71896567054647531     
  0.12659999999999999        -0.60960520973791799     
  0.12690000000000001        -0.46637258324968056     
  0.12719999999999998        -0.30627571497018846     
  0.12750000000000000        -0.14486658114545214     
  0.12780000000000002         -1.3648775325698359E-003
  0.12809999999999999         0.11275548951657235     
  0.12840000000000001         0.18343804697486993     
  0.12869999999999998         0.20388860517013374     
  0.12900000000000000         0.17259242038968370     
  0.12930000000000003          8.8856049340165999E-002
  0.12959999999999999         -3.7542436178838068E-002
  0.12990000000000002        -0.19893876572146479     
  0.13019999999999998        -0.37959811432325713     
  0.13050000000000000        -0.56510030130480338     
  0.13080000000000003        -0.73984898573828795     
  0.13109999999999999        -0.88755898000376132     
  0.13140000000000002        -0.99771500629246024     
  0.13169999999999998         -1.0593723224842178     
  0.13200000000000001         -1.0691576123952284     
  0.13229999999999997         -1.0255716444776546     
  0.13260000000000000        -0.93274423545752749     
  0.13290000000000002        -0.79916031638489959     
  0.13319999999999999        -0.63382533808170805     
  0.13350000000000001        -0.45197227572258425     
  0.13380000000000003        -0.26405729977945758     
  0.13410000000000000         -8.4107016976701046E-002
  0.13440000000000002          7.6869885232151006E-002
  0.13469999999999999         0.21234511989565041     
  0.13500000000000001         0.31539212611397283     
  0.13529999999999998         0.38642720171700784     
  0.13560000000000000         0.42633133174313798     
  0.13590000000000002         0.43910117458260944     
  0.13619999999999999         0.43382910449660478     
  0.13650000000000001         0.41571012244154226     
  0.13680000000000003         0.39607047850274185     
  0.13710000000000000         0.38015596502065258     
  0.13740000000000002         0.37509765566258746     
  0.13769999999999999         0.38527582880014238     
  0.13800000000000001         0.41048907380223976     
  0.13829999999999998         0.45091831542172989     
  0.13860000000000000         0.49972352277147658     
  0.13890000000000002         0.55282376853256876     
  0.13919999999999999         0.59885834571603325     
  0.13950000000000001         0.63068280346566929     
  0.13979999999999998         0.63747743290906833     
  0.14010000000000000         0.61200884102997644     
  0.14040000000000002         0.54912709673491045     
  0.14069999999999999         0.44378995339506311     
  0.14100000000000001         0.29989725355228836     
  0.14130000000000004         0.11894920987608310     
  0.14160000000000000         -8.8780341984325245E-002
  0.14189999999999997        -0.31314518871458707     
  0.14219999999999999        -0.53982112477688315     
  0.14250000000000002        -0.75502276726267359     
  0.14279999999999998        -0.94356202234789910     
  0.14310000000000000         -1.0928659999541375     
  0.14339999999999997         -1.1933476852595173     
  0.14369999999999999         -1.2366796715526205     
  0.14400000000000002         -1.2228946651257642     
  0.14429999999999998         -1.1512589609548927     
  0.14460000000000001         -1.0299249797566774     
  0.14490000000000003        -0.86716552528438673     
  0.14520000000000000        -0.67514284101369781     
  0.14550000000000002        -0.46772456966433157     
  0.14579999999999999        -0.25714111632709602     
  0.14610000000000001         -5.7552873788297571E-002
  0.14640000000000003         0.12223679085094225     
  0.14670000000000000         0.27251166531810711     
  0.14699999999999996         0.38950894279013693     
  0.14729999999999999         0.47089023695507115     
  0.14760000000000001         0.51776352152509308     
  0.14789999999999998         0.53373235826838661     
  0.14820000000000000         0.52288072354699522     