  -1.4999999999999999E-002     0.0000000000000000     
  -1.4700000000000000E-002     0.0000000000000000     
  -1.4400000000000000E-002     0.0000000000000000     
  -1.4100000000000000E-002     0.0000000000000000     
  -1.3800000000000000E-002     0.0000000000000000     
  -1.3500000000000000E-002     0.0000000000000000     
  -1.3200000000000000E-002     0.0000000000000000     
  -1.2899999999999998E-002     0.0000000000000000     
  -1.2600000000000000E-002     0.0000000000000000     
  -1.2299999999999998E-002     0.0000000000000000     
  -1.2000000000000000E-002     0.0000000000000000     
  -1.1699999999999999E-002     0.0000000000000000     
  -1.1399999999999999E-002     0.0000000000000000     
  -1.1099999999999999E-002     0.0000000000000000     
  -1.0799999999999999E-002     0.0000000000000000     
  -1.0499999999999999E-002     0.0000000000000000     
  -1.0199999999999999E-002     0.0000000000000000     
  -9.8999999999999991E-003     0.0000000000000000     
  -9.5999999999999992E-003     0.0000000000000000     
  -9.2999999999999992E-003     0.0000000000000000     
  -8.9999999999999993E-003     0.0000000000000000     
  -8.6999999999999994E-003     0.0000000000000000     
  -8.3999999999999995E-003     0.0000000000000000     
  -8.0999999999999996E-003    -2.3173180368281934E-035
  -7.7999999999999988E-003     2.0736261903935447E-035
  -7.4999999999999997E-003     3.4680543268895989E-034
  -7.1999999999999998E-003    -2.9874512704842928E-034
  -6.8999999999999981E-003    -1.6554695777762477E-033
  -6.5999999999999982E-003     4.5898317496835471E-033
  -6.3000000000000000E-003     7.7720574774179151E-033
  -6.0000000000000001E-003    -5.7557543775068622E-033
  -5.6999999999999985E-003    -6.9216216358035447E-032
  -5.3999999999999986E-003    -1.2460793715673676E-031
  -5.1000000000000004E-003     7.3372817491113639E-031
  -4.7999999999999987E-003     3.5881785237654123E-031
  -4.5000000000000005E-003    -3.0584797452471428E-030
  -4.1999999999999989E-003     2.4711548377506084E-030
  -3.8999999999999990E-003    -1.7940106752195089E-029
  -3.5999999999999990E-003     6.2442955549860391E-029
  -3.2999999999999991E-003     7.3114556688514327E-030
  -2.9999999999999992E-003    -2.8711055821187507E-028
  -2.6999999999999993E-003     5.5634347969123831E-028
  -2.3999999999999994E-003    -1.4188617413679802E-027
  -2.0999999999999977E-003     3.2229162108363384E-027
  -1.7999999999999995E-003    -6.6076504395011763E-028
  -1.4999999999999979E-003    -9.8432695459082363E-027
  -1.1999999999999997E-003     2.3347395178896720E-026
  -8.9999999999999976E-004    -6.9429540686510474E-026
  -5.9999999999999810E-004     1.8990032749719962E-025
  -2.9999999999999992E-004    -2.6962623579030558E-025
   0.0000000000000000          3.0400595300359735E-026
   3.0000000000000165E-004     1.2692083551778893E-024
   5.9999999999999984E-004    -5.6426381742474608E-024
   9.0000000000000149E-004     1.2943761354590687E-023
   1.2000000000000031E-003    -1.1005470534451193E-023
   1.5000000000000013E-003    -2.8531268576847080E-023
   1.8000000000000030E-003     1.3439489017634366E-022
   2.1000000000000012E-003    -2.6692592897373428E-022
   2.3999999999999994E-003     1.6365668609654938E-022
   2.7000000000000010E-003     6.6964440359990507E-022
   2.9999999999999992E-003    -2.3316648788632433E-021
   3.3000000000000008E-003     3.3384002548343628E-021
   3.6000000000000025E-003    -3.5064703315414417E-023
   3.9000000000000007E-003    -1.1154288311434333E-020
   4.2000000000000023E-003     2.6263255106399894E-020
   4.5000000000000005E-003    -2.5651305530552247E-020
   4.7999999999999987E-003    -1.8893088598523800E-020
   5.1000000000000004E-003     1.1329428585344279E-019
   5.4000000000000020E-003    -2.0321008056562157E-019
   5.7000000000000037E-003     1.6064583454049984E-019
   5.9999999999999984E-003     1.6155366194166647E-019
   6.3000000000000000E-003    -7.8883809378005580E-019
   6.6000000000000017E-003     1.4590702644508312E-018
   6.9000000000000034E-003    -1.4553462698194419E-018
   7.2000000000000015E-003    -4.8761299480916613E-019
   7.5000000000000032E-003     5.4902480632957168E-018
   7.8000000000000014E-003    -1.2143216465505608E-017
   8.0999999999999996E-003     1.3361679532686349E-017
   8.4000000000000012E-003     3.2905968724054848E-018
   8.7000000000000029E-003    -4.4942709733776388E-017
   9.0000000000000011E-003     9.1074962286046033E-017
   9.2999999999999992E-003    -7.9807886246297723E-017
   9.6000000000000009E-003    -5.9579366476264550E-017
   9.8999999999999991E-003     3.1600352970603622E-016
   1.0200000000000001E-002    -5.0420327847977943E-016
   1.0500000000000002E-002     2.9574391143330064E-016
   1.0800000000000004E-002     5.2026139958890924E-016
   1.1099999999999999E-002    -1.6466017021115797E-015
   1.1400000000000000E-002     2.1206978330572773E-015
   1.1700000000000002E-002    -7.5976773259059154E-016
   1.2000000000000004E-002    -2.7496666839554059E-015
   1.2300000000000002E-002     6.7066849926762471E-015
   1.2600000000000000E-002    -7.4639140179642461E-015
   1.2900000000000002E-002     1.6341324864872333E-015
   1.3200000000000000E-002     1.0389861817569270E-014
   1.3500000000000002E-002    -2.2205054106914146E-014
   1.3800000000000003E-002     2.3513826184996883E-014
   1.4100000000000001E-002    -6.9666188805448763E-015
   1.4400000000000000E-002    -2.5447207990405743E-014
   1.4700000000000001E-002     6.2026317565443975E-014
   1.4999999999999999E-002    -8.4288462259937404E-014
   1.5300000000000001E-002     6.6106720908472558E-014
   1.5600000000000003E-002     2.7621681498771971E-014
   1.5899999999999997E-002    -2.1643645173571907E-013
   1.6199999999999999E-002     4.2450048563890258E-013
   1.6500000000000001E-002    -4.0084951677654792E-013
   1.6800000000000002E-002    -1.6974576292723961E-013
   1.7100000000000004E-002     1.2315184728176491E-012
   1.7400000000000006E-002    -1.8945487097597630E-012
   1.7700000000000000E-002     7.5365474308181380E-013
   1.8000000000000002E-002     2.5025931375169301E-012
   1.8300000000000004E-002    -5.4513436998358561E-012
   1.8600000000000005E-002     4.0348781132950280E-012
   1.8900000000000000E-002     3.3021830668110070E-012
   1.9200000000000002E-002    -1.3281645511477666E-011
   1.9500000000000003E-002     1.9029666444186828E-011
   1.9799999999999998E-002    -5.4882461211681843E-012
   2.0100000000000000E-002    -5.0497985188716914E-011
   2.0400000000000001E-002     1.1412700941970383E-010
   2.0700000000000003E-002    -1.2632836230251422E-011
   2.0999999999999998E-002    -2.8986035604864524E-010
   2.1299999999999999E-002     1.7567768607154316E-010
   2.1600000000000001E-002     5.1424253870229302E-010
   2.1900000000000003E-002     1.1517113960879504E-009
   2.2200000000000004E-002    -4.9869656897693087E-009
   2.2500000000000006E-002    -9.4240154822497749E-009
   2.2800000000000001E-002     4.0796209026430664E-008
   2.3100000000000002E-002     2.7531266496270938E-008
   2.3400000000000004E-002    -2.3592313457068336E-007
   2.3699999999999999E-002    -3.7746862231259109E-008
   2.4000000000000000E-002     2.2049565917823800E-006
   2.4300000000000002E-002     7.3712026254067219E-006
   2.4599999999999997E-002     1.4403168129785033E-005
   2.4900000000000005E-002     2.0931477673347190E-005
   2.5200000000000000E-002     2.8639502190021675E-005
   2.5499999999999995E-002     4.3540507826119270E-005
   2.5800000000000003E-002     6.6617281707338747E-005
   2.6099999999999998E-002     9.9031609095790590E-005
   2.6400000000000007E-002     1.4335769085969374E-004
   2.6700000000000002E-002     2.0165624643404419E-004
   2.6999999999999996E-002     3.0188118592084094E-004
   2.7300000000000005E-002     4.5921196046260426E-004
   2.7600000000000000E-002     6.4966359521177524E-004
   2.7900000000000008E-002     8.9031293798033249E-004
   2.8200000000000003E-002     1.2148738076411191E-003
   2.8499999999999998E-002     1.6328839969670648E-003
   2.8800000000000006E-002     2.1552875361846185E-003
   2.9100000000000001E-002     2.7834457861040636E-003
   2.9400000000000003E-002     3.5228146667897718E-003
   2.9700000000000004E-002     4.3543165009126434E-003
   3.0000000000000006E-002     5.2343213833115710E-003
   3.0300000000000001E-002     6.0860541043351469E-003
   3.0600000000000002E-002     6.7917028201850685E-003
   3.0900000000000004E-002     7.2272321165216171E-003
   3.1199999999999999E-002     7.1999117642494569E-003
   3.1500000000000007E-002     6.4482291655127639E-003
   3.1800000000000002E-002     4.6689689559665836E-003
   3.2099999999999997E-002     1.5638572546385610E-003
   3.2400000000000005E-002    -3.1776933023860742E-003
   3.2700000000000000E-002    -9.8633687745929254E-003
   3.3000000000000002E-002    -1.8697763863565010E-002
   3.3300000000000003E-002    -2.9769835710168311E-002
   3.3599999999999998E-002    -4.2950177970000017E-002
   3.3900000000000000E-002    -5.7820054951111741E-002
   3.4200000000000001E-002    -7.3621656889393608E-002
   3.4500000000000003E-002    -8.9234096031213336E-002
   3.4799999999999998E-002   -0.10308769142720139     
   3.5099999999999999E-002   -0.11319070907018426     
   3.5400000000000001E-002   -0.11717545863298190     
   3.5699999999999996E-002   -0.11237229265055353     
   3.6000000000000004E-002    -9.6020197173205799E-002
   3.6299999999999999E-002    -6.5412823171256004E-002
   3.6600000000000008E-002    -1.8221476661511277E-002
   3.6900000000000002E-002     4.7321295250317752E-002
   3.7199999999999997E-002    0.13203560409242712     
   3.7500000000000006E-002    0.23550709698141456     
   3.7800000000000000E-002    0.35592977916787544     
   3.8100000000000009E-002    0.48981907354509968     
   3.8400000000000004E-002    0.63203552465690893     
   3.8699999999999998E-002    0.77582369074241986     
   3.9000000000000007E-002    0.91300140338649738     
   3.9300000000000002E-002     1.0342873844883049     
   3.9600000000000003E-002     1.1297954879528753     
   3.9900000000000005E-002     1.1895328157775023     
   4.0200000000000000E-002     1.2041552665558117     
   4.0500000000000001E-002     1.1656772479760271     
   4.0800000000000003E-002     1.0680679618073530     
   4.1100000000000005E-002    0.90796040110754661     
   4.1399999999999999E-002    0.68499455376069340     
   4.1700000000000008E-002    0.40228914352533074     
   4.2000000000000003E-002     6.6704546197808343E-002
   4.2299999999999997E-002   -0.31161208339805369     
   4.2600000000000006E-002   -0.71915904085829785     
   4.2900000000000001E-002    -1.1399124213107927     
   4.3200000000000002E-002    -1.5559621606417604     
   4.3500000000000004E-002    -1.9484073866285319     
   4.3799999999999999E-002    -2.2982841653366548     
   4.4100000000000000E-002    -2.5876895255952439     
   4.4400000000000002E-002    -2.8008588724816876     
   4.4700000000000004E-002    -2.9248575206737750     
   4.4999999999999998E-002    -2.9506627569883479     
   4.5300000000000000E-002    -2.8733579132645044     
   4.5600000000000002E-002    -2.6929363137683295     
   4.5899999999999996E-002    -2.4139438857702071     
   4.6200000000000005E-002    -2.0456837226564768     
   4.6500000000000000E-002    -1.6017316174465417     
   4.6799999999999994E-002    -1.0991813485682016     
   4.7100000000000003E-002   -0.55830272819066096     
   4.7399999999999998E-002    -1.0159373162423823E-003
   4.7700000000000006E-002    0.54975059318699793     
   4.8000000000000001E-002     1.0710803793501875     
   4.8300000000000010E-002     1.5418247739139879     
   4.8600000000000004E-002     1.9431961535524529     
   4.8899999999999999E-002     2.2600477851164169     
   4.9200000000000008E-002     2.4815593985026401     
   4.9500000000000002E-002     2.6021579590772048     
   4.9800000000000011E-002     2.6221083497873661     
   5.0100000000000006E-002     2.5469180401825664     
   5.0400000000000000E-002     2.3882347320511275     
   5.0700000000000009E-002     2.1617573359950693     
   5.1000000000000004E-002     1.8868026454620301     
   5.1299999999999998E-002     1.5851252838651788     
   5.1600000000000007E-002     1.2787716991369997     
   5.1900000000000002E-002    0.98864375107930369     
   5.2200000000000010E-002    0.73269936648142420     
   5.2500000000000005E-002    0.52471288152254369     
   5.2800000000000000E-002    0.37268344858637870     
   5.3099999999999994E-002    0.27873642045491531     
   5.3400000000000003E-002    0.23863797459338035     
   5.3699999999999998E-002    0.24242075358042492     
   5.4000000000000006E-002    0.27601087814626496     
   5.4300000000000001E-002    0.32213214985383498     
   5.4599999999999996E-002    0.36262710067467685     
   5.4900000000000004E-002    0.38013635380745492     
   5.5199999999999999E-002    0.35947294303514360     
   5.5499999999999994E-002    0.28968376921250732     
   5.5800000000000002E-002    0.16520399331699831     
   5.6099999999999997E-002    -1.4763536170369039E-002
   5.6400000000000006E-002   -0.24417082791807385     
   5.6700000000000000E-002   -0.51271619915737676     
   5.6999999999999995E-002   -0.80659178711144197     
   5.7300000000000004E-002    -1.1084849153042227     
   5.7599999999999998E-002    -1.4008864800278933     
   5.7900000000000007E-002    -1.6661837848551826     
   5.8200000000000002E-002    -1.8888728264880759     
   5.8499999999999996E-002    -2.0564390133128367     
   5.8800000000000005E-002    -2.1599925505876825     
   5.9100000000000000E-002    -2.1942945474532300     
   5.9400000000000008E-002    -2.1583355395980779     
   5.9700000000000003E-002    -2.0556460294548153     
   6.0000000000000012E-002    -1.8924370599974050     
   6.0300000000000006E-002    -1.6786171886851609     
   6.0600000000000001E-002    -1.4261204581668228     
   6.0900000000000010E-002    -1.1478009684670374     
   6.1200000000000004E-002   -0.85784885733584693     
   6.1500000000000013E-002   -0.56978901528825487     
   6.1800000000000008E-002   -0.29699487737316593     
   6.2100000000000002E-002    -5.1444608265882714E-002
   6.2399999999999997E-002    0.15745008394724830     
   6.2700000000000006E-002    0.32204485862302584     
   6.3000000000000000E-002    0.43877149862864767     
   6.3300000000000009E-002    0.50731374186782074     
   6.3600000000000004E-002    0.53103001254626303     
   6.3899999999999998E-002    0.51752020130701737     
   6.4199999999999993E-002    0.47737638192806581     
   6.4500000000000002E-002    0.42454782999138541     
   6.4800000000000010E-002    0.37503189641987267     
   6.5100000000000005E-002    0.34623048573779630     
   6.5400000000000000E-002    0.35532124020468248     
   6.5700000000000008E-002    0.41853486274327228     
   6.5999999999999989E-002    0.54811134635585623     
   6.6299999999999998E-002    0.75279144423209221     
   6.6600000000000006E-002     1.0353620607357901     
   6.6900000000000001E-002     1.3920912296522110     
   6.7199999999999996E-002     1.8133059509290708     
   6.7500000000000004E-002     2.2809909581292556     
   6.7800000000000013E-002     2.7723731035233237     
   6.8099999999999994E-002     3.2589582660415974     
   6.8400000000000002E-002     3.7086314617190435     
   6.8700000000000011E-002     4.0882050614739258     
   6.8999999999999992E-002     4.3645841809434360     
   6.9300000000000000E-002     4.5078151008139118     
   6.9600000000000009E-002     4.4925467725081099     
   6.9900000000000004E-002     4.2995001920867226     
   7.0199999999999999E-002     3.9183642324874439     
   7.0500000000000007E-002     3.3470996994831568     
   7.0800000000000016E-002     2.5933047554267921     
   7.1099999999999997E-002     1.6745689702318984     
   7.1400000000000005E-002    0.61607709558487533     
   7.1700000000000000E-002   -0.54873135037925080     
   7.1999999999999995E-002    -1.7796746098308021     
   7.2300000000000003E-002    -3.0326894706790801     
   7.2600000000000012E-002    -4.2591621441757637     
   7.2900000000000006E-002    -5.4103934873623567     
   7.3200000000000001E-002    -6.4379761820332853     
   7.3499999999999996E-002    -7.2960666247508135     
   7.3800000000000004E-002    -7.9442604937663539     
   7.4099999999999999E-002    -8.3486084125497459     
   7.4400000000000008E-002    -8.4840244534649525     
   7.4700000000000003E-002    -8.3351263258686448     
   7.5000000000000011E-002    -7.8987788249363380     
   7.5299999999999992E-002    -7.1835497608159100     
   7.5600000000000001E-002    -6.2119487090735293     
   7.5900000000000009E-002    -5.0176966414431519     
   7.6200000000000004E-002    -3.6467206073799883     
   7.6499999999999999E-002    -2.1543747280421899     
   7.6800000000000007E-002   -0.60281610060946178     
   7.7099999999999988E-002    0.94184448197006143     
   7.7399999999999997E-002     2.4129267637030836     
   7.7700000000000005E-002     3.7482701901977635     
   7.8000000000000014E-002     4.8918673734000562     
   7.8299999999999995E-002     5.7995712963437613     
   7.8600000000000003E-002     6.4401333881923684     
   7.8900000000000012E-002     6.7981141374253431     
   7.9199999999999993E-002     6.8744457606944787     
   7.9500000000000001E-002     6.6870811776839139     
   7.9800000000000010E-002     6.2679179347007032     
   8.0100000000000018E-002     5.6631343749335246     
   8.0399999999999999E-002     4.9278342798646158     
   8.0700000000000008E-002     4.1226207940918833     
   8.1000000000000003E-002     3.3104538301746591     
   8.1299999999999997E-002     2.5510519995072571     
   8.1600000000000006E-002     1.8965158437265541     
   8.1900000000000014E-002     1.3893983126206133     
   8.2199999999999995E-002     1.0581040007989186     
   8.2500000000000004E-002    0.91663964255992658     
   8.2799999999999999E-002    0.96248491513923928     
   8.3100000000000007E-002     1.1781044886080776     
   8.3400000000000002E-002     1.5311567622432225     
   8.3700000000000011E-002     1.9783810403406283     
   8.4000000000000005E-002     2.4665371401048586     
   8.4300000000000000E-002     2.9390291373774144     
   8.4599999999999995E-002     3.3370720678646464     
   8.4900000000000003E-002     3.6062373519015924     
   8.5199999999999998E-002     3.6996316297217962     
   8.5500000000000007E-002     3.5797299614900830     
   8.5800000000000001E-002     3.2229420198945657     
   8.6100000000000010E-002     2.6205404927914664     
   8.6399999999999991E-002     1.7796616058543993     
   8.6699999999999999E-002    0.72335632437867070     
   8.7000000000000008E-002   -0.50936393100216826     
   8.7300000000000003E-002    -1.8665412523900773     
   8.7599999999999997E-002    -3.2865411558313005     
   8.7900000000000006E-002    -4.7015917271569627     
   8.8200000000000014E-002    -6.0411055666001703     
   8.8499999999999995E-002    -7.2382262871991072     
   8.8800000000000004E-002    -8.2321333069595237     
   8.9100000000000013E-002    -8.9747585773115404     
   8.9399999999999993E-002    -9.4338259431731988     
   8.9700000000000002E-002    -9.5942501836715426     
   9.0000000000000011E-002    -9.4633354906365650     
   9.0299999999999991E-002    -9.0660013748457757     
   9.0600000000000000E-002    -8.4459957403314423     
   9.0900000000000009E-002    -7.6615160875046859     
   9.1200000000000017E-002    -6.7775019181587419     
   9.1499999999999998E-002    -5.8638251376056019     
   9.1800000000000007E-002    -4.9819786683176863     
   9.2100000000000001E-002    -4.1828863365826852     
   9.2399999999999996E-002    -3.4975594868990654     
   9.2700000000000005E-002    -2.9342621842431758     
   9.3000000000000013E-002    -2.4763721233174567     
   9.3300000000000008E-002    -2.0813368311022287     
   9.3600000000000003E-002    -1.6875451296476818     
   9.3899999999999997E-002    -1.2195016542421167     
   9.4200000000000006E-002   -0.59991753579089679     
   9.4500000000000001E-002    0.24235542971351742     
   9.4800000000000009E-002     1.3593455278637097     
   9.5100000000000004E-002     2.7714096675900048     
   9.5399999999999999E-002     4.4626357471863756     
   9.5699999999999993E-002     6.3720711004387116     
   9.6000000000000002E-002     8.3976511133044252     
   9.6300000000000011E-002     10.397310731927192     
   9.6600000000000005E-002     12.202288219158984     
   9.6900000000000000E-002     13.628192546017949     
   9.7200000000000009E-002     14.493330628184802     
   9.7499999999999989E-002     14.638643888526794     
   9.7799999999999998E-002     13.943577398547763     
   9.8100000000000007E-002     12.345893416898388     
   9.8400000000000015E-002     9.8514179407695703     
   9.8699999999999996E-002     6.5412118606438678     
   9.9000000000000005E-002     2.5737517745982061     
   9.9300000000000013E-002    -1.8256119278495311     
   9.9599999999999994E-002    -6.3747022638552817     
   9.9900000000000003E-002    -10.756979455783767     
  0.10020000000000001         -14.643168120233549     
  0.10049999999999999         -17.719246657096363     
  0.10080000000000000         -19.712574826788032     
  0.10110000000000001         -20.415736086703046     
  0.10140000000000000         -19.707541314599254     
  0.10170000000000000         -17.562391983797880     
  0.10200000000000001         -14.058966229575683     
  0.10230000000000002         -9.3752521119718555     
  0.10260000000000000         -3.7764688542012306     
  0.10290000000000001          2.4047037814338923     
  0.10320000000000000          8.7896513532560085     
  0.10350000000000001          14.985215885729762     
  0.10380000000000000          20.611239415385867     
  0.10410000000000001          25.325310886361965     
  0.10440000000000001          28.851628628066774     
  0.10470000000000000          30.993091039252086     
  0.10500000000000000          31.645310832545853     
  0.10530000000000000          30.800021558764083     
  0.10560000000000000          28.536225601947503     
  0.10590000000000001          25.012793665944010     
  0.10620000000000000          20.451516073604580     
  0.10650000000000001          15.113792105379945     
  0.10679999999999999          9.2838958744134032     
  0.10710000000000000          3.2444823941384575     
  0.10740000000000001         -2.7409333289304363     
  0.10770000000000000         -8.4422315795670198     
  0.10800000000000000         -13.672320045265144     
  0.10830000000000001         -18.293999557462779     
  0.10859999999999999         -22.217904152902737     
  0.10890000000000000         -25.394997802414327     
  0.10920000000000001         -27.814608889622662     
  0.10950000000000001         -29.490226183931089     
  0.10979999999999999         -30.452697236504346     
  0.11009999999999999         -30.740426514132796     
  0.11040000000000001         -30.389634568615481     
  0.11070000000000001         -29.433490194106543     
  0.11100000000000000         -27.899939862723979     
  0.11130000000000000         -25.813660851979243     
  0.11160000000000002         -23.200522532475595     
  0.11190000000000001         -20.094681705555864     
  0.11220000000000001         -16.542286674970079     
  0.11250000000000000         -12.606144526759548     
  0.11280000000000000         -8.3667863840738352     
  0.11309999999999999         -3.9255086761017939     
  0.11340000000000001         0.59653690593949082     
  0.11369999999999998          5.0679090016331960     
  0.11400000000000000          9.3486961898812222     
  0.11430000000000000          13.303099295288693     
  0.11460000000000002          16.806275191686904     
  0.11489999999999999          19.753371197713061     
  0.11520000000000001          22.066790646560818     
  0.11550000000000001          23.698195598918353     
  0.11580000000000000          24.632958597834925     
  0.11609999999999999          24.888011177412466     
  0.11640000000000002          24.511986914754225     
  0.11670000000000001          23.574917932878140     
  0.11700000000000001          22.168337897373966     
  0.11730000000000000          20.393204682930797     
  0.11760000000000000          18.351921935513083     
  0.11789999999999999          16.145834721385871     
  0.11820000000000001          13.861944845062833     
  0.11850000000000001          11.576939169338804     
  0.11880000000000000          9.3471788954796491     
  0.11910000000000000          7.2118462113707125     
  0.11940000000000002          5.1906154198414720     
  0.11970000000000001          3.2883206952491451     
  0.12000000000000001          1.4957394110246398     
  0.12030000000000000        -0.20340923436970124     
  0.12060000000000000         -1.8287034895163430     
  0.12089999999999999         -3.3988176985745926     
  0.12119999999999999         -4.9272553838760942     
  0.12150000000000001         -6.4182904371263110     
  0.12180000000000001         -7.8661979514469573     
  0.12210000000000000         -9.2546724796152269     
  0.12239999999999999         -10.555016053282255     
  0.12270000000000002         -11.730333872056375     
  0.12300000000000001         -12.738690013524122     
  0.12330000000000001         -13.535189303091137     
  0.12360000000000000         -14.078831372615555     
  0.12390000000000000         -14.333778093424550     
  0.12419999999999999         -14.275341697111848     
  0.12450000000000001         -13.892957379532243     
  0.12480000000000001         -13.188870090217765     
  0.12509999999999999         -12.183928104689551     
  0.12540000000000001         -10.910840546018077     
  0.12570000000000003         -9.4174694682746427     
  0.12600000000000000         -7.7600339748765261     
  0.12630000000000002         -6.0032337177196817     
  0.12659999999999999         -4.2163292984088283     
  0.12690000000000001         -2.4672151793343469     
  0.12719999999999998        -0.81825552500465859     
  0.12750000000000000         0.67536541685752727     
  0.12780000000000002          1.9728891549136527     
  0.12809999999999999          3.0454260322450746     
  0.12840000000000001          3.8784665488193260     
  0.12869999999999998          4.4715316019706881     
  0.12900000000000000          4.8403947262192890     
  0.12930000000000003          5.0105226029619585     
  0.12959999999999999          5.0218040931735901     
  0.12990000000000002          4.9188396864842847     
  0.13019999999999998          4.7507784218437523     
  0.13050000000000000          4.5640961885472322     
  0.13080000000000003          4.3992387923465621     
  0.13109999999999999          4.2913853731737541     
  0.13140000000000002          4.2618658123618074     
  0.13169999999999998          4.3208777502926576     
  0.13200000000000001          4.4631678720149326     
  0.13229999999999997          4.6689817660601625     
  0.13260000000000000          4.9071085309528115     
  0.13290000000000002          5.1372687768567955     
  0.13319999999999999          5.3167531518378572     
  0.13350000000000001          5.4011771753377440     
  0.13380000000000003          5.3499410228012962     
  0.13410000000000000          5.1309254171069529     
  0.13440000000000002          4.7237937286741190     
  0.13469999999999999          4.1246053742292972     
  0.13500000000000001          3.3464855360164476     
  0.13529999999999998          2.4192081673022456     
  0.13560000000000000          1.3857162710320767     
  0.13590000000000002         0.29931517745765379     
  0.13619999999999999        -0.78187313258658031     
  0.13650000000000001         -1.7990204824784219     
  0.13680000000000003         -2.6949702467979066     
  0.13710000000000000         -3.4233259290472122     
  0.13740000000000002         -3.9499670865555370     
  0.13769999999999999         -4.2568046619607909     
  0.13800000000000001         -4.3452536699528981     
  0.13829999999999998         -4.2313119979099483     
  0.13860000000000000         -3.9471477969162132     
  0.13890000000000002         -3.5356170467700152     
  0.13919999999999999         -3.0482215006341584     
  0.13950000000000001         -2.5387121527057519     
  0.13979999999999998         -2.0586019623548277     
  0.14010000000000000         -1.6530564701767891     
  0.14040000000000002         -1.3548885111823148     
  0.14069999999999999         -1.1863101151156343     
  0.14100000000000001         -1.1523657424579494     
  0.14130000000000004         -1.2449666857686292     
  0.14160000000000000         -1.4421497057647097     
  0.14189999999999997         -1.7097693260642584     
  0.14219999999999999         -2.0054133831698309     
  0.14250000000000002         -2.2829996161641115     
  0.14279999999999998         -2.4976032873678680     
  0.14310000000000000         -2.6082602690893517     
  0.14339999999999997         -2.5826233571311761     
  0.14369999999999999         -2.3978723163035660     
  0.14400000000000002         -2.0460122551040536     
  0.14429999999999998         -1.5314577313275120     
  0.14460000000000001        -0.87462202628939556     
  0.14490000000000003        -0.10920918400254870     
  0.14520000000000000         0.72351262285123030     
  0.14550000000000002          1.5727704273233127     
  0.14579999999999999          2.3895343414191963     
  0.14610000000000001          3.1244687050370343     
  0.14640000000000003          3.7325066829489084     
  0.14670000000000000          4.1785294544634626     
  0.14699999999999996          4.4373128086043474     
  0.14729999999999999          4.4972693627537739     
  0.14760000000000001          4.3629548194029724     
  0.14789999999999998          4.0503599144685865     
  0.14820000000000000          3.5888690240587242     