  -1.4999999999999999E-002     0.0000000000000000     
  -1.4700000000000000E-002    -2.6275530972622357E-016
  -1.4400000000000000E-002    -5.0521492628331537E-015
  -1.4100000000000000E-002     1.6811340676527306E-012
  -1.3800000000000000E-002    -5.0272580402586847E-012
  -1.3500000000000000E-002    -1.8502112292505432E-011
  -1.3200000000000000E-002     8.1176650233113031E-012
  -1.2899999999999998E-002     1.5879136797866959E-010
  -1.2600000000000000E-002     6.7478728350295892E-011
  -1.2299999999999998E-002    -4.2882756850377109E-010
  -1.2000000000000000E-002    -9.5408471188616884E-010
  -1.1699999999999999E-002     4.6981923495112721E-010
  -1.1399999999999999E-002     3.0703598613590585E-009
  -1.1099999999999999E-002     2.0540015940867507E-009
  -1.0799999999999999E-002    -2.6341498663509085E-009
  -1.0499999999999999E-002    -1.2068074049917177E-008
  -1.0199999999999999E-002    -4.4926424838974399E-009
  -9.8999999999999991E-003     1.4254728677464485E-008
  -9.5999999999999992E-003     2.5294545090884871E-008
  -9.2999999999999992E-003     1.9200633140527272E-008
  -8.9999999999999993E-003    -3.4684709274549556E-008
  -8.6999999999999994E-003    -7.5211115353233191E-008
  -8.3999999999999995E-003    -2.8076391850751351E-008
  -8.0999999999999996E-003     4.2114850211744647E-008
  -7.7999999999999988E-003     1.4527295528288050E-007
  -7.4999999999999997E-003     1.4133659378953502E-007
  -7.1999999999999998E-003    -7.2491640018458333E-008
  -6.8999999999999981E-003    -2.6212118846454298E-007
  -6.5999999999999982E-003    -2.3618181668005084E-007
  -6.3000000000000000E-003    -1.6290179265749439E-007
  -6.0000000000000001E-003     3.6429408177048586E-007
  -5.6999999999999985E-003     6.7522830433403685E-007
  -5.3999999999999986E-003     2.1484492341906643E-007
  -5.1000000000000004E-003     1.1585560288449802E-007
  -4.7999999999999987E-003    -9.6301924687152138E-007
  -4.5000000000000005E-003    -1.3400864656428512E-006
  -4.1999999999999989E-003    -1.2588922140031212E-008
  -3.8999999999999990E-003     2.8399204122251427E-007
  -3.5999999999999990E-003     2.0202756768784238E-006
  -3.2999999999999991E-003     2.2922796213244531E-006
  -2.9999999999999992E-003    -1.2592935484011212E-006
  -2.6999999999999993E-003    -1.6194924051968147E-006
  -2.3999999999999994E-003    -2.0707431174390764E-006
  -2.0999999999999977E-003     2.5087718912379970E-006
  -1.7999999999999995E-003     2.4628743217134407E-005
  -1.4999999999999979E-003     5.5297460458413636E-005
  -1.1999999999999997E-003     9.6101516408902477E-005
  -8.9999999999999976E-004     1.5840832330887893E-004
  -5.9999999999999810E-004     2.3306259643442195E-004
  -2.9999999999999992E-004     3.4986009844154107E-004
   0.0000000000000000          5.5336816211200529E-004
   3.0000000000000165E-004     8.3362554357933947E-004
   5.9999999999999984E-004     1.2279058651593145E-003
   9.0000000000000149E-004     1.7915424140398778E-003
   1.2000000000000031E-003     2.5401434291828858E-003
   1.5000000000000013E-003     3.5977426147810543E-003
   1.8000000000000030E-003     5.0628904013883830E-003
   2.1000000000000012E-003     7.0220728040652561E-003
   2.3999999999999994E-003     9.6300816520991442E-003
   2.7000000000000010E-003     1.2886464151737703E-002
   2.9999999999999992E-003     1.6790332831142334E-002
   3.3000000000000008E-003     2.1325714804128228E-002
   3.6000000000000025E-003     2.6312584725960625E-002
   3.9000000000000007E-003     3.1500448761128771E-002
   4.2000000000000023E-003     3.6270388194182650E-002
   4.5000000000000005E-003     3.9556961865542167E-002
   4.7999999999999987E-003     3.9841971139104586E-002
   5.1000000000000004E-003     3.4930799665190040E-002
   5.4000000000000020E-003     2.1968560939897179E-002
   5.7000000000000037E-003    -2.6847705536667855E-003
   5.9999999999999984E-003    -4.3584642665657640E-002
   6.3000000000000000E-003   -0.10608298821598454     
   6.6000000000000017E-003   -0.19623693576498963     
   6.9000000000000034E-003   -0.32054020318437282     
   7.2000000000000015E-003   -0.48548494087843053     
   7.5000000000000032E-003   -0.69699015725748481     
   7.8000000000000014E-003   -0.95966664061778251     
   8.0999999999999996E-003    -1.2759865798523995     
   8.4000000000000012E-003    -1.6453238429969215     
   8.7000000000000029E-003    -2.0629677931556696     
   9.0000000000000011E-003    -2.5191349571628701     
   9.2999999999999992E-003    -2.9983896558581633     
   9.6000000000000009E-003    -3.4792700738592979     
   9.8999999999999991E-003    -3.9345451197815411     
   1.0200000000000001E-002    -4.3318944675055189     
   1.0500000000000002E-002    -4.6355606763325916     
   1.0800000000000004E-002    -4.8085312278282109     
   1.1099999999999999E-002    -4.8152553532607332     
   1.1400000000000000E-002    -4.6250540084497471     
   1.1700000000000002E-002    -4.2157795494840880     
   1.2000000000000004E-002    -3.5769449599442931     
   1.2300000000000002E-002    -2.7126112318108735     
   1.2600000000000000E-002    -1.6436925214599145     
   1.2900000000000002E-002   -0.40797370975254266     
   1.3200000000000000E-002    0.94046513679168464     
   1.3500000000000002E-002     2.3351455608421063     
   1.3800000000000003E-002     3.7005551461056494     
   1.4100000000000001E-002     4.9601256497342918     
   1.4400000000000000E-002     6.0431535584151748     
   1.4700000000000001E-002     6.8926068659000883     
   1.4999999999999999E-002     7.4735748874977705     
   1.5300000000000001E-002     7.7782202984710214     
   1.5600000000000003E-002     7.8307904630569638     
   1.5899999999999997E-002     7.6869644785685551     
   1.6199999999999999E-002     7.4317402405140918     
   1.6500000000000001E-002     7.1707889393008521     
   1.6800000000000002E-002     7.0207135838986332     
   1.7100000000000004E-002     7.0948986841319694     
   1.7400000000000006E-002     7.4872421930693775     
   1.7700000000000000E-002     8.2592420525901780     
   1.8000000000000002E-002     9.4233452435058531     
   1.8300000000000004E-002     10.937440113217175     
   1.8600000000000005E-002     12.696186734879250     
   1.8900000000000000E-002     14.539238490356956     
   1.9200000000000002E-002     16.255195282829842     
   1.9500000000000003E-002     17.603545662949127     
   1.9799999999999998E-002     18.331903880040255     
   2.0100000000000000E-002     18.205305368627222     
   2.0400000000000001E-002     17.030447970230856     
   2.0700000000000003E-002     14.679675301745860     
   2.0999999999999998E-002     11.113554570553857     
   2.1299999999999999E-002     6.3863065830732708     
   2.1600000000000001E-002    0.65885939468108168     
   2.1900000000000003E-002    -5.8210386798636096     
   2.2200000000000004E-002    -12.721625035611517     
   2.2500000000000006E-002    -19.664166825353938     
   2.2800000000000001E-002    -26.242343090549575     
   2.3100000000000002E-002    -32.064330175875376     
   2.3400000000000004E-002    -36.777253099320710     
   2.3699999999999999E-002    -40.098671972930333     
   2.4000000000000000E-002    -41.840053227887253     
   2.4300000000000002E-002    -41.912613797091318     
   2.4599999999999997E-002    -40.339586564672800     
   2.4900000000000005E-002    -37.241327068984141     
   2.5200000000000000E-002    -32.829208819850280     
   2.5499999999999995E-002    -27.377675072330192     
   2.5800000000000003E-002    -21.206821379506785     
   2.6099999999999998E-002    -14.651800793060215     
   2.6400000000000007E-002    -8.0409954931053029     
   2.6700000000000002E-002    -1.6737781885749756     
   2.6999999999999996E-002     4.1945409713735797     
   2.7300000000000005E-002     9.3655895102428843     
   2.7600000000000000E-002     13.701417852081155     
   2.7900000000000008E-002     17.126035106540893     
   2.8200000000000003E-002     19.618955484075265     
   2.8499999999999998E-002     21.212140529651201     
   2.8800000000000006E-002     21.973578054932595     
   2.9100000000000001E-002     22.004902394783059     
   2.9400000000000003E-002     21.422220691234294     
   2.9700000000000004E-002     20.355698770973522     
   3.0000000000000006E-002     18.933151638226690     
   3.0300000000000001E-002     17.275804250461810     
   3.0600000000000002E-002     15.496609761534504     
   3.0900000000000004E-002     13.686683469647289     
   3.1199999999999999E-002     11.926202790415825     
   3.1500000000000007E-002     10.267703428686122     
   3.1800000000000002E-002     8.7511999826053373     
   3.2099999999999997E-002     7.3906452258693740     
   3.2400000000000005E-002     6.1886026041482136     
   3.2700000000000000E-002     5.1298990622893408     
   3.3000000000000002E-002     4.1901111922210319     
   3.3300000000000003E-002     3.3379930549035057     
   3.3599999999999998E-002     2.5374511089766063     
   3.3900000000000000E-002     1.7581008996605125     
   3.4200000000000001E-002    0.96957666203083503     
   3.4500000000000003E-002    0.15468670559021086     
   3.4799999999999998E-002   -0.69686046216570086     
   3.5099999999999999E-002    -1.5819655035238220     
   3.5400000000000001E-002    -2.4872045470118378     
   3.5699999999999996E-002    -3.3889004264944798     
   3.6000000000000004E-002    -4.2546308770286618     
   3.6299999999999999E-002    -5.0484187618889349     
   3.6600000000000008E-002    -5.7321964661284133     
   3.6900000000000002E-002    -6.2698327035455677     
   3.7199999999999997E-002    -6.6327559218459440     
   3.7500000000000006E-002    -6.7988300081924598     
   3.7800000000000000E-002    -6.7590685192340878     
   3.8100000000000009E-002    -6.5156900266153102     
   3.8400000000000004E-002    -6.0850624576995394     
   3.8699999999999998E-002    -5.4941930374345382     
   3.9000000000000007E-002    -4.7820170183647068     
   3.9300000000000002E-002    -3.9933097118920688     
   3.9600000000000003E-002    -3.1777364988899994     
   3.9900000000000005E-002    -2.3852206222823287     
   4.0200000000000000E-002    -1.6607214968178838     
   4.0500000000000001E-002    -1.0436072878598739     
   4.0800000000000003E-002   -0.56054380386521541     
   4.1100000000000005E-002   -0.22745038348301261     
   4.1399999999999999E-002    -4.4233241579962251E-002
   4.1700000000000008E-002    -2.7953894752645592E-004
   4.2000000000000003E-002    -7.0341157423337686E-002
   4.2299999999999997E-002   -0.22120956242131679     
   4.2600000000000006E-002   -0.41417504005237898     
   4.2900000000000001E-002   -0.60759049745548699     
   4.3200000000000002E-002   -0.76287803019141598     
   4.3500000000000004E-002   -0.84627425136614232     
   4.3799999999999999E-002   -0.83479060850488407     
   4.4100000000000000E-002   -0.71396323838581888     
   4.4400000000000002E-002   -0.48381422238765892     
   4.4700000000000004E-002   -0.15401213152605686     
   4.4999999999999998E-002    0.25385760938025115     
   4.5300000000000000E-002    0.71103434888287786     
   4.5600000000000002E-002     1.1833845429450010     
   4.5899999999999996E-002     1.6339686384433953     
   4.6200000000000005E-002     2.0285369380423663     
   4.6500000000000000E-002     2.3358058759412943     
   4.6799999999999994E-002     2.5327221455033788     
   4.7100000000000003E-002     2.6044539236147375     
   4.7399999999999998E-002     2.5456610290406574     
   4.7700000000000006E-002     2.3627912282576329     
   4.8000000000000001E-002     2.0698889282705557     
   4.8300000000000010E-002     1.6907767219018568     
   4.8600000000000004E-002     1.2554417071298309     
   4.8899999999999999E-002    0.79656567301156267     
   4.9200000000000008E-002    0.35000204372805849     
   4.9500000000000002E-002    -5.2496390311789903E-002
   4.9800000000000011E-002   -0.38083129196596072     
   5.0100000000000006E-002   -0.61461899290545952     
   5.0400000000000000E-002   -0.73839443126639304     
   5.0700000000000009E-002   -0.74940128086146829     
   5.1000000000000004E-002   -0.65169611577385345     
   5.1299999999999998E-002   -0.45985256168592586     
   5.1600000000000007E-002   -0.19579184197839189     
   5.1900000000000002E-002    0.11457334320300441     
   5.2200000000000010E-002    0.43995698296873453     
   5.2500000000000005E-002    0.75214054320991153     
   5.2800000000000000E-002     1.0219254821355559     
   5.3099999999999994E-002     1.2274548721506502     
   5.3400000000000003E-002     1.3524081395097656     
   5.3699999999999998E-002     1.3867280265150990     
   5.4000000000000006E-002     1.3312249557635800     
   5.4300000000000001E-002     1.1901333661975166     
   5.4599999999999996E-002    0.97731765151398542     
   5.4900000000000004E-002    0.70910301676615062     
   5.5199999999999999E-002    0.40584388145597500     
   5.5499999999999994E-002     8.7650539372412822E-002
   5.5800000000000002E-002   -0.22457440214602334     
   5.6099999999999997E-002   -0.51323334777310625     
   5.6400000000000006E-002   -0.76509292891419634     
   5.6700000000000000E-002   -0.96742071897226745     
   5.6999999999999995E-002    -1.1165542359861753     
   5.7300000000000004E-002    -1.2061628891053089     
   5.7599999999999998E-002    -1.2396662340604441     
   5.7900000000000007E-002    -1.2177351992660745     
   5.8200000000000002E-002    -1.1454389746830169     
   5.8499999999999996E-002    -1.0301361428327569     
   5.8800000000000005E-002   -0.87651680545668009     
   5.9100000000000000E-002   -0.69563044352229575     
   5.9400000000000008E-002   -0.49349279693327575     
   5.9700000000000003E-002   -0.28251732351528297     
   6.0000000000000012E-002    -7.1743322587827202E-002
   6.0300000000000006E-002    0.12591339812057223     
   6.0600000000000001E-002    0.29842176469550818     
   6.0900000000000010E-002    0.43384639140113329     
   6.1200000000000004E-002    0.52103069268497371     
   6.1500000000000013E-002    0.55172099184014378     
   6.1800000000000008E-002    0.51912634767431665     
   6.2100000000000002E-002    0.42375781149925790     
   6.2399999999999997E-002    0.26711138524932493     
   6.2700000000000006E-002     6.0287412152366923E-002
   6.3000000000000000E-002   -0.18427064235459825     
   6.3300000000000009E-002   -0.44828443533003942     
   6.3600000000000004E-002   -0.71057024316063544     
   6.3899999999999998E-002   -0.95093771884816025     
   6.4199999999999993E-002    -1.1478299201165965     
   6.4500000000000002E-002    -1.2849934677271513     
   6.4800000000000010E-002    -1.3503474123014367     
   6.5100000000000005E-002    -1.3361864662787575     
   6.5400000000000000E-002    -1.2444245835615066     
   6.5700000000000008E-002    -1.0797620992437473     
   6.5999999999999989E-002   -0.85457808130127177     
   6.6299999999999998E-002   -0.58493379832785963     
   6.6600000000000006E-002   -0.28778059899329855     
   6.6900000000000001E-002     1.7732789075247980E-002
   6.7199999999999996E-002    0.31558195286414586     
   6.7500000000000004E-002    0.59082412391861716     
   6.7800000000000013E-002    0.83328305985232864     
   6.8099999999999994E-002     1.0363334022903037     
   6.8400000000000002E-002     1.1968391934309273     
   6.8700000000000011E-002     1.3158303634494113     
   6.8999999999999992E-002     1.3957818480442281     
   6.9300000000000000E-002     1.4411288320293592     
   6.9600000000000009E-002     1.4561058865135084     
   6.9900000000000004E-002     1.4458651658553938     
   7.0199999999999999E-002     1.4126442927461034     
   7.0500000000000007E-002     1.3597153929660666     
   7.0800000000000016E-002     1.2882206853135956     
   7.1099999999999997E-002     1.1977347085695305     
   7.1400000000000005E-002     1.0894956598704431     
   7.1700000000000000E-002    0.96088189162370452     
   7.1999999999999995E-002    0.81494304852698118     
   7.2300000000000003E-002    0.64961131658709048     
   7.2600000000000012E-002    0.46824175665303114     
   7.2900000000000006E-002    0.27194105284526465     
   7.3200000000000001E-002     6.4502375942979709E-002
   7.3499999999999996E-002   -0.15005239201107984     
   7.3800000000000004E-002   -0.36697798829099204     
   7.4099999999999999E-002   -0.58071704113786105     
   7.4400000000000008E-002   -0.78588917275390657     
   7.4700000000000003E-002   -0.97630429451317391     
   7.5000000000000011E-002    -1.1477747286207407     
   7.5299999999999992E-002    -1.2933730108204706     
   7.5600000000000001E-002    -1.4118972446395814     
   7.5900000000000009E-002    -1.4972309459336610     
   7.6200000000000004E-002    -1.5509663633739259     
   7.6499999999999999E-002    -1.5708603467424216     
   7.6800000000000007E-002    -1.5602761875495168     
   7.7099999999999988E-002    -1.5210926722045865     
   7.7399999999999997E-002    -1.4575264455530188     
   7.7700000000000005E-002    -1.3745909699167871     
   7.8000000000000014E-002    -1.2764021855962364     
   7.8299999999999995E-002    -1.1694506348500830     
   7.8600000000000003E-002    -1.0552819128178741     
   7.8900000000000012E-002   -0.93943337883678968     
   7.9199999999999993E-002   -0.82102458650336496     
   7.9500000000000001E-002   -0.70321814758610302     
   7.9800000000000010E-002   -0.58307402978263911     
   8.0100000000000018E-002   -0.46102722400705409     
   8.0399999999999999E-002   -0.33460977609610193     
   8.0700000000000008E-002   -0.20180447592114653     
   8.1000000000000003E-002    -6.2182286348593969E-002
   8.1299999999999997E-002     8.6136824892098424E-002
   8.1600000000000006E-002    0.24154732339322083     
   8.1900000000000014E-002    0.40389610159960310     
   8.2199999999999995E-002    0.56964593913538064     
   8.2500000000000004E-002    0.73687516748568083     
   8.2799999999999999E-002    0.90057373079561032     
   8.3100000000000007E-002     1.0574572145669758     
   8.3400000000000002E-002     1.2027371657292341     
   8.3700000000000011E-002     1.3321913715269227     
   8.4000000000000005E-002     1.4415107577298729     
   8.4300000000000000E-002     1.5276789903732275     
   8.4599999999999995E-002     1.5877874844177893     
   8.4900000000000003E-002     1.6197225998003650     
   8.5199999999999998E-002     1.6220023296946244     
   8.5500000000000007E-002     1.5945643930051059     
   8.5800000000000001E-002     1.5378510801350891     
   8.6100000000000010E-002     1.4535090424255273     
   8.6399999999999991E-002     1.3442754707405460     
   8.6699999999999999E-002     1.2133969912202125     
   8.7000000000000008E-002     1.0648645363540052     
   8.7300000000000003E-002    0.90379221754038730     
   8.7599999999999997E-002    0.73472609252919185     
   8.7900000000000006E-002    0.56322336634369030     
   8.8200000000000014E-002    0.39391670591579847     
   8.8499999999999995E-002    0.23099009449388802     
   8.8800000000000004E-002     7.8459198889809956E-002
   8.9100000000000013E-002    -6.1858169149174108E-002
   8.9399999999999993E-002   -0.18704388452383705     
   8.9700000000000002E-002   -0.29737338355858722     
   9.0000000000000011E-002   -0.39245267276434498     
   9.0299999999999991E-002   -0.47349018160186429     
   9.0600000000000000E-002   -0.54159550638437182     
   9.0900000000000009E-002   -0.59847031357075242     
   9.1200000000000017E-002   -0.64590883076725625     
   9.1499999999999998E-002   -0.68586714037356045     
   9.1800000000000007E-002   -0.71994374206940004     
   9.2100000000000001E-002   -0.74880705249807722     
   9.2399999999999996E-002   -0.77389970982678191     
   9.2700000000000005E-002   -0.79559194673273237     
   9.3000000000000013E-002   -0.81470680998096090     
   9.3300000000000008E-002   -0.83121427592337171     
   9.3600000000000003E-002   -0.84452694289996999     
   9.3899999999999997E-002   -0.85515345773282314     
   9.4200000000000006E-002   -0.86204211497092897     
   9.4500000000000001E-002   -0.86558840961175465     
   9.4800000000000009E-002   -0.86446910449371284     
   9.5100000000000004E-002   -0.85880923437937806     
   9.5399999999999999E-002   -0.84782431662665436     
   9.5699999999999993E-002   -0.83050927260182184     
   9.6000000000000002E-002   -0.80754566642746195     
   9.6300000000000011E-002   -0.77779101339567958     
   9.6600000000000005E-002   -0.74193814620652165     
   9.6900000000000000E-002   -0.69925826895409204     
   9.7200000000000009E-002   -0.64946989597577975     
   9.7499999999999989E-002   -0.59360890184760340     
   9.7799999999999998E-002   -0.53081894586462464     
   9.8100000000000007E-002   -0.46166396550164912     
   9.8400000000000015E-002   -0.38525441651635661     
   9.8699999999999996E-002   -0.30296739004716783     
   9.9000000000000005E-002   -0.21403733264281344     
   9.9300000000000013E-002   -0.11996209945930617     
   9.9599999999999994E-002    -2.1156464480420245E-002
   9.9900000000000003E-002     8.0093888258835594E-002
  0.10020000000000001         0.18161665889792331     
  0.10049999999999999         0.28172818288806328     
  0.10080000000000000         0.37641401672772351     
  0.10110000000000001         0.46420572397337878     
  0.10140000000000000         0.54154917717650386     
  0.10170000000000000         0.60739876796132564     
  0.10200000000000001         0.66115454868510848     
  0.10230000000000002         0.70179540739911284     
  0.10260000000000000         0.73216568984840968     
  0.10290000000000001         0.75253926165054030     
  0.10320000000000000         0.76688201109917686     
  0.10350000000000001         0.77780295495439500     
  0.10380000000000000         0.78742016647661783     
  0.10410000000000001         0.79919458560248025     
  0.10440000000000001         0.81333244658473991     
  0.10470000000000000         0.83118195906697090     
  0.10500000000000000         0.85085547904600067     
  0.10530000000000000         0.87127269218843817     
  0.10560000000000000         0.88889142623424822     
  0.10590000000000001         0.90081772656499837     
  0.10620000000000000         0.90297660188638507     
  0.10650000000000001         0.89125576162699127     
  0.10679999999999999         0.86391467722570625     
  0.10710000000000000         0.81629598669340364     
  0.10740000000000001         0.74992423422791332     
  0.10770000000000000         0.66198692542038673     
  0.10800000000000000         0.55521066896107873     
  0.10830000000000001         0.43132820359465079     
  0.10859999999999999         0.29357652464194789     
  0.10890000000000000         0.14674265394331834     
  0.10920000000000001         -5.4953413696494646E-003
  0.10950000000000001        -0.15657190451347425     
  0.10979999999999999        -0.30330270740450416     
  0.11009999999999999        -0.43988203574532869     
  0.11040000000000001        -0.56371981373486446     
  0.11070000000000001        -0.67058543092045164     
  0.11100000000000000        -0.76064316173349344     
  0.11130000000000000        -0.83190493187350545     
  0.11160000000000002        -0.88554747427132030     
  0.11190000000000001        -0.92244617898633607     
  0.11220000000000001        -0.94392437963193498     
  0.11250000000000000        -0.95317680972337593     
  0.11280000000000000        -0.94968402217386250     
  0.11309999999999999        -0.93729951676467427     
  0.11340000000000001        -0.91392248626799866     
  0.11369999999999998        -0.88221217360745419     
  0.11400000000000000        -0.84000096216696885     
  0.11430000000000000        -0.78802191101682095     
  0.11460000000000002        -0.72491911450625590     
  0.11489999999999999        -0.65120751019552037     
  0.11520000000000001        -0.56751014622930962     
  0.11550000000000001        -0.47448536231470173     
  0.11580000000000000        -0.37581743207476803     
  0.11609999999999999        -0.27308979668800698     
  0.11640000000000002        -0.17248989915500867     
  0.11670000000000001         -7.6251202439688248E-002
  0.11700000000000001          9.0206100413193629E-003
  0.11730000000000000          8.0141501258720410E-002
  0.11760000000000000         0.13327849909102246     
  0.11789999999999999         0.16410873732604112     
  0.11820000000000001         0.17246022031044733     
  0.11850000000000001         0.15635443594380566     
  0.11880000000000000         0.11647131678120987     
  0.11910000000000000          5.5701553245996738E-002
  0.11940000000000002         -2.4382176715686328E-002
  0.11970000000000001        -0.11874796504355456     
  0.12000000000000001        -0.22262649952142116     
  0.12030000000000000        -0.33062967619924233     
  0.12060000000000000        -0.43571527088584761     
  0.12089999999999999        -0.53228366397105431     
  0.12119999999999999        -0.61328561584210162     
  0.12150000000000001        -0.67280183024741258     
  0.12180000000000001        -0.70534274103291983     
  0.12210000000000000        -0.70656122751744121     
  0.12239999999999999        -0.67319495726851397     
  0.12270000000000002        -0.60429921968969980     
  0.12300000000000001        -0.49859858399914225     
  0.12330000000000001        -0.35935957802715845     
  0.12360000000000000        -0.18964044114055151     
  0.12390000000000000          6.3567015942908728E-003
  0.12419999999999999         0.22067950984820556     
  0.12450000000000001         0.44816827843604601     
  0.12480000000000001         0.67921981809794507     
  0.12509999999999999         0.90653626879472471     
  0.12540000000000001          1.1223199382432090     
  0.12570000000000003          1.3173573375157877     
  0.12600000000000000          1.4868724073767599     
  0.12630000000000002          1.6220724137326803     
  0.12659999999999999          1.7202395322779385     
  0.12690000000000001          1.7756860615041743     
  0.12719999999999998          1.7879020600129638     
  0.12750000000000000          1.7545279266305793     
  0.12780000000000002          1.6784937879527149     
  0.12809999999999999          1.5614119454462565     
  0.12840000000000001          1.4081358258507803     
  0.12869999999999998          1.2252678251357274     
  0.12900000000000000          1.0179303827627026     
  0.12930000000000003         0.79731552878342948     
  0.12959999999999999         0.56769452360700834     
  0.12990000000000002         0.34138762930054722     
  0.13019999999999998         0.12283651073755976     
  0.13050000000000000         -7.9526492638866950E-002
  0.13080000000000003        -0.25993003802955295     
  0.13109999999999999        -0.41531955547761656     
  0.13140000000000002        -0.54072245530967311     
  0.13169999999999998        -0.63651216203635375     
  0.13200000000000001        -0.70063874848463059     
  0.13229999999999997        -0.73462996978958872     
  0.13260000000000000        -0.73950341223771598     
  0.13290000000000002        -0.71747636154350058     
  0.13319999999999999        -0.67112833320013843     
  0.13350000000000001        -0.60363510429302947     
  0.13380000000000003        -0.51914600479241313     
  0.13410000000000000        -0.42091929193947220     
  0.13440000000000002        -0.31407233237736243     
  0.13469999999999999        -0.20285178652049343     
  0.13500000000000001         -9.1657569738633454E-002
  0.13529999999999998          1.3895984027407569E-002
  0.13560000000000000         0.11089316994615778     
  0.13590000000000002         0.19329535220666252     
  0.13619999999999999         0.26042218650223575     
  0.13650000000000001         0.30806191713597386     
  0.13680000000000003         0.33530052246124809     
  0.13710000000000000         0.34240588316534565     
  0.13740000000000002         0.32821277490086259     
  0.13769999999999999         0.29652866156917657     
  0.13800000000000001         0.24693622919441771     
  0.13829999999999998         0.18380010277552003     
  0.13860000000000000         0.10849794729133830     
  0.13890000000000002          2.5033438754924524E-002
  0.13919999999999999         -6.4343463246498978E-002
  0.13950000000000001        -0.15652644439802663     
  0.13979999999999998        -0.24892331532177420     
  0.14010000000000000        -0.33971843607955204     
  0.14040000000000002        -0.42640663373749088     
  0.14069999999999999        -0.50751096031876408     
  0.14100000000000001        -0.58185932372956373     
  0.14130000000000004        -0.64798816448927676     
  0.14160000000000000        -0.70627713422499139     
  0.14189999999999997        -0.75531716016852435     
  0.14219999999999999        -0.79594216024266018     
  0.14250000000000002        -0.82830479253669398     
  0.14279999999999998        -0.85260841137404209     
  0.14310000000000000        -0.87025941297033671     
  0.14339999999999997        -0.88136707759167499     
  0.14369999999999999        -0.88759515591249238     
  0.14400000000000002        -0.88904937215176960     
  0.14429999999999998        -0.88706756368941231     
  0.14460000000000001        -0.88217524429594163     
  0.14490000000000003        -0.87490261929049784     
  0.14520000000000000        -0.86514959105847788     
  0.14550000000000002        -0.85376781308212057     
  0.14579999999999999        -0.83934719266925706     
  0.14610000000000001        -0.82127005726913238     
  0.14640000000000003        -0.79879372861283704     
  0.14670000000000000        -0.76893128541590827     
  0.14699999999999996        -0.73036509306127950     
  0.14729999999999999        -0.68015203831780002     
  0.14760000000000001        -0.61517951958056094     
  0.14789999999999998        -0.53345770184358043     
  0.14820000000000000        -0.43200083844019549     