  -1.4999999999999999E-002     0.0000000000000000     
  -1.4700000000000000E-002     0.0000000000000000     
  -1.4400000000000000E-002     0.0000000000000000     
  -1.4100000000000000E-002     0.0000000000000000     
  -1.3800000000000000E-002     0.0000000000000000     
  -1.3500000000000000E-002     0.0000000000000000     
  -1.3200000000000000E-002     0.0000000000000000     
  -1.2899999999999998E-002     0.0000000000000000     
  -1.2600000000000000E-002     0.0000000000000000     
  -1.2299999999999998E-002     0.0000000000000000     
  -1.2000000000000000E-002     0.0000000000000000     
  -1.1699999999999999E-002     0.0000000000000000     
  -1.1399999999999999E-002     0.0000000000000000     
  -1.1099999999999999E-002     0.0000000000000000     
  -1.0799999999999999E-002     0.0000000000000000     
  -1.0499999999999999E-002     0.0000000000000000     
  -1.0199999999999999E-002     0.0000000000000000     
  -9.8999999999999991E-003     0.0000000000000000     
  -9.5999999999999992E-003     0.0000000000000000     
  -9.2999999999999992E-003     0.0000000000000000     
  -8.9999999999999993E-003     0.0000000000000000     
  -8.6999999999999994E-003     0.0000000000000000     
  -8.3999999999999995E-003     0.0000000000000000     
  -8.0999999999999996E-003     0.0000000000000000     
  -7.7999999999999988E-003     0.0000000000000000     
  -7.4999999999999997E-003     0.0000000000000000     
  -7.1999999999999998E-003     0.0000000000000000     
  -6.8999999999999981E-003     0.0000000000000000     
  -6.5999999999999982E-003     0.0000000000000000     
  -6.3000000000000000E-003     1.5289312294439956E-037
  -6.0000000000000001E-003     2.9183996774285671E-035
  -5.6999999999999985E-003     1.8722249297403742E-034
  -5.3999999999999986E-003     1.9042853104551771E-034
  -5.1000000000000004E-003    -1.4387782586981224E-033
  -4.7999999999999987E-003     4.1900883519072463E-033
  -4.5000000000000005E-003     1.0185812475476572E-033
  -4.1999999999999989E-003    -1.4949810081167073E-032
  -3.8999999999999990E-003     2.5027459243144139E-032
  -3.5999999999999990E-003    -1.3764992119009032E-031
  -3.2999999999999991E-003     4.1646772643424670E-031
  -2.9999999999999992E-003    -1.2219548427501432E-031
  -2.6999999999999993E-003    -1.4335265636214835E-030
  -2.3999999999999994E-003     3.6310051399217663E-030
  -2.0999999999999977E-003    -9.8074991036343053E-030
  -1.7999999999999995E-003     2.0793801713687498E-029
  -1.4999999999999979E-003    -6.6145226452101366E-030
  -1.1999999999999997E-003    -4.9392765017828562E-029
  -8.9999999999999976E-004     1.0446687703766010E-028
  -5.9999999999999810E-004    -3.2875070825940232E-028
  -2.9999999999999992E-004     1.1531850843097195E-027
   0.0000000000000000         -2.5330820740673679E-027
   3.0000000000000165E-004     3.5213549308543353E-027
   5.9999999999999984E-004     2.4001182393671802E-027
   9.0000000000000149E-004    -3.9102289599832320E-026
   1.2000000000000031E-003     1.2838938396344509E-025
   1.5000000000000013E-003    -1.9216871644805751E-025
   1.8000000000000030E-003    -7.8870031541391090E-026
   2.1000000000000012E-003     1.2204226807444685E-024
   2.3999999999999994E-003    -3.2869848884590469E-024
   2.7000000000000010E-003     3.6678665116087264E-024
   2.9999999999999992E-003     4.6798519014116908E-024
   3.3000000000000008E-003    -2.7930598590693664E-023
   3.6000000000000025E-003     5.3890239501722031E-023
   3.9000000000000007E-003    -3.0787017966715445E-023
   4.2000000000000023E-003    -1.2112508246825597E-022
   4.5000000000000005E-003     4.0584987314258294E-022
   4.7999999999999987E-003    -5.7202828624776052E-022
   5.1000000000000004E-003     7.2054393634370103E-023
   5.4000000000000020E-003     1.5612353462214051E-021
   5.7000000000000037E-003    -3.9095754443179871E-021
   5.9999999999999984E-003     4.8650358595959214E-021
   6.3000000000000000E-003    -7.0178371243253914E-022
   6.6000000000000017E-003    -1.2076950984129522E-020
   6.9000000000000034E-003     3.2561124534617892E-020
   7.2000000000000015E-003    -4.7740741209465164E-020
   7.5000000000000032E-003     2.3250945965326729E-020
   7.8000000000000014E-003     8.9115888743828574E-020
   8.0999999999999996E-003    -2.9476019534345673E-019
   8.4000000000000012E-003     4.5026747155743941E-019
   8.7000000000000029E-003    -2.0542732615392746E-019
   9.0000000000000011E-003    -8.0393392773242944E-019
   9.2999999999999992E-003     2.3845941621445442E-018
   9.6000000000000009E-003    -3.1594450379236567E-018
   9.8999999999999991E-003     7.7548540115610325E-019
   1.0200000000000001E-002     6.2216737363200933E-018
   1.0500000000000002E-002    -1.5179196930091445E-017
   1.0800000000000004E-002     1.7268927479112708E-017
   1.1099999999999999E-002    -7.9989216746066670E-019
   1.1400000000000000E-002    -3.7668141529533280E-017
   1.1700000000000002E-002     7.9168715026382772E-017
   1.2000000000000004E-002    -7.8918786119854263E-017
   1.2300000000000002E-002    -9.8581429714288976E-018
   1.2600000000000000E-002     1.8376088504153771E-016
   1.2900000000000002E-002    -3.4285465964220897E-016
   1.3200000000000000E-002     3.0902545818984702E-016
   1.3500000000000002E-002     5.8085175498076845E-017
   1.3800000000000003E-002    -6.9343195691943126E-016
   1.4100000000000001E-002     1.2402998831552285E-015
   1.4400000000000000E-002    -1.1773400996605939E-015
   1.4700000000000001E-002     1.2739875217908760E-016
   1.4999999999999999E-002     1.8616849243029091E-015
   1.5300000000000001E-002    -4.1987515394754883E-015
   1.5600000000000003E-002     5.6225384504040888E-015
   1.5899999999999997E-002    -3.8648584163060718E-015
   1.6199999999999999E-002    -4.0975088791364987E-015
   1.6500000000000001E-002     1.8891904029782484E-014
   1.6800000000000002E-002    -3.1999569106410373E-014
   1.7100000000000004E-002     2.2441446386565196E-014
   1.7400000000000006E-002     2.8911017664532381E-014
   1.7700000000000000E-002    -1.0405344465986052E-013
   1.8000000000000002E-002     1.2534771368952465E-013
   1.8300000000000004E-002    -7.3890561082051680E-015
   1.8600000000000005E-002    -2.1272966593168113E-013
   1.8900000000000000E-002     3.1227512895167738E-013
   1.9200000000000002E-002    -8.2926271919808599E-014
   1.9500000000000003E-002    -2.9729743331135331E-013
   1.9799999999999998E-002     2.3735885110288379E-013
   2.0100000000000000E-002     5.8429969232759354E-013
   2.0400000000000001E-002    -1.2802482460881780E-012
   2.0700000000000003E-002    -7.0857338866261812E-013
   2.0999999999999998E-002     8.4776509677619981E-012
   2.1299999999999999E-002    -1.8143962519179011E-011
   2.1600000000000001E-002     3.1290340893498040E-012
   2.1900000000000003E-002     7.5403090480512791E-011
   2.2200000000000004E-002    -1.6912175485873373E-010
   2.2500000000000006E-002     4.0154516811298067E-011
   2.2800000000000001E-002     5.0601362191947601E-010
   2.3100000000000002E-002    -1.0666446781103829E-009
   2.3400000000000004E-002     4.9271677222128260E-010
   2.3699999999999999E-002     2.9543680693208854E-009
   2.4000000000000000E-002    -8.7569397032152404E-009
   2.4300000000000002E-002    -5.5884572616938551E-010
   2.4599999999999997E-002     4.1099878595581646E-008
   2.4900000000000005E-002    -1.9420991840522906E-008
   2.5200000000000000E-002    -1.9402493964899207E-007
   2.5499999999999995E-002     6.5800979932327165E-008
   2.5800000000000003E-002     1.8353508360680661E-006
   2.6099999999999998E-002     5.4716070409220305E-006
   2.6400000000000007E-002     9.4867988219218236E-006
   2.6700000000000002E-002     1.3405050038256155E-005
   2.6999999999999996E-002     2.0104626622587670E-005
   2.7300000000000005E-002     3.1388486889837426E-005
   2.7600000000000000E-002     4.5317936460373093E-005
   2.7900000000000008E-002     6.3413002031405627E-005
   2.8200000000000003E-002     9.7251383032616076E-005
   2.8499999999999998E-002     1.5578425507675316E-004
   2.8800000000000006E-002     2.3574855489079868E-004
   2.9100000000000001E-002     3.4042158207571726E-004
   2.9400000000000003E-002     4.8740389527147238E-004
   2.9700000000000004E-002     6.9209470883035496E-004
   3.0000000000000006E-002     9.5899329597771694E-004
   3.0300000000000001E-002     1.3066835909745869E-003
   3.0600000000000002E-002     1.7751016963098256E-003
   3.0900000000000004E-002     2.3769032354470053E-003
   3.1199999999999999E-002     3.1046433314054671E-003
   3.1500000000000007E-002     3.9862970538239494E-003
   3.1800000000000002E-002     5.0599731935696262E-003
   3.2099999999999997E-002     6.3036278104032194E-003
   3.2400000000000005E-002     7.6855870905751201E-003
   3.2700000000000000E-002     9.2099474594759517E-003
   3.3000000000000002E-002     1.0820300110968762E-002
   3.3300000000000003E-002     1.2426242029248295E-002
   3.3599999999999998E-002     1.3940178605625990E-002
   3.3900000000000000E-002     1.5218371381741098E-002
   3.4200000000000001E-002     1.6101989810865427E-002
   3.4500000000000003E-002     1.6443535685189258E-002
   3.4799999999999998E-002     1.6060398997076744E-002
   3.5099999999999999E-002     1.4746145573677583E-002
   3.5400000000000001E-002     1.2311818442932963E-002
   3.5699999999999996E-002     8.5770483486783330E-003
   3.6000000000000004E-002     3.3939771107827669E-003
   3.6299999999999999E-002    -3.3469828478209481E-003
   3.6600000000000008E-002    -1.1776257455725790E-002
   3.6900000000000002E-002    -2.2040669960330096E-002
   3.7199999999999997E-002    -3.4264332843564622E-002
   3.7500000000000006E-002    -4.8621639062496384E-002
   3.7800000000000000E-002    -6.5376788059845745E-002
   3.8100000000000009E-002    -8.4865093202174419E-002
   3.8400000000000004E-002   -0.10752268164999843     
   3.8699999999999998E-002   -0.13388332785083865     
   3.9000000000000007E-002   -0.16456310535473287     
   3.9300000000000002E-002   -0.20021404420646560     
   3.9600000000000003E-002   -0.24142435276294588     
   3.9900000000000005E-002   -0.28859657091224161     
   4.0200000000000000E-002   -0.34183829986818481     
   4.0500000000000001E-002   -0.40085077128383828     
   4.0800000000000003E-002   -0.46476471098497824     
   4.1100000000000005E-002   -0.53206800872976379     
   4.1399999999999999E-002   -0.60051327141346389     
   4.1700000000000008E-002   -0.66709880919570774     
   4.2000000000000003E-002   -0.72814099552773215     
   4.2299999999999997E-002   -0.77936182638494556     
   4.2600000000000006E-002   -0.81616161150591715     
   4.2900000000000001E-002   -0.83381972283380101     
   4.3200000000000002E-002   -0.82780096234983647     
   4.3500000000000004E-002   -0.79408118227025781     
   4.3799999999999999E-002   -0.72950801235050244     
   4.4100000000000000E-002   -0.63206616007997130     
   4.4400000000000002E-002   -0.50103947579695085     
   4.4700000000000004E-002   -0.33745938813201665     
   4.4999999999999998E-002   -0.14385834948024254     
   4.5300000000000000E-002     7.5616728998542868E-002
   4.5600000000000002E-002    0.31538398414080177     
   4.5899999999999996E-002    0.56858868074722713     
   4.6200000000000005E-002    0.82751113084993522     
   4.6500000000000000E-002     1.0838699249105583     
   4.6799999999999994E-002     1.3292677223577476     
   4.7100000000000003E-002     1.5556710689841629     
   4.7399999999999998E-002     1.7557319044757227     
   4.7700000000000006E-002     1.9234183581795661     
   4.8000000000000001E-002     2.0538868377772319     
   4.8300000000000010E-002     2.1442095632991403     
   4.8600000000000004E-002     2.1930982402461425     
   4.8899999999999999E-002     2.2011551141628058     
   4.9200000000000008E-002     2.1706842623689382     
   4.9500000000000002E-002     2.1052905740160712     
   4.9800000000000011E-002     2.0099441228233128     
   5.0100000000000006E-002     1.8899897766672424     
   5.0400000000000000E-002     1.7512286171465903     
   5.0700000000000009E-002     1.5988907133984649     
   5.1000000000000004E-002     1.4373616558940217     
   5.1299999999999998E-002     1.2700333062884153     
   5.1600000000000007E-002     1.0982899227506560     
   5.1900000000000002E-002    0.92223271358852899     
   5.2200000000000010E-002    0.74000117918816910     
   5.2500000000000005E-002    0.54829667902669776     
   5.2800000000000000E-002    0.34316346105490914     
   5.3099999999999994E-002    0.11976223894629519     
   5.3400000000000003E-002   -0.12576473446921974     
   5.3699999999999998E-002   -0.39683916811001585     
   5.4000000000000006E-002   -0.69432063584431736     
   5.4300000000000001E-002    -1.0172646722290977     
   5.4599999999999996E-002    -1.3614377383225020     
   5.4900000000000004E-002    -1.7195851144830752     
   5.5199999999999999E-002    -2.0818166019579074     
   5.5499999999999994E-002    -2.4351934630878453     
   5.5800000000000002E-002    -2.7657579588611068     
   5.6099999999999997E-002    -3.0580243259848832     
   5.6400000000000006E-002    -3.2974065925357565     
   5.6700000000000000E-002    -3.4704312479281776     
   5.6999999999999995E-002    -3.5662693203594866     
   5.7300000000000004E-002    -3.5777262907399381     
   5.7599999999999998E-002    -3.5015868461439248     
   5.7900000000000007E-002    -3.3397530898590588     
   5.8200000000000002E-002    -3.0986377662172431     
   5.8499999999999996E-002    -2.7890531574974680     
   5.8800000000000005E-002    -2.4257156501585513     
   5.9100000000000000E-002    -2.0262973055887756     
   5.9400000000000008E-002    -1.6098652916598373     
   5.9700000000000003E-002    -1.1961679378428411     
   6.0000000000000012E-002   -0.80328774331881947     
   6.0300000000000006E-002   -0.44732845208359401     
   6.0600000000000001E-002   -0.14017956640726026     
   6.0900000000000010E-002    0.11051010316674102     
   6.1200000000000004E-002    0.30281918587854967     
   6.1500000000000013E-002    0.44003340236890814     
   6.1800000000000008E-002    0.53061062153870109     
   6.2100000000000002E-002    0.58755952663478250     
   6.2399999999999997E-002    0.62674487665230194     
   6.2700000000000006E-002    0.66600705622561684     
   6.3000000000000000E-002    0.72274114387247779     
   6.3300000000000009E-002    0.81313081309535762     
   6.3600000000000004E-002    0.94896610075359800     
   6.3899999999999998E-002     1.1380292271929611     
   6.4199999999999993E-002     1.3813868772305993     
   6.4500000000000002E-002     1.6742656129883196     
   6.4800000000000010E-002     2.0053207637163308     
   6.5100000000000005E-002     2.3577801790581989     
   6.5400000000000000E-002     2.7102531834043218     
   6.5700000000000008E-002     3.0386280299612740     
   6.5999999999999989E-002     3.3177949518565493     
   6.6299999999999998E-002     3.5235136948067058     
   6.6600000000000006E-002     3.6347869738137266     
   6.6900000000000001E-002     3.6349610136208108     
   6.7199999999999996E-002     3.5137921603723341     
   6.7500000000000004E-002     3.2674716777497452     
   6.7800000000000013E-002     2.9004668145095542     
   6.8099999999999994E-002     2.4240514314138490     
   6.8400000000000002E-002     1.8566477737800544     
   6.8700000000000011E-002     1.2226542868414327     
   6.8999999999999992E-002    0.55067154315986833     
   6.9300000000000000E-002   -0.12749455598138343     
   6.9600000000000009E-002   -0.77966104992990015     
   6.9900000000000004E-002    -1.3738697476687420     
   7.0199999999999999E-002    -1.8818439981172728     
   7.0500000000000007E-002    -2.2789232151785641     
   7.0800000000000016E-002    -2.5470659080488480     
   7.1099999999999997E-002    -2.6748365686146087     
   7.1400000000000005E-002    -2.6586388910812930     
   7.1700000000000000E-002    -2.5023374020261073     
   7.1999999999999995E-002    -2.2173769078879411     
   7.2300000000000003E-002    -1.8219107173679050     
   7.2600000000000012E-002    -1.3393352021050950     
   7.2900000000000006E-002   -0.79774107568297004     
   7.3200000000000001E-002   -0.22714086955612348     
   7.3499999999999996E-002    0.34116107366235693     
   7.3800000000000004E-002    0.87641100919884063     
   7.4099999999999999E-002     1.3507501298039744     
   7.4400000000000008E-002     1.7388523043211155     
   7.4700000000000003E-002     2.0217284469391426     
   7.5000000000000011E-002     2.1840953314061289     
   7.5299999999999992E-002     2.2189576365274797     
   7.5600000000000001E-002     2.1241557661136459     
   7.5900000000000009E-002     1.9061609943883679     
   7.6200000000000004E-002     1.5772028810188734     
   7.6499999999999999E-002     1.1568927817565979     
   7.6800000000000007E-002    0.67025975670320337     
   7.7099999999999988E-002    0.14712829809691880     
   7.7399999999999997E-002   -0.37886067600446488     
   7.7700000000000005E-002   -0.87285853773286526     
   7.8000000000000014E-002    -1.3007319142890650     
   7.8299999999999995E-002    -1.6316092366135420     
   7.8600000000000003E-002    -1.8403410401624940     
   7.8900000000000012E-002    -1.9105285362716518     
   7.9199999999999993E-002    -1.8356818500646372     
   7.9500000000000001E-002    -1.6218522800938391     
   7.9800000000000010E-002    -1.2870717774324505     
   8.0100000000000018E-002   -0.86186041895506382     
   8.0399999999999999E-002   -0.38639629022851624     
   8.0700000000000008E-002     9.1688842832985257E-002
   8.1000000000000003E-002    0.52063517539869897     
   8.1299999999999997E-002    0.85063298644258134     
   8.1600000000000006E-002     1.0367469924327883     
   8.1900000000000014E-002     1.0450325278229307     
   8.2199999999999995E-002    0.85547572335339728     
   8.2500000000000004E-002    0.46414675381824483     
   8.2799999999999999E-002   -0.11367356374922469     
   8.3100000000000007E-002   -0.84660737357555249     
   8.3400000000000002E-002    -1.6866595978676098     
   8.3700000000000011E-002    -2.5759176607558252     
   8.4000000000000005E-002    -3.4489756622464611     
   8.4300000000000000E-002    -4.2400024225963886     
   8.4599999999999995E-002    -4.8882715412669198     
   8.4900000000000003E-002    -5.3422199969300541     
   8.5199999999999998E-002    -5.5658394328388887     
   8.5500000000000007E-002    -5.5392667211177500     
   8.5800000000000001E-002    -5.2613040459069751     
   8.6100000000000010E-002    -4.7483269471084801     
   8.6399999999999991E-002    -4.0320317419021654     
   8.6699999999999999E-002    -3.1566071648936398     
   8.7000000000000008E-002    -2.1733439634712415     
   8.7300000000000003E-002    -1.1376856594647462     
   8.7599999999999997E-002   -0.10376934567361161     
   8.7900000000000006E-002    0.87889392050031878     
   8.8200000000000014E-002     1.7679200981816388     
   8.8499999999999995E-002     2.5306896381563422     
   8.8800000000000004E-002     3.1434344150129050     
   8.9100000000000013E-002     3.5925811405152657     
   8.9399999999999993E-002     3.8728254787150358     
   8.9700000000000002E-002     3.9858649700076469     
   9.0000000000000011E-002     3.9394749208117044     
   9.0299999999999991E-002     3.7457579346203262     
   9.0600000000000000E-002     3.4213756542860843     
   9.0900000000000009E-002     2.9859544575236394     
   9.1200000000000017E-002     2.4636826226252264     
   9.1499999999999998E-002     1.8825278386921918     
   9.1800000000000007E-002     1.2745872042077508     
   9.2100000000000001E-002    0.67552116215583591     
   9.2399999999999996E-002    0.12509396424902283     
   9.2700000000000005E-002   -0.33837566843899386     
   9.3000000000000013E-002   -0.67575928675669639     
   9.3300000000000008E-002   -0.85606918216036321     
   9.3600000000000003E-002   -0.85524820639026744     
   9.3899999999999997E-002   -0.66398629225917205     
   9.4200000000000006E-002   -0.28788475497057364     
   9.4500000000000001E-002    0.25050028175512201     
   9.4800000000000009E-002    0.90975289290693617     
   9.5100000000000004E-002     1.6364295315021613     
   9.5399999999999999E-002     2.3636248546596819     
   9.5699999999999993E-002     3.0233409346551650     
   9.6000000000000002E-002     3.5483932097890039     
   9.6300000000000011E-002     3.8844818523387072     
   9.6600000000000005E-002     3.9955150598967837     
   9.6900000000000000E-002     3.8678540984310321     
   9.7200000000000009E-002     3.5180061135408449     
   9.7499999999999989E-002     2.9851854746684894     
   9.7799999999999998E-002     2.3365434820854345     
   9.8100000000000007E-002     1.6514469322501817     
   9.8400000000000015E-002     1.0202035281737649     
   9.8699999999999996E-002    0.52601043862263541     
   9.9000000000000005E-002    0.23847907137235033     
   9.9300000000000013E-002    0.20035554821553681     
   9.9599999999999994E-002    0.42041265797228200     
   9.9900000000000003E-002    0.87083473171366688     
  0.10020000000000001          1.4831406431945791     
  0.10049999999999999          2.1601362944592410     
  0.10080000000000000          2.7768001211073177     
  0.10110000000000001          3.2019256226510140     
  0.10140000000000000          3.3060489021936692     
  0.10170000000000000          2.9824068475170664     
  0.10200000000000001          2.1602315887706700     
  0.10230000000000002         0.81454366088222208     
  0.10260000000000000         -1.0210122595124316     
  0.10290000000000001         -3.2592948994289301     
  0.10320000000000000         -5.7554373256275246     
  0.10350000000000001         -8.3238904109926146     
  0.10380000000000000         -10.747526611751935     
  0.10410000000000001         -12.798339108185994     
  0.10440000000000001         -14.260358834018962     
  0.10470000000000000         -14.943685411392631     
  0.10500000000000000         -14.713208953094082     
  0.10530000000000000         -13.492501058465637     
  0.10560000000000000         -11.284601091426275     
  0.10590000000000001         -8.1666441374584586     
  0.10620000000000000         -4.2919648060862707     
  0.10650000000000001         0.12063659608621198     
  0.10679999999999999          4.8055062832695237     
  0.10710000000000000          9.4642073542745884     
  0.10740000000000001          13.794123966097221     
  0.10770000000000000          17.504923826147021     
  0.10800000000000000          20.345957502964218     
  0.10830000000000001          22.118895089149422     
  0.10859999999999999          22.694199014629113     
  0.10890000000000000          22.018810661413234     
  0.10920000000000001          20.115473255617488     
  0.10950000000000001          17.082964561697789     
  0.10979999999999999          13.081671609010451     
  0.11009999999999999          8.3274146940263307     
  0.11040000000000001          3.0688495958056112     
  0.11070000000000001         -2.4227801334618260     
  0.11100000000000000         -7.8756282184707365     
  0.11130000000000000         -13.029347788070996     
  0.11160000000000002         -17.649508545506393     
  0.11190000000000001         -21.539109046251870     
  0.11220000000000001         -24.543005562937925     
  0.11250000000000000         -26.556845149784575     
  0.11280000000000000         -27.523130785682529     
  0.11309999999999999         -27.434936886402333     
  0.11340000000000001         -26.328783452894768     
  0.11369999999999998         -24.281134178835540     
  0.11400000000000000         -21.403649059684135     
  0.11430000000000000         -17.831767006509196     
  0.11460000000000002         -13.723724512535545     
  0.11489999999999999         -9.2470993125393388     
  0.11520000000000001         -4.5769340255564908     
  0.11550000000000001         0.11481088405959901     
  0.11580000000000000          4.6632988989557669     
  0.11609999999999999          8.9167514480985659     
  0.11640000000000002          12.743700360714698     
  0.11670000000000001          16.032605325728305     
  0.11700000000000001          18.702624328058970     
  0.11730000000000000          20.696627512527716     
  0.11760000000000000          21.992695628766953     
  0.11789999999999999          22.594651005057599     
  0.11820000000000001          22.537983675543146     
  0.11850000000000001          21.882099918393138     
  0.11880000000000000          20.706337804153812     
  0.11910000000000000          19.108450851797802     
  0.11940000000000002          17.189866135664861     
  0.11970000000000001          15.059932898602046     
  0.12000000000000001          12.816177687100136     
  0.12030000000000000          10.552502127599482     
  0.12060000000000000          8.3396831562819180     
  0.12089999999999999          6.2344348261876483     
  0.12119999999999999          4.2710298052191051     
  0.12150000000000001          2.4610158967140929     
  0.12180000000000001         0.80324839131339820     
  0.12210000000000000        -0.72450518111210982     
  0.12239999999999999         -2.1474781492976693     
  0.12270000000000002         -3.5003838378516421     
  0.12300000000000001         -4.8126785030296544     
  0.12330000000000001         -6.1082574065386934     
  0.12360000000000000         -7.4017024649695680     
  0.12390000000000000         -8.6895213232878312     
  0.12419999999999999         -9.9589838583749053     
  0.12450000000000001         -11.175790222450141     
  0.12480000000000001         -12.299577103678835     
  0.12509999999999999         -13.274875946754024     
  0.12540000000000001         -14.045687951063838     
  0.12570000000000003         -14.553735990292727     
  0.12600000000000000         -14.748684182785500     
  0.12630000000000002         -14.591330794411549     
  0.12659999999999999         -14.057419121011980     
  0.12690000000000001         -13.145278324682714     
  0.12719999999999998         -11.869868695324417     
  0.12750000000000000         -10.272925878377587     
  0.12780000000000002         -8.4098621653040624     
  0.12809999999999999         -6.3574731286460482     
  0.12840000000000001         -4.1998041749588948     
  0.12869999999999998         -2.0278823205285108     
  0.12900000000000000          6.6804190933112947E-002
  0.12930000000000003          2.0040758127879856     
  0.12959999999999999          3.7102129079467123     
  0.12990000000000002          5.1350852369729543     
  0.13019999999999998          6.2432180259843895     
  0.13050000000000000          7.0233765146880396     
  0.13080000000000003          7.4845390692266554     
  0.13109999999999999          7.6528678363106408     
  0.13140000000000002          7.5729699746185526     
  0.13169999999999998          7.2971564253492094     
  0.13200000000000001          6.8854857779404428     
  0.13229999999999997          6.3985764291441685     
  0.13260000000000000          5.8913838582733611     
  0.13290000000000002          5.4122836682199820     
  0.13319999999999999          4.9954474381979530     
  0.13350000000000001          4.6620934665944640     
  0.13380000000000003          4.4192279207407577     
  0.13410000000000000          4.2561224426648403     
  0.13440000000000002          4.1544030662048650     
  0.13469999999999999          4.0802291383416085     
  0.13500000000000001          3.9982562980002134     
  0.13529999999999998          3.8683062494703293     
  0.13560000000000000          3.6533096746577742     
  0.13590000000000002          3.3242045423233302     
  0.13619999999999999          2.8580604717529408     
  0.13650000000000001          2.2496379758991165     
  0.13680000000000003          1.5022871948811645     
  0.13710000000000000         0.63694396095527728     
  0.13740000000000002        -0.31404890581447892     
  0.13769999999999999         -1.3084281076979956     
  0.13800000000000001         -2.2943714923569383     
  0.13829999999999998         -3.2202580717065761     
  0.13860000000000000         -4.0327761438763856     
  0.13890000000000002         -4.6858475063088916     
  0.13919999999999999         -5.1425411235794423     
  0.13950000000000001         -5.3774167822393508     
  0.13979999999999998         -5.3821584430033491     
  0.14010000000000000         -5.1617080475402481     
  0.14040000000000002         -4.7386080717134966     
  0.14069999999999999         -4.1474358843884573     
  0.14100000000000001         -3.4351992826025608     
  0.14130000000000004         -2.6551120984348096     
  0.14160000000000000         -1.8633561172295350     
  0.14189999999999997         -1.1148089741704550     
  0.14219999999999999        -0.45796491539852974     
  0.14250000000000002          6.9066208615375019E-002
  0.14279999999999998         0.44157715778435302     
  0.14310000000000000         0.64922597689717598     
  0.14339999999999997         0.69800390229226150     
  0.14369999999999999         0.60871167345387744     
  0.14400000000000002         0.41381760835266890     
  0.14429999999999998         0.15588642455770257     
  0.14460000000000001        -0.11886795528262016     
  0.14490000000000003        -0.36185106033954934     
  0.14520000000000000        -0.53207045446466061     
  0.14550000000000002        -0.59318748464152304     
  0.14579999999999999        -0.52446551814784370     
  0.14610000000000001        -0.31628728854794835     
  0.14640000000000003          2.4690569563375578E-002
  0.14670000000000000         0.47776613194411388     
  0.14699999999999996          1.0118310587375174     
  0.14729999999999999          1.5838948338351035     
  0.14760000000000001          2.1495606411126698     
  0.14789999999999998          2.6602815742663255     
  0.14820000000000000          3.0750683558861573     