  -1.4999999999999999E-002     0.0000000000000000     
  -1.4700000000000000E-002     0.0000000000000000     
  -1.4400000000000000E-002     0.0000000000000000     
  -1.4100000000000000E-002     0.0000000000000000     
  -1.3800000000000000E-002     0.0000000000000000     
  -1.3500000000000000E-002     0.0000000000000000     
  -1.3200000000000000E-002     0.0000000000000000     
  -1.2899999999999998E-002     0.0000000000000000     
  -1.2600000000000000E-002     0.0000000000000000     
  -1.2299999999999998E-002     0.0000000000000000     
  -1.2000000000000000E-002     0.0000000000000000     
  -1.1699999999999999E-002     0.0000000000000000     
  -1.1399999999999999E-002     0.0000000000000000     
  -1.1099999999999999E-002     0.0000000000000000     
  -1.0799999999999999E-002     0.0000000000000000     
  -1.0499999999999999E-002     0.0000000000000000     
  -1.0199999999999999E-002     0.0000000000000000     
  -9.8999999999999991E-003     0.0000000000000000     
  -9.5999999999999992E-003     0.0000000000000000     
  -9.2999999999999992E-003     0.0000000000000000     
  -8.9999999999999993E-003     0.0000000000000000     
  -8.6999999999999994E-003     0.0000000000000000     
  -8.3999999999999995E-003     0.0000000000000000     
  -8.0999999999999996E-003     0.0000000000000000     
  -7.7999999999999988E-003     0.0000000000000000     
  -7.4999999999999997E-003     0.0000000000000000     
  -7.1999999999999998E-003     0.0000000000000000     
  -6.8999999999999981E-003     0.0000000000000000     
  -6.5999999999999982E-003     0.0000000000000000     
  -6.3000000000000000E-003     0.0000000000000000     
  -6.0000000000000001E-003     0.0000000000000000     
  -5.6999999999999985E-003     0.0000000000000000     
  -5.3999999999999986E-003     0.0000000000000000     
  -5.1000000000000004E-003     0.0000000000000000     
  -4.7999999999999987E-003     0.0000000000000000     
  -4.5000000000000005E-003     0.0000000000000000     
  -4.1999999999999989E-003     0.0000000000000000     
  -3.8999999999999990E-003     0.0000000000000000     
  -3.5999999999999990E-003     0.0000000000000000     
  -3.2999999999999991E-003     0.0000000000000000     
  -2.9999999999999992E-003     0.0000000000000000     
  -2.6999999999999993E-003     0.0000000000000000     
  -2.3999999999999994E-003     0.0000000000000000     
  -2.0999999999999977E-003     0.0000000000000000     
  -1.7999999999999995E-003     0.0000000000000000     
  -1.4999999999999979E-003     0.0000000000000000     
  -1.1999999999999997E-003     0.0000000000000000     
  -8.9999999999999976E-004     0.0000000000000000     
  -5.9999999999999810E-004     0.0000000000000000     
  -2.9999999999999992E-004     0.0000000000000000     
   0.0000000000000000          0.0000000000000000     
   3.0000000000000165E-004     0.0000000000000000     
   5.9999999999999984E-004     0.0000000000000000     
   9.0000000000000149E-004     0.0000000000000000     
   1.2000000000000031E-003     0.0000000000000000     
   1.5000000000000013E-003     0.0000000000000000     
   1.8000000000000030E-003     0.0000000000000000     
   2.1000000000000012E-003     0.0000000000000000     
   2.3999999999999994E-003     0.0000000000000000     
   2.7000000000000010E-003     0.0000000000000000     
   2.9999999999999992E-003     0.0000000000000000     
   3.3000000000000008E-003     0.0000000000000000     
   3.6000000000000025E-003     0.0000000000000000     
   3.9000000000000007E-003     0.0000000000000000     
   4.2000000000000023E-003     0.0000000000000000     
   4.5000000000000005E-003     0.0000000000000000     
   4.7999999999999987E-003     0.0000000000000000     
   5.1000000000000004E-003     0.0000000000000000     
   5.4000000000000020E-003     0.0000000000000000     
   5.7000000000000037E-003     0.0000000000000000     
   5.9999999999999984E-003     0.0000000000000000     
   6.3000000000000000E-003     0.0000000000000000     
   6.6000000000000017E-003     0.0000000000000000     
   6.9000000000000034E-003     0.0000000000000000     
   7.2000000000000015E-003     0.0000000000000000     
   7.5000000000000032E-003     0.0000000000000000     
   7.8000000000000014E-003     0.0000000000000000     
   8.0999999999999996E-003     0.0000000000000000     
   8.4000000000000012E-003     0.0000000000000000     
   8.7000000000000029E-003     0.0000000000000000     
   9.0000000000000011E-003     0.0000000000000000     
   9.2999999999999992E-003     0.0000000000000000     
   9.6000000000000009E-003     0.0000000000000000     
   9.8999999999999991E-003     0.0000000000000000     
   1.0200000000000001E-002     0.0000000000000000     
   1.0500000000000002E-002     0.0000000000000000     
   1.0800000000000004E-002     0.0000000000000000     
   1.1099999999999999E-002     0.0000000000000000     
   1.1400000000000000E-002     0.0000000000000000     
   1.1700000000000002E-002     0.0000000000000000     
   1.2000000000000004E-002     0.0000000000000000     
   1.2300000000000002E-002     0.0000000000000000     
   1.2600000000000000E-002     0.0000000000000000     
   1.2900000000000002E-002     0.0000000000000000     
   1.3200000000000000E-002     0.0000000000000000     
   1.3500000000000002E-002     0.0000000000000000     
   1.3800000000000003E-002     0.0000000000000000     
   1.4100000000000001E-002     0.0000000000000000     
   1.4400000000000000E-002     0.0000000000000000     
   1.4700000000000001E-002     0.0000000000000000     
   1.4999999999999999E-002     0.0000000000000000     
   1.5300000000000001E-002     0.0000000000000000     
   1.5600000000000003E-002     0.0000000000000000     
   1.5899999999999997E-002     0.0000000000000000     
   1.6199999999999999E-002     0.0000000000000000     
   1.6500000000000001E-002     0.0000000000000000     
   1.6800000000000002E-002     0.0000000000000000     
   1.7100000000000004E-002     0.0000000000000000     
   1.7400000000000006E-002     0.0000000000000000     
   1.7700000000000000E-002     0.0000000000000000     
   1.8000000000000002E-002     0.0000000000000000     
   1.8300000000000004E-002     0.0000000000000000     
   1.8600000000000005E-002     0.0000000000000000     
   1.8900000000000000E-002     0.0000000000000000     
   1.9200000000000002E-002     0.0000000000000000     
   1.9500000000000003E-002     0.0000000000000000     
   1.9799999999999998E-002     0.0000000000000000     
   2.0100000000000000E-002     0.0000000000000000     
   2.0400000000000001E-002     0.0000000000000000     
   2.0700000000000003E-002     0.0000000000000000     
   2.0999999999999998E-002     0.0000000000000000     
   2.1299999999999999E-002     0.0000000000000000     
   2.1600000000000001E-002     0.0000000000000000     
   2.1900000000000003E-002     0.0000000000000000     
   2.2200000000000004E-002     0.0000000000000000     
   2.2500000000000006E-002     0.0000000000000000     
   2.2800000000000001E-002     0.0000000000000000     
   2.3100000000000002E-002     0.0000000000000000     
   2.3400000000000004E-002     0.0000000000000000     
   2.3699999999999999E-002     0.0000000000000000     
   2.4000000000000000E-002     0.0000000000000000     
   2.4300000000000002E-002     0.0000000000000000     
   2.4599999999999997E-002     0.0000000000000000     
   2.4900000000000005E-002     0.0000000000000000     
   2.5200000000000000E-002     0.0000000000000000     
   2.5499999999999995E-002     0.0000000000000000     
   2.5800000000000003E-002     0.0000000000000000     
   2.6099999999999998E-002     0.0000000000000000     
   2.6400000000000007E-002     0.0000000000000000     
   2.6700000000000002E-002     0.0000000000000000     
   2.6999999999999996E-002     0.0000000000000000     
   2.7300000000000005E-002     0.0000000000000000     
   2.7600000000000000E-002     0.0000000000000000     
   2.7900000000000008E-002     0.0000000000000000     
   2.8200000000000003E-002     0.0000000000000000     
   2.8499999999999998E-002     0.0000000000000000     
   2.8800000000000006E-002     0.0000000000000000     
   2.9100000000000001E-002     0.0000000000000000     
   2.9400000000000003E-002     0.0000000000000000     
   2.9700000000000004E-002     0.0000000000000000     
   3.0000000000000006E-002     0.0000000000000000     
   3.0300000000000001E-002     0.0000000000000000     
   3.0600000000000002E-002     0.0000000000000000     
   3.0900000000000004E-002     0.0000000000000000     
   3.1199999999999999E-002     0.0000000000000000     
   3.1500000000000007E-002     0.0000000000000000     
   3.1800000000000002E-002     0.0000000000000000     
   3.2099999999999997E-002     0.0000000000000000     
   3.2400000000000005E-002     0.0000000000000000     
   3.2700000000000000E-002     0.0000000000000000     
   3.3000000000000002E-002     0.0000000000000000     
   3.3300000000000003E-002     0.0000000000000000     
   3.3599999999999998E-002     0.0000000000000000     
   3.3900000000000000E-002     0.0000000000000000     
   3.4200000000000001E-002     0.0000000000000000     
   3.4500000000000003E-002     0.0000000000000000     
   3.4799999999999998E-002    -5.9807249769517825E-045
   3.5099999999999999E-002    -1.8426807259240113E-044
   3.5400000000000001E-002    -5.7474400811860004E-037
   3.5699999999999996E-002     8.9100183714412437E-036
   3.6000000000000004E-002    -1.3140492939229967E-035
   3.6299999999999999E-002     3.3190761161705838E-035
   3.6600000000000008E-002     1.9895967942152073E-033
   3.6900000000000002E-002    -9.7532924257917154E-033
   3.7199999999999997E-002     2.4156584758126735E-032
   3.7500000000000006E-002    -5.1194846684468481E-032
   3.7800000000000000E-002     9.6884586322306692E-032
   3.8100000000000009E-002    -1.1015761359509402E-031
   3.8400000000000004E-002    -2.0520548216247403E-031
   3.8699999999999998E-002     1.9019443459998204E-030
   3.9000000000000007E-002    -8.0006252504128243E-030
   3.9300000000000002E-002     2.5588695000692681E-029
   3.9600000000000003E-002    -6.7166923991693718E-029
   3.9900000000000005E-002     1.4279249882569778E-028
   4.0200000000000000E-002    -2.1642748838312769E-028
   4.0500000000000001E-002     6.5779995649175441E-029
   4.0800000000000003E-002     1.0460713960921288E-027
   4.1100000000000005E-002    -4.9016426753079642E-027
   4.1399999999999999E-002     1.4589949215897030E-026
   4.1700000000000008E-002    -3.2570749686800383E-026
   4.2000000000000003E-002     5.1770407700516559E-026
   4.2299999999999997E-002    -3.2142256244678450E-026
   4.2600000000000006E-002    -1.4027668022514172E-025
   4.2900000000000001E-002     6.8455288020014618E-025
   4.3200000000000002E-002    -1.8376060192203129E-024
   4.3500000000000004E-002     3.4103378773175501E-024
   4.3799999999999999E-002    -3.7013941835376799E-024
   4.4100000000000000E-002    -2.0872474249999729E-024
   4.4400000000000002E-002     2.2245870909755103E-023
   4.4700000000000004E-002    -6.3240898927632811E-023
   4.4999999999999998E-002     1.1222278040957885E-022
   4.5300000000000000E-002    -1.0684010327025675E-022
   4.5600000000000002E-002    -8.3916230156427418E-023
   4.5899999999999996E-002     6.0213084698690277E-022
   4.6200000000000005E-002    -1.3857185028045543E-021
   4.6500000000000000E-002     1.8378646139013224E-021
   4.6799999999999994E-002    -7.6585072732006642E-022
   4.7100000000000003E-002    -2.8037333894105188E-021
   4.7399999999999998E-002     8.4665433344131153E-021
   4.7700000000000006E-002    -1.6933081857198765E-020
   4.8000000000000001E-002     3.9616365629733435E-020
   4.8300000000000010E-002    -8.7425044976563262E-020
   4.8600000000000004E-002     9.9575259550735100E-021
   4.8899999999999999E-002     1.0577567900886771E-018
   4.9200000000000008E-002    -5.6506341787373477E-018
   4.9500000000000002E-002     1.8379700918982606E-017
   4.9800000000000011E-002    -4.5223250343932815E-017
   5.0100000000000006E-002     1.0215437506888385E-016
   5.0400000000000000E-002    -2.7446537671385736E-016
   5.0700000000000009E-002     8.5918832505812443E-016
   5.1000000000000004E-002    -2.2486089287102312E-015
   5.1299999999999998E-002     2.6675434885252408E-015
   5.1600000000000007E-002     1.1560850062845559E-014
   5.1900000000000002E-002    -9.0930955199469017E-014
   5.2200000000000010E-002     3.5429491725522446E-013
   5.2500000000000005E-002    -9.2767398984854418E-013
   5.2800000000000000E-002     1.4105499866869437E-012
   5.3099999999999994E-002     1.0154102645806427E-012
   5.3400000000000003E-002    -1.5462652856612785E-011
   5.3699999999999998E-002     5.7897861748660391E-011
   5.4000000000000006E-002    -1.2022180304045227E-010
   5.4300000000000001E-002     4.2942453569623314E-011
   5.4599999999999996E-002     7.0228989635752954E-010
   5.4900000000000004E-002    -2.7253293784029263E-009
   5.5199999999999999E-002     4.0083325877934780E-009
   5.5499999999999994E-002     6.0545838790538860E-009
   5.5800000000000002E-002    -4.1724119499552668E-008
   5.6099999999999997E-002     6.0439231496325619E-008
   5.6400000000000006E-002     1.2178810911448720E-007
   5.6700000000000000E-002    -5.8532032691880773E-007
   5.6999999999999995E-002     2.3309854628703523E-008
   5.7300000000000004E-002     4.8091255539901935E-006
   5.7599999999999998E-002     9.2223361877774143E-006
   5.7900000000000007E-002     8.2892255825414870E-006
   5.8200000000000002E-002     7.4713047553484850E-006
   5.8499999999999996E-002     1.1881400390358528E-005
   5.8800000000000005E-002     1.9065693596483092E-005
   5.9100000000000000E-002     2.8465926986539191E-005
   5.9400000000000008E-002     4.4386826251827081E-005
   5.9700000000000003E-002     6.9962653770557959E-005
   6.0000000000000012E-002     1.0258056771197003E-004
   6.0300000000000006E-002     1.4058433464200651E-004
   6.0600000000000001E-002     1.8979201389804709E-004
   6.0900000000000010E-002     2.5530336779204217E-004
   6.1200000000000004E-002     3.3926660826735740E-004
   6.1500000000000013E-002     4.4398745709862064E-004
   6.1800000000000008E-002     5.6626152439140907E-004
   6.2100000000000002E-002     6.9693411310376937E-004
   6.2399999999999997E-002     8.2683143401908910E-004
   6.2700000000000006E-002     9.4509478980675846E-004
   6.3000000000000000E-002     1.0295876908043553E-003
   6.3300000000000009E-002     1.0459881648069885E-003
   6.3600000000000004E-002     9.5312907674732891E-004
   6.3899999999999998E-002     6.9642537809647793E-004
   6.4199999999999993E-002     2.0980795477760402E-004
   6.4500000000000002E-002    -5.7105306257776737E-004
   6.4800000000000010E-002    -1.7168270270848521E-003
   6.5100000000000005E-002    -3.3056290990961940E-003
   6.5400000000000000E-002    -5.3926836216868944E-003
   6.5700000000000008E-002    -7.9980445309318065E-003
   6.5999999999999989E-002    -1.1112726193911713E-002
   6.6299999999999998E-002    -1.4683685133848098E-002
   6.6600000000000006E-002    -1.8590142783624058E-002
   6.6900000000000001E-002    -2.2631080617927631E-002
   6.7199999999999996E-002    -2.6537202060274490E-002
   6.7500000000000004E-002    -2.9984026877796624E-002
   6.7800000000000013E-002    -3.2571993475119167E-002
   6.8099999999999994E-002    -3.3853001587851449E-002
   6.8400000000000002E-002    -3.3403642174858555E-002
   6.8700000000000011E-002    -3.0845131446919430E-002
   6.8999999999999992E-002    -2.5857712840015434E-002
   6.9300000000000000E-002    -1.8248092218184294E-002
   6.9600000000000009E-002    -7.9942680166030823E-003
   6.9900000000000004E-002     4.7507704751152723E-003
   7.0199999999999999E-002     1.9635882053003893E-002
   7.0500000000000007E-002     3.6116521481700394E-002
   7.0800000000000016E-002     5.3501922157258075E-002
   7.1099999999999997E-002     7.0994994897202429E-002
   7.1400000000000005E-002     8.7758629726385859E-002
   7.1700000000000000E-002    0.10300772544695666     
   7.1999999999999995E-002    0.11606879428221806     
   7.2300000000000003E-002    0.12643712645651070     
   7.2600000000000012E-002    0.13384948550905629     
   7.2900000000000006E-002    0.13828563566284099     
   7.3200000000000001E-002    0.13992637270523969     
   7.3499999999999996E-002    0.13913565749449464     
   7.3800000000000004E-002    0.13638602074844416     
   7.4099999999999999E-002    0.13212805867648394     
   7.4400000000000008E-002    0.12671413903448719     
   7.4700000000000003E-002    0.12030783931721947     
   7.5000000000000011E-002    0.11281010405669729     
   7.5299999999999992E-002    0.10383752637944774     
   7.5600000000000001E-002     9.2738493413246470E-002
   7.5900000000000009E-002     7.8670098632335275E-002
   7.6200000000000004E-002     6.0720566068553708E-002
   7.6499999999999999E-002     3.8071304165611018E-002
   7.6800000000000007E-002     1.0171506407395258E-002
   7.7099999999999988E-002    -2.3133782518252839E-002
   7.7399999999999997E-002    -6.1414885767097888E-002
   7.7700000000000005E-002   -0.10357540757364816     
   7.8000000000000014E-002   -0.14786255230277495     
   7.8299999999999995E-002   -0.19191375204343303     
   7.8600000000000003E-002   -0.23290097504322635     
   7.8900000000000012E-002   -0.26774766798767485     
   7.9199999999999993E-002   -0.29341789812437985     
   7.9500000000000001E-002   -0.30721211151236893     
   7.9800000000000010E-002   -0.30706184818540655     
   8.0100000000000018E-002   -0.29182976212534001     
   8.0399999999999999E-002   -0.26147049419790580     
   8.0700000000000008E-002   -0.21712741049325182     
   8.1000000000000003E-002   -0.16113936744974902     
   8.1299999999999997E-002    -9.6969461953525501E-002
   8.1600000000000006E-002    -2.8897303733492676E-002
   8.1900000000000014E-002     3.8279019029691601E-002
   8.2199999999999995E-002     9.9563165659486502E-002
   8.2500000000000004E-002    0.15021251010043785     
   8.2799999999999999E-002    0.18610435557390620     
   8.3100000000000007E-002    0.20401054435113639     
   8.3400000000000002E-002    0.20193020813049564     
   8.3700000000000011E-002    0.17921772430985075     
   8.4000000000000005E-002    0.13656405972925606     
   8.4300000000000000E-002     7.5976452936867681E-002
   8.4599999999999995E-002     5.9447239909799041E-004
   8.4900000000000003E-002    -8.5505440169093422E-002
   8.5199999999999998E-002   -0.17767345755284317     
   8.5500000000000007E-002   -0.27093752983057789     
   8.5800000000000001E-002   -0.36021583954298708     
   8.6100000000000010E-002   -0.44077139699355850     
   8.6399999999999991E-002   -0.50831770439169954     
   8.6699999999999999E-002   -0.55907588690351695     
   8.7000000000000008E-002   -0.59010666070742024     
   8.7300000000000003E-002   -0.59923678086882837     
   8.7599999999999997E-002   -0.58509355243787498     
   8.7900000000000006E-002   -0.54716515034076985     
   8.8200000000000014E-002   -0.48575001502595749     
   8.8499999999999995E-002   -0.40195771674732228     
   8.8800000000000004E-002   -0.29771670417516605     
   8.9100000000000013E-002   -0.17582511732977096     
   8.9399999999999993E-002    -3.9696443396177894E-002
   8.9700000000000002E-002    0.10649263020627205     
   9.0000000000000011E-002    0.25783669714239771     
   9.0299999999999991E-002    0.40906455737254382     
   9.0600000000000000E-002    0.55452751601902361     
   9.0900000000000009E-002    0.68840693791331187     
   9.1200000000000017E-002    0.80516611784847847     
   9.1499999999999998E-002    0.89970230223541681     
   9.1800000000000007E-002    0.96768497525575903     
   9.2100000000000001E-002     1.0058289673391290     
   9.2399999999999996E-002     1.0121816303341105     
   9.2700000000000005E-002    0.98632680461544386     
   9.3000000000000013E-002    0.92944025140183772     
   9.3300000000000008E-002    0.84427648010766032     
   9.3600000000000003E-002    0.73498081492081391     
   9.3899999999999997E-002    0.60695200610153610     
   9.4200000000000006E-002    0.46649133743058530     
   9.4500000000000001E-002    0.32031717617360150     
   9.4800000000000009E-002    0.17520791148283646     
   9.5100000000000004E-002     3.7653300757343765E-002
   9.5399999999999999E-002    -8.6678995675006851E-002
   9.5699999999999993E-002   -0.19327136674713652     
   9.6000000000000002E-002   -0.27874982078761634     
   9.6300000000000011E-002   -0.34112426302543780     
   9.6600000000000005E-002   -0.37994119153326888     
   9.6900000000000000E-002   -0.39594211789770406     
   9.7200000000000009E-002   -0.39102395990448247     
   9.7499999999999989E-002   -0.36801159026408753     
   9.7799999999999998E-002   -0.33056363145945444     
   9.8100000000000007E-002   -0.28278162806380297     
   9.8400000000000015E-002   -0.22897122585072840     
   9.8699999999999996E-002   -0.17386835654457897     
   9.9000000000000005E-002   -0.12208574905807040     
   9.9300000000000013E-002    -7.8033826674360873E-002
   9.9599999999999994E-002    -4.6108800704282395E-002
   9.9900000000000003E-002    -3.0254827819864005E-002
  0.10020000000000001         -3.3794030592426645E-002
  0.10049999999999999         -5.9241305900798763E-002
  0.10080000000000000        -0.10814075117915982     
  0.10110000000000001        -0.18075340868909523     
  0.10140000000000000        -0.27559435164235968     
  0.10170000000000000        -0.38955253053457728     
  0.10200000000000001        -0.51775556372931308     
  0.10230000000000002        -0.65349661744786158     
  0.10260000000000000        -0.78859775568354173     
  0.10290000000000001        -0.91376238248292496     
  0.10320000000000000         -1.0190799144436300     
  0.10350000000000001         -1.0947970052144140     
  0.10380000000000000         -1.1321256056645062     
  0.10410000000000001         -1.1238806143537254     
  0.10440000000000001         -1.0651197333932463     
  0.10470000000000000        -0.95395367438425727     
  0.10500000000000000        -0.79173224410193366     
  0.10530000000000000        -0.58309727342117346     
  0.10560000000000000        -0.33598097819509543     
  0.10590000000000001         -6.1173557373457192E-002
  0.10620000000000000         0.22848009881170031     
  0.10650000000000001         0.51879775073182566     
  0.10679999999999999         0.79515527970903976     
  0.10710000000000000          1.0434108878567441     
  0.10740000000000001          1.2511674052350157     
  0.10770000000000000          1.4081565013610331     
  0.10800000000000000          1.5068688255221112     
  0.10830000000000001          1.5432822563307917     
  0.10859999999999999          1.5166321854222600     
  0.10890000000000000          1.4293179381297603     
  0.10920000000000001          1.2868049026946136     
  0.10950000000000001          1.0968695778602386     
  0.10979999999999999         0.86912756364072408     
  0.11009999999999999         0.61427807246604027     
  0.11040000000000001         0.34357383534020575     
  0.11070000000000001          6.8298577661977361E-002
  0.11100000000000000        -0.20096987299020050     
  0.11130000000000000        -0.45454126177908261     
  0.11160000000000002        -0.68355285492936180     
  0.11190000000000001        -0.88053946877613731     
  0.11220000000000001         -1.0392930412239683     
  0.11250000000000000         -1.1545076264361913     
  0.11280000000000000         -1.2220626957397391     
  0.11309999999999999         -1.2391232138555011     
  0.11340000000000001         -1.2040581593005202     
  0.11369999999999998         -1.1163513558412101     
  0.11400000000000000        -0.97718118729870074     
  0.11430000000000000        -0.78964387652673407     
  0.11460000000000002        -0.55853062364541139     
  0.11489999999999999        -0.29090252262232774     
  0.11520000000000001          3.9158257047749844E-003
  0.11550000000000001         0.31493910844898310     
  0.11580000000000000         0.62942820195496474     
  0.11609999999999999         0.93347006164859847     
  0.11640000000000002          1.2130381948229745     
  0.11670000000000001          1.4547582729927053     
  0.11700000000000001          1.6464320268964097     
  0.11730000000000000          1.7782968118606601     
  0.11760000000000000          1.8439024517091698     
  0.11789999999999999          1.8401467631266124     
  0.11820000000000001          1.7677066164446795     
  0.11850000000000001          1.6312211603378644     
  0.11880000000000000          1.4385995734740180     
  0.11910000000000000          1.2003432404745189     
  0.11940000000000002         0.92892079725720189     
  0.11970000000000001         0.63767498186512961     
  0.12000000000000001         0.33963712785034650     
  0.12030000000000000          4.6875514178538920E-002
  0.12060000000000000        -0.23027448090034333     
  0.12089999999999999        -0.48388859128311007     
  0.12119999999999999        -0.70859318264206050     
  0.12150000000000001        -0.90128724886434608     
  0.12180000000000001         -1.0611885683848887     
  0.12210000000000000         -1.1890698558217867     
  0.12239999999999999         -1.2869051573857284     
  0.12270000000000002         -1.3570852153573834     
  0.12300000000000001         -1.4018068184950461     
  0.12330000000000001         -1.4229994883301427     
  0.12360000000000000         -1.4216873518689443     
  0.12390000000000000         -1.3980946417658506     
  0.12419999999999999         -1.3517595412222536     
  0.12450000000000001         -1.2820095906403803     
  0.12480000000000001         -1.1881829400460391     
  0.12509999999999999         -1.0699294717468979     
  0.12540000000000001        -0.92814242092638399     
  0.12570000000000003        -0.76480286715456991     
  0.12600000000000000        -0.58347552578660955     
  0.12630000000000002        -0.38927280634765993     
  0.12659999999999999        -0.18851157924816755     
  0.12690000000000001          1.1260088779979100E-002
  0.12719999999999998         0.20206039920208188     
  0.12750000000000000         0.37606545921313728     
  0.12780000000000002         0.52581947564727194     
  0.12809999999999999         0.64516990810729224     
  0.12840000000000001         0.72977589936871390     
  0.12869999999999998         0.77723419015498518     
  0.12900000000000000         0.78711211033545703     
  0.12930000000000003         0.76139914373652140     
  0.12959999999999999         0.70407938398362846     
  0.12990000000000002         0.62046241276914449     
  0.13019999999999998         0.51736974321446738     
  0.13050000000000000         0.40242755114756612     
  0.13080000000000003         0.28324931658917163     
  0.13109999999999999         0.16742816456776635     
  0.13140000000000002          6.2139056319370126E-002
  0.13169999999999998         -2.6549525204369255E-002
  0.13200000000000001         -9.3670479140134960E-002
  0.13229999999999997        -0.13553003861510660     
  0.13260000000000000        -0.14996501694794098     
  0.13290000000000002        -0.13646136135085155     
  0.13319999999999999         -9.6095337985975721E-002
  0.13350000000000001         -3.1647928172120643E-002
  0.13380000000000003          5.2484239546599899E-002
  0.13410000000000000         0.15027262103577443     
  0.13440000000000002         0.25451758250316558     
  0.13469999999999999         0.35718735716208561     
  0.13500000000000001         0.44969200679011156     
  0.13529999999999998         0.52353006134928481     
  0.13560000000000000         0.57101821399566366     
  0.13590000000000002         0.58601682873169103     
  0.13619999999999999         0.56421297308556573     
  0.13650000000000001         0.50379108959552332     
  0.13680000000000003         0.40597030186444294     
  0.13710000000000000         0.27455240270578013     
  0.13740000000000002         0.11595127651987004     
  0.13769999999999999         -6.1057358250055045E-002
  0.13800000000000001        -0.24613190955419217     
  0.13829999999999998        -0.42833157987135806     
  0.13860000000000000        -0.59675263830304159     
  0.13890000000000002        -0.74135416097644691     
  0.13919999999999999        -0.85379522298242605     
  0.13950000000000001        -0.92807494794842726     
  0.13979999999999998        -0.96063195837748594     
  0.14010000000000000        -0.95052771953537918     
  0.14040000000000002        -0.89939879612927054     
  0.14069999999999999        -0.81091158904468852     
  0.14100000000000001        -0.69056677248180132     
  0.14130000000000004        -0.54501604590576291     
  0.14160000000000000        -0.38134413655364402     
  0.14189999999999997        -0.20707268859772190     
  0.14219999999999999         -2.9279218959650039E-002
  0.14250000000000002         0.14541543876878729     
  0.14279999999999998         0.31076052505022966     
  0.14310000000000000         0.46142646265981280     
  0.14339999999999997         0.59249221768024218     
  0.14369999999999999         0.69958257078957087     
  0.14400000000000002         0.77880089815652909     
  0.14429999999999998         0.82677107352984835     
  0.14460000000000001         0.84081523905578948     
  0.14490000000000003         0.81880968124773035     
  0.14520000000000000         0.75966584048442509     
  0.14550000000000002         0.66364889784737469     
  0.14579999999999999         0.53232335603070924     
  0.14610000000000001         0.36892440610862881     
  0.14640000000000003         0.17858277117274846     
  0.14670000000000000         -3.1797580077214879E-002
  0.14699999999999996        -0.25371932760437493     
  0.14729999999999999        -0.47722452465277498     
  0.14760000000000001        -0.69131469128090828     
  0.14789999999999998        -0.88475715346541906     
  0.14820000000000000         -1.0464212803406625     