  -1.4999999999999999E-002     0.0000000000000000     
  -1.4700000000000000E-002     0.0000000000000000     
  -1.4400000000000000E-002     0.0000000000000000     
  -1.4100000000000000E-002     0.0000000000000000     
  -1.3800000000000000E-002     0.0000000000000000     
  -1.3500000000000000E-002     0.0000000000000000     
  -1.3200000000000000E-002     0.0000000000000000     
  -1.2899999999999998E-002     0.0000000000000000     
  -1.2600000000000000E-002     0.0000000000000000     
  -1.2299999999999998E-002     0.0000000000000000     
  -1.2000000000000000E-002     0.0000000000000000     
  -1.1699999999999999E-002     0.0000000000000000     
  -1.1399999999999999E-002     0.0000000000000000     
  -1.1099999999999999E-002     0.0000000000000000     
  -1.0799999999999999E-002     0.0000000000000000     
  -1.0499999999999999E-002     0.0000000000000000     
  -1.0199999999999999E-002     0.0000000000000000     
  -9.8999999999999991E-003     0.0000000000000000     
  -9.5999999999999992E-003     0.0000000000000000     
  -9.2999999999999992E-003     0.0000000000000000     
  -8.9999999999999993E-003     0.0000000000000000     
  -8.6999999999999994E-003     0.0000000000000000     
  -8.3999999999999995E-003     0.0000000000000000     
  -8.0999999999999996E-003     0.0000000000000000     
  -7.7999999999999988E-003     0.0000000000000000     
  -7.4999999999999997E-003     0.0000000000000000     
  -7.1999999999999998E-003     0.0000000000000000     
  -6.8999999999999981E-003     0.0000000000000000     
  -6.5999999999999982E-003     0.0000000000000000     
  -6.3000000000000000E-003     0.0000000000000000     
  -6.0000000000000001E-003     0.0000000000000000     
  -5.6999999999999985E-003     0.0000000000000000     
  -5.3999999999999986E-003     0.0000000000000000     
  -5.1000000000000004E-003     0.0000000000000000     
  -4.7999999999999987E-003     0.0000000000000000     
  -4.5000000000000005E-003     0.0000000000000000     
  -4.1999999999999989E-003     0.0000000000000000     
  -3.8999999999999990E-003     0.0000000000000000     
  -3.5999999999999990E-003     0.0000000000000000     
  -3.2999999999999991E-003     0.0000000000000000     
  -2.9999999999999992E-003     0.0000000000000000     
  -2.6999999999999993E-003     0.0000000000000000     
  -2.3999999999999994E-003     0.0000000000000000     
  -2.0999999999999977E-003     0.0000000000000000     
  -1.7999999999999995E-003     0.0000000000000000     
  -1.4999999999999979E-003     0.0000000000000000     
  -1.1999999999999997E-003     0.0000000000000000     
  -8.9999999999999976E-004     0.0000000000000000     
  -5.9999999999999810E-004     0.0000000000000000     
  -2.9999999999999992E-004     0.0000000000000000     
   0.0000000000000000          0.0000000000000000     
   3.0000000000000165E-004     0.0000000000000000     
   5.9999999999999984E-004     0.0000000000000000     
   9.0000000000000149E-004     0.0000000000000000     
   1.2000000000000031E-003     0.0000000000000000     
   1.5000000000000013E-003     0.0000000000000000     
   1.8000000000000030E-003     0.0000000000000000     
   2.1000000000000012E-003     0.0000000000000000     
   2.3999999999999994E-003     0.0000000000000000     
   2.7000000000000010E-003     0.0000000000000000     
   2.9999999999999992E-003     0.0000000000000000     
   3.3000000000000008E-003     0.0000000000000000     
   3.6000000000000025E-003     0.0000000000000000     
   3.9000000000000007E-003     0.0000000000000000     
   4.2000000000000023E-003     0.0000000000000000     
   4.5000000000000005E-003     0.0000000000000000     
   4.7999999999999987E-003     0.0000000000000000     
   5.1000000000000004E-003     0.0000000000000000     
   5.4000000000000020E-003     0.0000000000000000     
   5.7000000000000037E-003     0.0000000000000000     
   5.9999999999999984E-003     0.0000000000000000     
   6.3000000000000000E-003     0.0000000000000000     
   6.6000000000000017E-003     0.0000000000000000     
   6.9000000000000034E-003     0.0000000000000000     
   7.2000000000000015E-003     0.0000000000000000     
   7.5000000000000032E-003     0.0000000000000000     
   7.8000000000000014E-003     0.0000000000000000     
   8.0999999999999996E-003     0.0000000000000000     
   8.4000000000000012E-003     0.0000000000000000     
   8.7000000000000029E-003     0.0000000000000000     
   9.0000000000000011E-003     0.0000000000000000     
   9.2999999999999992E-003     0.0000000000000000     
   9.6000000000000009E-003     0.0000000000000000     
   9.8999999999999991E-003     0.0000000000000000     
   1.0200000000000001E-002     0.0000000000000000     
   1.0500000000000002E-002     0.0000000000000000     
   1.0800000000000004E-002     0.0000000000000000     
   1.1099999999999999E-002     0.0000000000000000     
   1.1400000000000000E-002     0.0000000000000000     
   1.1700000000000002E-002     0.0000000000000000     
   1.2000000000000004E-002     0.0000000000000000     
   1.2300000000000002E-002     0.0000000000000000     
   1.2600000000000000E-002     0.0000000000000000     
   1.2900000000000002E-002     0.0000000000000000     
   1.3200000000000000E-002     0.0000000000000000     
   1.3500000000000002E-002     0.0000000000000000     
   1.3800000000000003E-002     0.0000000000000000     
   1.4100000000000001E-002     0.0000000000000000     
   1.4400000000000000E-002     0.0000000000000000     
   1.4700000000000001E-002     0.0000000000000000     
   1.4999999999999999E-002     0.0000000000000000     
   1.5300000000000001E-002     0.0000000000000000     
   1.5600000000000003E-002     0.0000000000000000     
   1.5899999999999997E-002     0.0000000000000000     
   1.6199999999999999E-002     0.0000000000000000     
   1.6500000000000001E-002     0.0000000000000000     
   1.6800000000000002E-002     0.0000000000000000     
   1.7100000000000004E-002     0.0000000000000000     
   1.7400000000000006E-002     0.0000000000000000     
   1.7700000000000000E-002     0.0000000000000000     
   1.8000000000000002E-002     0.0000000000000000     
   1.8300000000000004E-002     0.0000000000000000     
   1.8600000000000005E-002     0.0000000000000000     
   1.8900000000000000E-002     0.0000000000000000     
   1.9200000000000002E-002     0.0000000000000000     
   1.9500000000000003E-002     0.0000000000000000     
   1.9799999999999998E-002     0.0000000000000000     
   2.0100000000000000E-002     0.0000000000000000     
   2.0400000000000001E-002     0.0000000000000000     
   2.0700000000000003E-002     0.0000000000000000     
   2.0999999999999998E-002     0.0000000000000000     
   2.1299999999999999E-002     0.0000000000000000     
   2.1600000000000001E-002     0.0000000000000000     
   2.1900000000000003E-002     0.0000000000000000     
   2.2200000000000004E-002     0.0000000000000000     
   2.2500000000000006E-002     0.0000000000000000     
   2.2800000000000001E-002     0.0000000000000000     
   2.3100000000000002E-002     0.0000000000000000     
   2.3400000000000004E-002     0.0000000000000000     
   2.3699999999999999E-002     0.0000000000000000     
   2.4000000000000000E-002     0.0000000000000000     
   2.4300000000000002E-002     0.0000000000000000     
   2.4599999999999997E-002     0.0000000000000000     
   2.4900000000000005E-002     0.0000000000000000     
   2.5200000000000000E-002     0.0000000000000000     
   2.5499999999999995E-002     0.0000000000000000     
   2.5800000000000003E-002     0.0000000000000000     
   2.6099999999999998E-002     0.0000000000000000     
   2.6400000000000007E-002     0.0000000000000000     
   2.6700000000000002E-002     0.0000000000000000     
   2.6999999999999996E-002     0.0000000000000000     
   2.7300000000000005E-002     0.0000000000000000     
   2.7600000000000000E-002     0.0000000000000000     
   2.7900000000000008E-002     0.0000000000000000     
   2.8200000000000003E-002     0.0000000000000000     
   2.8499999999999998E-002     0.0000000000000000     
   2.8800000000000006E-002     0.0000000000000000     
   2.9100000000000001E-002     0.0000000000000000     
   2.9400000000000003E-002     0.0000000000000000     
   2.9700000000000004E-002     0.0000000000000000     
   3.0000000000000006E-002     0.0000000000000000     
   3.0300000000000001E-002     0.0000000000000000     
   3.0600000000000002E-002     0.0000000000000000     
   3.0900000000000004E-002     0.0000000000000000     
   3.1199999999999999E-002     0.0000000000000000     
   3.1500000000000007E-002     0.0000000000000000     
   3.1800000000000002E-002     0.0000000000000000     
   3.2099999999999997E-002     0.0000000000000000     
   3.2400000000000005E-002     0.0000000000000000     
   3.2700000000000000E-002     0.0000000000000000     
   3.3000000000000002E-002     0.0000000000000000     
   3.3300000000000003E-002     0.0000000000000000     
   3.3599999999999998E-002     0.0000000000000000     
   3.3900000000000000E-002     0.0000000000000000     
   3.4200000000000001E-002     0.0000000000000000     
   3.4500000000000003E-002     0.0000000000000000     
   3.4799999999999998E-002     6.5252395646764935E-041
   3.5099999999999999E-002     2.0229523109741567E-040
   3.5400000000000001E-002     4.2338450382304204E-038
   3.5699999999999996E-002    -7.0989844288251055E-037
   3.6000000000000004E-002     2.2775037728102534E-036
   3.6299999999999999E-002    -4.8582742541664262E-035
   3.6600000000000008E-002    -7.8045368513723223E-035
   3.6900000000000002E-002     1.4295322395879295E-033
   3.7199999999999997E-002    -8.3230438764396598E-033
   3.7500000000000006E-002     2.2657496875495507E-032
   3.7800000000000000E-002    -4.5564232330541543E-032
   3.8100000000000009E-002     7.4850410390864829E-032
   3.8400000000000004E-002    -4.7369389784136242E-032
   3.8699999999999998E-002    -3.4471750988402545E-031
   3.9000000000000007E-002     2.1292447370385936E-030
   3.9300000000000002E-002    -8.1247687290338720E-030
   3.9600000000000003E-002     2.4656906108211786E-029
   3.9900000000000005E-002    -6.2260200862181713E-029
   4.0200000000000000E-002     1.2763350011878927E-028
   4.0500000000000001E-002    -1.8359127075064674E-028
   4.0800000000000003E-002     2.5834885288802145E-029
   4.1100000000000005E-002     9.9761109030263449E-028
   4.1399999999999999E-002    -4.4291240906537256E-027
   4.1700000000000008E-002     1.2909697239496944E-026
   4.2000000000000003E-002    -2.8595568102982718E-026
   4.2299999999999997E-002     4.6011282943115241E-026
   4.2600000000000006E-002    -3.3447211973845957E-026
   4.2900000000000001E-002    -9.9506959486873578E-026
   4.3200000000000002E-002     5.2841998708916987E-025
   4.3500000000000004E-002    -1.4558496053538107E-024
   4.3799999999999999E-002     2.7984499340951297E-024
   4.4100000000000000E-002    -3.4163076084343522E-024
   4.4400000000000002E-002    -2.9743038797302434E-026
   4.4700000000000004E-002     1.3501171069167088E-023
   4.4999999999999998E-002    -4.2422203280231528E-023
   4.5300000000000000E-002     8.1014407894172064E-023
   4.5600000000000002E-002    -9.4077809994883867E-023
   4.5899999999999996E-002     5.2984037673127210E-024
   4.6200000000000005E-002     2.7267164525187819E-022
   4.6500000000000000E-002    -7.3243023476236530E-022
   4.6799999999999994E-002     1.1370542054751246E-021
   4.7100000000000003E-002    -1.0586707406964366E-021
   4.7399999999999998E-002     2.1412591061762888E-022
   4.7700000000000006E-002     1.8272223169730120E-021
   4.8000000000000001E-002    -9.3602038714748702E-021
   4.8300000000000010E-002     3.7341727150176579E-020
   4.8600000000000004E-002    -9.6192514366163160E-020
   4.8899999999999999E-002     7.5407612026409233E-020
   4.9200000000000008E-002     5.4199136782428553E-019
   4.9500000000000002E-002    -2.7965731957129673E-018
   4.9800000000000011E-002     6.7825817121228919E-018
   5.0100000000000006E-002    -6.8236550870358994E-018
   5.0400000000000000E-002    -1.2896791321832117E-017
   5.0700000000000009E-002     6.5763479404197749E-017
   5.1000000000000004E-002    -1.4291232838437299E-016
   5.1299999999999998E-002     4.3586796064949925E-016
   5.1600000000000007E-002    -2.7555860296506764E-015
   5.1900000000000002E-002     1.4785081328997591E-014
   5.2200000000000010E-002    -5.5557233980726012E-014
   5.2500000000000005E-002     1.4101501753890435E-013
   5.2800000000000000E-002    -1.6980963159541697E-013
   5.3099999999999994E-002    -4.6975818736743792E-013
   5.3400000000000003E-002     3.6889080471213036E-012
   5.3699999999999998E-002    -1.2802551808787718E-011
   5.4000000000000006E-002     2.6069152700543844E-011
   5.4300000000000001E-002    -8.5427051910475548E-012
   5.4599999999999996E-002    -1.6510779134189746E-010
   5.4900000000000004E-002     6.8721216497959974E-010
   5.5199999999999999E-002    -1.2508878678704467E-009
   5.5499999999999994E-002    -6.5081790220237374E-010
   5.5800000000000002E-002     1.0405559807424526E-008
   5.6099999999999997E-002    -2.4511818532267060E-008
   5.6400000000000006E-002    -5.5853764430997273E-009
   5.6700000000000000E-002     1.5859941671749845E-007
   5.6999999999999995E-002    -2.6425094026807849E-007
   5.7300000000000004E-002    -5.9847324526291861E-007
   5.7599999999999998E-002     2.5792413970771079E-006
   5.7900000000000007E-002     7.8999047340661380E-006
   5.8200000000000002E-002     8.9706929121319542E-006
   5.8499999999999996E-002     7.4412667538352806E-006
   5.8800000000000005E-002     1.0087029231709767E-005
   5.9100000000000000E-002     1.6587344896808777E-005
   5.9400000000000008E-002     2.4905330733145907E-005
   5.9700000000000003E-002     3.7497339765075243E-005
   6.0000000000000012E-002     5.7747903062008854E-005
   6.0300000000000006E-002     8.6960409499684725E-005
   6.0600000000000001E-002     1.2458127461918028E-004
   6.0900000000000010E-002     1.7139221534760379E-004
   6.1200000000000004E-002     2.2982981810507633E-004
   6.1500000000000013E-002     3.0394467192274775E-004
   6.1800000000000008E-002     3.9853880944933637E-004
   6.2100000000000002E-002     5.1260455352902811E-004
   6.2399999999999997E-002     6.3929329401746357E-004
   6.2700000000000006E-002     7.6955692364580450E-004
   6.3000000000000000E-002     8.9062787929101756E-004
   6.3300000000000009E-002     9.8335113677268425E-004
   6.3600000000000004E-002     1.0179223612859858E-003
   6.3899999999999998E-002     9.5446917821842038E-004
   6.4199999999999993E-002     7.4419384911107375E-004
   6.4500000000000002E-002     3.2446657582831996E-004
   6.4800000000000010E-002    -3.7450570979924143E-004
   6.5100000000000005E-002    -1.4220253668432124E-003
   6.5400000000000000E-002    -2.8924947965773781E-003
   6.5700000000000008E-002    -4.8530300093381400E-003
   6.5999999999999989E-002    -7.3375817032141884E-003
   6.6299999999999998E-002    -1.0341797019332351E-002
   6.6600000000000006E-002    -1.3820654946454066E-002
   6.6900000000000001E-002    -1.7671669093561156E-002
   6.7199999999999996E-002    -2.1713553014651242E-002
   6.7500000000000004E-002    -2.5681051355555738E-002
   6.7800000000000013E-002    -2.9244366825174811E-002
   6.8099999999999994E-002    -3.2015198780228335E-002
   6.8400000000000002E-002    -3.3545840619556531E-002
   6.8700000000000011E-002    -3.3374313522320634E-002
   6.8999999999999992E-002    -3.1088503663241215E-002
   6.9300000000000000E-002    -2.6352338893482190E-002
   6.9600000000000009E-002    -1.8946565490767488E-002
   6.9900000000000004E-002    -8.8276043325921649E-003
   7.0199999999999999E-002     3.8480025928476994E-003
   7.0500000000000007E-002     1.8705563625450665E-002
   7.0800000000000016E-002     3.5147537968400491E-002
   7.1099999999999997E-002     5.2392051513762042E-002
   7.1400000000000005E-002     6.9528489379203862E-002
   7.1700000000000000E-002     8.5582136084964483E-002
   7.1999999999999995E-002     9.9616574989030121E-002
   7.2300000000000003E-002    0.11083810746841888     
   7.2600000000000012E-002    0.11866489435927416     
   7.2900000000000006E-002    0.12280430624475169     
   7.3200000000000001E-002    0.12331989294620774     
   7.3499999999999996E-002    0.12060768517074610     
   7.3800000000000004E-002    0.11534331731564364     
   7.4099999999999999E-002    0.10842819743363347     
   7.4400000000000008E-002    0.10087622405536920     
   7.4700000000000003E-002     9.3631157721965813E-002
   7.5000000000000011E-002     8.7447317242282080E-002
   7.5299999999999992E-002     8.2769675409699095E-002
   7.5600000000000001E-002     7.9603926379181400E-002
   7.5900000000000009E-002     7.7487444271290243E-002
   7.6200000000000004E-002     7.5487621995632928E-002
   7.6499999999999999E-002     7.2295384189338216E-002
   7.6800000000000007E-002     6.6354043670967117E-002
   7.7099999999999988E-002     5.6074465233600462E-002
   7.7399999999999997E-002     4.0044375682903470E-002
   7.7700000000000005E-002     1.7248016131313427E-002
   7.8000000000000014E-002    -1.2689976025754729E-002
   7.8299999999999995E-002    -4.9369031935998398E-002
   7.8600000000000003E-002    -9.1566943977215126E-002
   7.8900000000000012E-002   -0.13721270238280084     
   7.9199999999999993E-002   -0.18346851185155919     
   7.9500000000000001E-002   -0.22703147272635171     
   7.9800000000000010E-002   -0.26439524828953553     
   8.0100000000000018E-002   -0.29209888848520638     
   8.0399999999999999E-002   -0.30716455498466860     
   8.0700000000000008E-002   -0.30747050699202871     
   8.1000000000000003E-002   -0.29193657541049089     
   8.1299999999999997E-002   -0.26069276350245807     
   8.1600000000000006E-002   -0.21523036296609241     
   8.1900000000000014E-002   -0.15832412700513693     
   8.2199999999999995E-002    -9.3769923516418330E-002
   8.2500000000000004E-002    -2.6164148437538406E-002
   8.2799999999999999E-002     3.9441674664911129E-002
   8.3100000000000007E-002     9.8038236956698763E-002
   8.3400000000000002E-002    0.14502283428885662     
   8.3700000000000011E-002    0.17652082027778304     
   8.4000000000000005E-002    0.18975186349594855     
   8.4300000000000000E-002    0.18325556515528973     
   8.4599999999999995E-002    0.15691661199222368     
   8.4900000000000003E-002    0.11191735571038811     
   8.5199999999999998E-002     5.0711413857667524E-002
   8.5500000000000007E-002    -2.3248457675503299E-002
   8.5800000000000001E-002   -0.10586341808722757     
   8.6100000000000010E-002   -0.19251272883017395     
   8.6399999999999991E-002   -0.27840899566107574     
   8.6699999999999999E-002   -0.35898542799406896     
   8.7000000000000008E-002   -0.42995102776030253     
   8.7300000000000003E-002   -0.48751527296664476     
   8.7599999999999997E-002   -0.52854806188999570     
   8.7900000000000006E-002   -0.55060092655754955     
   8.8200000000000014E-002   -0.55192504444623391     
   8.8499999999999995E-002   -0.53147907151493179     
   8.8800000000000004E-002   -0.48904321211730184     
   8.9100000000000013E-002   -0.42498577828627354     
   8.9399999999999993E-002   -0.34044590210298031     
   8.9700000000000002E-002   -0.23739590055385645     
   9.0000000000000011E-002   -0.11839585082556289     
   9.0299999999999991E-002     1.3228836551997639E-002
   9.0600000000000000E-002    0.15342250734944723     
   9.0900000000000009E-002    0.29760466999357987     
   9.1200000000000017E-002    0.44064541776551258     
   9.1499999999999998E-002    0.57713894634144836     
   9.1800000000000007E-002    0.70161302684289539     
   9.2100000000000001E-002    0.80880445571394344     
   9.2399999999999996E-002    0.89395214677537183     
   9.2700000000000005E-002    0.95309620703885134     
   9.3000000000000013E-002    0.98332826969331877     
   9.3300000000000008E-002    0.98306133463420431     
   9.3600000000000003E-002    0.95221879914708185     
   9.3899999999999997E-002    0.89227276138831590     
   9.4200000000000006E-002    0.80604167580720243     
   9.4500000000000001E-002    0.69772771931612010     
   9.4800000000000009E-002    0.57267468285474865     
   9.5100000000000004E-002    0.43689630008915892     
   9.5399999999999999E-002    0.29664906653143347     
   9.5699999999999993E-002    0.15830028940107965     
   9.6000000000000002E-002     2.7725177166365807E-002
   9.6300000000000011E-002    -9.0090217210174822E-002
   9.6600000000000005E-002   -0.19112868280293083     
   9.6900000000000000E-002   -0.27256607941986205     
   9.7200000000000009E-002   -0.33285915895204210     
   9.7499999999999989E-002   -0.37180062294912058     
   9.7799999999999998E-002   -0.39026130144118693     
   9.8100000000000007E-002   -0.39001675724119317     
   9.8400000000000015E-002   -0.37387794947560532     
   9.8699999999999996E-002   -0.34507850969437387     
   9.9000000000000005E-002   -0.30724154285230337     
   9.9300000000000013E-002   -0.26436340513660755     
   9.9599999999999994E-002   -0.22045397464753402     
   9.9900000000000003E-002   -0.17954603960934551     
  0.10020000000000001        -0.14556724007426691     
  0.10049999999999999        -0.12214658920014809     
  0.10080000000000000        -0.11264361809383822     
  0.10110000000000001        -0.11975332615260548     
  0.10140000000000000        -0.14552151124667526     
  0.10170000000000000        -0.19105476719932060     
  0.10200000000000001        -0.25620426778076116     
  0.10230000000000002        -0.33958369024389301     
  0.10260000000000000        -0.43827051135272255     
  0.10290000000000001        -0.54780501159636796     
  0.10320000000000000        -0.66237979766227040     
  0.10350000000000001        -0.77487012437668346     
  0.10380000000000000        -0.87730377221302702     
  0.10410000000000001        -0.96130958207159822     
  0.10440000000000001         -1.0187026724298658     
  0.10470000000000000         -1.0420998166758773     
  0.10500000000000000         -1.0255336035845146     
  0.10530000000000000        -0.96494284780431450     
  0.10560000000000000        -0.85876866819050846     
  0.10590000000000001        -0.70821166023113225     
  0.10620000000000000        -0.51726720399816517     
  0.10650000000000001        -0.29254230063271580     
  0.10679999999999999         -4.3185776804372661E-002
  0.10710000000000000         0.21991633927985960     
  0.10740000000000001         0.48471510120036748     
  0.10770000000000000         0.73861796438680749     
  0.10800000000000000         0.96947142170138600     
  0.10830000000000001          1.1662333496553403     
  0.10859999999999999          1.3197961240347353     
  0.10890000000000000          1.4232421113511933     
  0.10920000000000001          1.4723086555991340     
  0.10950000000000001          1.4657322227023746     
  0.10979999999999999          1.4049747606706517     
  0.11009999999999999          1.2938143750040569     
  0.11040000000000001          1.1384472407547557     
  0.11070000000000001         0.94660961283213574     
  0.11100000000000000         0.72701931025350819     
  0.11130000000000000         0.48905886521285691     
  0.11160000000000002         0.24222434682483640     
  0.11190000000000001         -4.4223101895065897E-003
  0.11220000000000001        -0.24245852369587095     
  0.11250000000000000        -0.46420366538811875     
  0.11280000000000000        -0.66281234898588071     
  0.11309999999999999        -0.83243427844635054     
  0.11340000000000001        -0.96773518419371263     
  0.11369999999999998         -1.0642483551811228     
  0.11400000000000000         -1.1183651164942729     
  0.11430000000000000         -1.1270989970055707     
  0.11460000000000002         -1.0883713727199342     
  0.11489999999999999         -1.0012712532939028     
  0.11520000000000001        -0.86641192150173907     
  0.11550000000000001        -0.68624166054811175     
  0.11580000000000000        -0.46497533699265703     
  0.11609999999999999        -0.20914863750134177     
  0.11640000000000002          7.2434768728466659E-002
  0.11670000000000001         0.36903255858909484     
  0.11700000000000001         0.66828112010778851     
  0.11730000000000000         0.95675244021082961     
  0.11760000000000000          1.2207267675145874     
  0.11789999999999999          1.4470431138500834     
  0.11820000000000001          1.6239544892261730     
  0.11850000000000001          1.7421478177343506     
  0.11880000000000000          1.7952682617520275     
  0.11910000000000000          1.7802061268734322     
  0.11940000000000002          1.6976622866736935     
  0.11970000000000001          1.5520768619922554     
  0.12000000000000001          1.3507122550621977     
  0.12030000000000000          1.1033956958318498     
  0.12060000000000000         0.82206991072279112     
  0.12089999999999999         0.51935365570837400     
  0.12119999999999999         0.20769036657839546     
  0.12150000000000001        -0.10118300768774205     
  0.12180000000000001        -0.39678126102700101     
  0.12210000000000000        -0.67090206287190035     
  0.12239999999999999        -0.91723093848935144     
  0.12270000000000002         -1.1313107825383608     
  0.12300000000000001         -1.3109287094634703     
  0.12330000000000001         -1.4552512803783606     
  0.12360000000000000         -1.5641023452664460     
  0.12390000000000000         -1.6380241585102264     
  0.12419999999999999         -1.6779284094560361     
  0.12450000000000001         -1.6843728568566587     
  0.12480000000000001         -1.6573276767794898     
  0.12509999999999999         -1.5968998527057454     
  0.12540000000000001         -1.5033302034617759     
  0.12570000000000003         -1.3764490460491972     
  0.12600000000000000         -1.2171677025682359     
  0.12630000000000002         -1.0276822359005520     
  0.12659999999999999        -0.81112408198517461     
  0.12690000000000001        -0.57241737156898531     
  0.12719999999999998        -0.31846408706639828     
  0.12750000000000000         -5.7466683852993306E-002
  0.12780000000000002         0.20121170193535737     
  0.12809999999999999         0.44729357010513654     
  0.12840000000000001         0.67030093813771519     
  0.12869999999999998         0.86075360145401880     
  0.12900000000000000          1.0103553048124718     
  0.12930000000000003          1.1126166277117222     
  0.12959999999999999          1.1638260691564779     
  0.12990000000000002          1.1630609687082616     
  0.13019999999999998          1.1120204107692626     
  0.13050000000000000          1.0153459269832841     
  0.13080000000000003         0.88032349885403993     
  0.13109999999999999         0.71565033959867985     
  0.13140000000000002         0.53148475343372992     
  0.13169999999999998         0.33899305049968087     
  0.13200000000000001         0.14876109268124804     
  0.13229999999999997         -2.8976101794182280E-002
  0.13260000000000000        -0.18498901378958266     
  0.13290000000000002        -0.31177977686852054     
  0.13319999999999999        -0.40352933511131078     
  0.13350000000000001        -0.45645578969218070     
  0.13380000000000003        -0.46863344497801918     
  0.13410000000000000        -0.44055332518675772     
  0.13440000000000002        -0.37476443970907258     
  0.13469999999999999        -0.27558880166032096     
  0.13500000000000001        -0.14954593294260982     
  0.13529999999999998         -4.7128441425266163E-003
  0.13560000000000000         0.14948810475164237     
  0.13590000000000002         0.30266609885545814     
  0.13619999999999999         0.44401266791438476     
  0.13650000000000001         0.56291536013950405     
  0.13680000000000003         0.64972523930705717     
  0.13710000000000000         0.69644096257290333     
  0.13740000000000002         0.69730611899108685     
  0.13769999999999999         0.64941286102991258     
  0.13800000000000001         0.55306773584892699     
  0.13829999999999998         0.41198718098951725     
  0.13860000000000000         0.23280244979423176     
  0.13890000000000002          2.5353931527738433E-002
  0.13919999999999999        -0.19849599371005780     
  0.13950000000000001        -0.42554605059023631     
  0.13979999999999998        -0.64219964804612717     
  0.14010000000000000        -0.83530799700654212     
  0.14040000000000002        -0.99301906465800527     
  0.14069999999999999         -1.1060388579293396     
  0.14100000000000001         -1.1677918752488414     
  0.14130000000000004         -1.1743203534865736     
  0.14160000000000000         -1.1254410698555679     
  0.14189999999999997         -1.0240113286564383     
  0.14219999999999999        -0.87529454617028424     
  0.14250000000000002        -0.68677826044297619     
  0.14279999999999998        -0.46788766121546188     
  0.14310000000000000        -0.22902011741605433     
  0.14339999999999997          1.9397446286892883E-002
  0.14369999999999999         0.26648586956644893     
  0.14400000000000002         0.50182131934279528     
  0.14429999999999998         0.71608007976692878     
  0.14460000000000001         0.90072677176741511     
  0.14490000000000003          1.0480031048489806     
  0.14520000000000000          1.1516411423899735     
  0.14550000000000002          1.2069027381520494     
  0.14579999999999999          1.2099613491570149     
  0.14610000000000001          1.1586169898385528     
  0.14640000000000003          1.0528524310734215     
  0.14670000000000000         0.89417672552286698     
  0.14699999999999996         0.68611525570620713     
  0.14729999999999999         0.43477144847406268     
  0.14760000000000001         0.14853117601789559     
  0.14789999999999998        -0.16197294135372470     
  0.14820000000000000        -0.48391693150000425     