  -1.4999999999999999E-002     0.0000000000000000     
  -1.4700000000000000E-002     6.7649197810885389E-012
  -1.4400000000000000E-002    -1.0497194031197883E-010
  -1.4100000000000000E-002    -3.3008619380151421E-009
  -1.3800000000000000E-002     7.6883593562394812E-010
  -1.3500000000000000E-002     2.1772111628389521E-008
  -1.3200000000000000E-002     3.7817959192963951E-008
  -1.2899999999999998E-002    -4.1982569673007240E-008
  -1.2600000000000000E-002    -1.7347594711338098E-007
  -1.2299999999999998E-002    -1.4706760045634451E-007
  -1.2000000000000000E-002     3.5516277485285817E-007
  -1.1699999999999999E-002     6.8982413441675983E-007
  -1.1399999999999999E-002     2.8528906806698833E-007
  -1.1099999999999999E-002    -8.7155312867890195E-007
  -1.0799999999999999E-002    -2.4160242033720800E-006
  -1.0499999999999999E-002    -6.3331638831560965E-007
  -1.0199999999999999E-002     2.3914273659240906E-006
  -9.8999999999999991E-003     4.4235719899200703E-006
  -9.5999999999999992E-003     4.1081960953614483E-006
  -9.2999999999999992E-003    -3.8887102501157812E-006
  -8.9999999999999993E-003    -9.5368911058306754E-006
  -8.6999999999999994E-003    -6.9456747221769315E-006
  -8.3999999999999995E-003    -1.1717687843968404E-006
  -8.0999999999999996E-003     1.3372079511726887E-005
  -7.7999999999999988E-003     1.6219476914372406E-005
  -7.4999999999999997E-003     7.2645262289677736E-006
  -7.1999999999999998E-003    -2.6252138694424279E-006
  -6.8999999999999981E-003    -1.5632664359403413E-005
  -6.5999999999999982E-003    -1.5499701900663058E-005
  -6.3000000000000000E-003    -6.5418775915194164E-006
  -6.0000000000000001E-003     4.8824561306182741E-006
  -5.6999999999999985E-003     2.8646010716155360E-005
  -5.3999999999999986E-003     6.1850875074865040E-005
  -5.1000000000000004E-003     1.0798674477729377E-004
  -4.7999999999999987E-003     1.5727017879800436E-004
  -4.5000000000000005E-003     1.9446922010701783E-004
  -4.1999999999999989E-003     2.3030933146993079E-004
  -3.8999999999999990E-003     2.9442270618202987E-004
  -3.5999999999999990E-003     4.4300287144260694E-004
  -3.2999999999999991E-003     7.6158898283388188E-004
  -2.9999999999999992E-003     1.3068868253433878E-003
  -2.6999999999999993E-003     2.0996694288433638E-003
  -2.3999999999999994E-003     3.2113535228423312E-003
  -2.0999999999999977E-003     4.7315287256340446E-003
  -1.7999999999999995E-003     6.7832918926747244E-003
  -1.4999999999999979E-003     9.5634866684230525E-003
  -1.1999999999999997E-003     1.3312415696504827E-002
  -8.9999999999999976E-004     1.8366550445652004E-002
  -5.9999999999999810E-004     2.5162716592992636E-002
  -2.9999999999999992E-004     3.4262347052327009E-002
   0.0000000000000000          4.6422614512036858E-002
   3.0000000000000165E-004     6.2515346784843662E-002
   5.9999999999999984E-004     8.3526907618673013E-002
   9.0000000000000149E-004    0.11050108608132067     
   1.2000000000000031E-003    0.14446685949945254     
   1.5000000000000013E-003    0.18650775836206815     
   1.8000000000000030E-003    0.23779132588126084     
   2.1000000000000012E-003    0.29931282551541233     
   2.3999999999999994E-003    0.37134819696504040     
   2.7000000000000010E-003    0.45336141568466831     
   2.9999999999999992E-003    0.54371642364099459     
   3.3000000000000008E-003    0.63882075953483153     
   3.6000000000000025E-003    0.73262213807902155     
   3.9000000000000007E-003    0.81564419581073777     
   4.2000000000000023E-003    0.87475328792268103     
   4.5000000000000005E-003    0.89270662551662694     
   4.7999999999999987E-003    0.84740143581849459     
   5.1000000000000004E-003    0.71233630221746747     
   5.4000000000000020E-003    0.45703334390259365     
   5.7000000000000037E-003     4.8630233498277435E-002
   5.9999999999999984E-003   -0.54565670808467037     
   6.3000000000000000E-003    -1.3552425587666834     
   6.6000000000000017E-003    -2.4022034853259142     
   6.9000000000000034E-003    -3.6959730552352394     
   7.2000000000000015E-003    -5.2274931509847775     
   7.5000000000000032E-003    -6.9645341115178345     
   7.8000000000000014E-003    -8.8465326123979846     
   8.0999999999999996E-003    -10.782032719213847     
   8.4000000000000012E-003    -12.647865966157143     
   8.7000000000000029E-003    -14.291718170545197     
   9.0000000000000011E-003    -15.538983012816541     
   9.2999999999999992E-003    -16.202895779581269     
   9.6000000000000009E-003    -16.098806053618127     
   9.8999999999999991E-003    -15.060938538854284     
   1.0200000000000001E-002    -12.961670633388895     
   1.0500000000000002E-002    -9.7295835762943632     
   1.0800000000000004E-002    -5.3661302902969235     
   1.1099999999999999E-002     4.1192171894195780E-002
   1.1400000000000000E-002     6.3142583734745843     
   1.1700000000000002E-002     13.186588887551734     
   1.2000000000000004E-002     20.313722101838245     
   1.2300000000000002E-002     27.292353924291199     
   1.2600000000000000E-002     33.687945522888270     
   1.2900000000000002E-002     39.065165563008513     
   1.3200000000000000E-002     43.025065383978507     
   1.3500000000000002E-002     45.238192477578110     
   1.3800000000000003E-002     45.475703158818334     
   1.4100000000000001E-002     43.628935778466314     
   1.4400000000000000E-002     39.723292405337155     
   1.4700000000000001E-002     33.919654079064081     
   1.4999999999999999E-002     26.504132625431371     
   1.5300000000000001E-002     17.868497444347426     
   1.5600000000000003E-002     8.4770896894948198     
   1.5899999999999997E-002    -1.1664015990612571     
   1.6199999999999999E-002    -10.557627437529391     
   1.6500000000000001E-002    -19.225772417166681     
   1.6800000000000002E-002    -26.767783501832298     
   1.7100000000000004E-002    -32.870722962552669     
   1.7400000000000006E-002    -37.332118117103036     
   1.7700000000000000E-002    -40.062117587564728     
   1.8000000000000002E-002    -41.080759979452431     
   1.8300000000000004E-002    -40.506827335020439     
   1.8600000000000005E-002    -38.538702982144827     
   1.8900000000000000E-002    -35.435198865679951     
   1.9200000000000002E-002    -31.487513709101673     
   1.9500000000000003E-002    -26.995456008205252     
   1.9799999999999998E-002    -22.244746582368926     
   2.0100000000000000E-002    -17.490851887500209     
   2.0400000000000001E-002    -12.944023726616868     
   2.0700000000000003E-002    -8.7635628994828192     
   2.0999999999999998E-002    -5.0544374732740254     
   2.1299999999999999E-002    -1.8675665023521986     
   2.1600000000000001E-002    0.79276169699078525     
   2.1900000000000003E-002     2.9597379707943445     
   2.2200000000000004E-002     4.6927718171589436     
   2.2500000000000006E-002     6.0669044101456970     
   2.2800000000000001E-002     7.1624077080737818     
   2.3100000000000002E-002     8.0557334871276485     
   2.3400000000000004E-002     8.8136279801353243     
   2.3699999999999999E-002     9.4844033726453691     
   2.4000000000000000E-002     10.097402315617098     
   2.4300000000000002E-002     10.661845886854247     
   2.4599999999999997E-002     11.169957826014793     
   2.4900000000000005E-002     11.600368198546903     
   2.5200000000000000E-002     11.922743485775610     
   2.5499999999999995E-002     12.101382890772074     
   2.5800000000000003E-002     12.101542152472343     
   2.6099999999999998E-002     11.896299999348219     
   2.6400000000000007E-002     11.469645193377396     
   2.6700000000000002E-002     10.818905538772507     
   2.6999999999999996E-002     9.9562174948523410     
   2.7300000000000005E-002     8.9072997503676508     
   2.7600000000000000E-002     7.7119844196292870     
   2.7900000000000008E-002     6.4199679467864534     
   2.8200000000000003E-002     5.0865939581668602     
   2.8499999999999998E-002     3.7685169056076484     
   2.8800000000000006E-002     2.5196792299683062     
   2.9100000000000001E-002     1.3863842019586197     
   2.9400000000000003E-002    0.40502963518257490     
   2.9700000000000004E-002   -0.40129336334068566     
   3.0000000000000006E-002    -1.0246177689778777     
   3.0300000000000001E-002    -1.4698868624919903     
   3.0600000000000002E-002    -1.7554242147061470     
   3.0900000000000004E-002    -1.9090076163973353     
   3.1199999999999999E-002    -1.9666238477647069     
   3.1500000000000007E-002    -1.9688600939765619     
   3.1800000000000002E-002    -1.9560175573795393     
   3.2099999999999997E-002    -1.9640905287503612     
   3.2400000000000005E-002    -2.0222100627581021     
   3.2700000000000000E-002    -2.1507620202621407     
   3.3000000000000002E-002    -2.3605126680167063     
   3.3300000000000003E-002    -2.6502858867417802     
   3.3599999999999998E-002    -3.0068537371435879     
   3.3900000000000000E-002    -3.4070476566797105     
   3.4200000000000001E-002    -3.8207014972074678     
   3.4500000000000003E-002    -4.2124828175730871     
   3.4799999999999998E-002    -4.5466698395649070     
   3.5099999999999999E-002    -4.7879570639995839     
   3.5400000000000001E-002    -4.9055770517220845     
   3.5699999999999996E-002    -4.8774226790729491     
   3.6000000000000004E-002    -4.6916793517100901     
   3.6299999999999999E-002    -4.3480147138235141     
   3.6600000000000008E-002    -3.8569604292853654     
   3.6900000000000002E-002    -3.2385429437170945     
   3.7199999999999997E-002    -2.5230750328934297     
   3.7500000000000006E-002    -1.7477671599264573     
   3.7800000000000000E-002   -0.95311078493677603     
   3.8100000000000009E-002   -0.17970170706448935     
   3.8400000000000004E-002    0.53522842016107330     
   3.8699999999999998E-002     1.1590920395868409     
   3.9000000000000007E-002     1.6655185974673477     
   3.9300000000000002E-002     2.0379180360386155     
   3.9600000000000003E-002     2.2696647028869235     
   3.9900000000000005E-002     2.3647190875169395     
   4.0200000000000000E-002     2.3348118602523567     
   4.0500000000000001E-002     2.1988794172044299     
   4.0800000000000003E-002     1.9805033822438394     
   4.1100000000000005E-002     1.7087213495327740     
   4.1399999999999999E-002     1.4142098012312834     
   4.1700000000000008E-002     1.1263146063072045     
   4.2000000000000003E-002    0.87039307060933990     
   4.2299999999999997E-002    0.66687671277363825     
   4.2600000000000006E-002    0.53083406347153561     
   4.2900000000000001E-002    0.47102736194439287     
   4.3200000000000002E-002    0.48815898883865938     
   4.3500000000000004E-002    0.57428775811523314     
   4.3799999999999999E-002    0.71509079394798303     
   4.4100000000000000E-002    0.89067635796659861     
   4.4400000000000002E-002     1.0793711882353745     
   4.4700000000000004E-002     1.2570993593853266     
   4.4999999999999998E-002     1.4006704931300620     
   4.5300000000000000E-002     1.4896285149036463     
   4.5600000000000002E-002     1.5088233552068089     
   4.5899999999999996E-002     1.4504425140620307     
   4.6200000000000005E-002     1.3141891600143740     
   4.6500000000000000E-002     1.1064320491953692     
   4.6799999999999994E-002    0.83937451755570491     
   4.7100000000000003E-002    0.53113101253847983     
   4.7399999999999998E-002    0.20185033230834076     
   4.7700000000000006E-002   -0.12601661500334557     
   4.8000000000000001E-002   -0.43294738667861044     
   4.8300000000000010E-002   -0.70363454159543604     
   4.8600000000000004E-002   -0.92703345848937635     
   4.8899999999999999E-002    -1.0984726829998337     
   4.9200000000000008E-002    -1.2185414672782058     
   4.9500000000000002E-002    -1.2922303293152824     
   4.9800000000000011E-002    -1.3291996323364068     
   5.0100000000000006E-002    -1.3398366770916685     
   5.0400000000000000E-002    -1.3341723290473591     
   5.0700000000000009E-002    -1.3194912293888024     
   5.1000000000000004E-002    -1.2992540238488084     
   5.1299999999999998E-002    -1.2732753419023448     
   5.1600000000000007E-002    -1.2377911499008267     
   5.1900000000000002E-002    -1.1854331214650256     
   5.2200000000000010E-002    -1.1076593150919278     
   5.2500000000000005E-002   -0.99582354107391080     
   5.2800000000000000E-002   -0.84350864419692062     
   5.3099999999999994E-002   -0.64940457387376171     
   5.3400000000000003E-002   -0.41629954555867221     
   5.3699999999999998E-002   -0.15238222394309034     
   5.4000000000000006E-002    0.12922343134694672     
   5.4300000000000001E-002    0.41280921251899139     
   5.4599999999999996E-002    0.67934714169754917     
   5.4900000000000004E-002    0.91032747391824265     
   5.5199999999999999E-002     1.0903374915180997     
   5.5499999999999994E-002     1.2077864154625029     
   5.5800000000000002E-002     1.2568756078876895     
   5.6099999999999997E-002     1.2373866772869677     
   5.6400000000000006E-002     1.1545330038091808     
   5.6700000000000000E-002     1.0186868682579793     
   5.6999999999999995E-002    0.84391025788625662     
   5.7300000000000004E-002    0.64507894159813806     
   5.7599999999999998E-002    0.43819745198001347     
   5.7900000000000007E-002    0.23615958475987214     
   5.8200000000000002E-002     4.9343294592792034E-002
   5.8499999999999996E-002   -0.11432822167111666     
   5.8800000000000005E-002   -0.25158101156240237     
   5.9100000000000000E-002   -0.36153718421621112     
   5.9400000000000008E-002   -0.44560828187712104     
   5.9700000000000003E-002   -0.50704472448985449     
   6.0000000000000012E-002   -0.54836677538411027     
   6.0300000000000006E-002   -0.57205920315106940     
   6.0600000000000001E-002   -0.58018522263304451     
   6.0900000000000010E-002   -0.57322310144198818     
   6.1200000000000004E-002   -0.55085991519243083     
   6.1500000000000013E-002   -0.51260607147237458     
   6.1800000000000008E-002   -0.45733081048675506     
   6.2100000000000002E-002   -0.38548945235551740     
   6.2399999999999997E-002   -0.29786347352404502     
   6.2700000000000006E-002   -0.19639310957610884     
   6.3000000000000000E-002    -8.4956670617607019E-002
   6.3300000000000009E-002     3.2352301013560958E-002
   6.3600000000000004E-002    0.14994814971895476     
   6.3899999999999998E-002    0.26277413663085109     
   6.4199999999999993E-002    0.36599322530154632     
   6.4500000000000002E-002    0.45472954780140679     
   6.4800000000000010E-002    0.52411108037660092     
   6.5100000000000005E-002    0.57143800142017720     
   6.5400000000000000E-002    0.59447060630730564     
   6.5700000000000008E-002    0.59294144849320629     
   6.5999999999999989E-002    0.56716595585052643     
   6.6299999999999998E-002    0.51738308390481269     
   6.6600000000000006E-002    0.44582589164058217     
   6.6900000000000001E-002    0.35614581861902728     
   6.7199999999999996E-002    0.25351121264586485     
   6.7500000000000004E-002    0.14421517610799947     
   6.7800000000000013E-002     3.3702608674192232E-002
   6.8099999999999994E-002    -7.1964927596559772E-002
   6.8400000000000002E-002   -0.16672572234163885     
   6.8700000000000011E-002   -0.24451906433446163     
   6.8999999999999992E-002   -0.30039646515912694     
   6.9300000000000000E-002   -0.33219750963043909     
   6.9600000000000009E-002   -0.33998181658685994     
   6.9900000000000004E-002   -0.32599335130697482     
   7.0199999999999999E-002   -0.29341041254031802     
   7.0500000000000007E-002   -0.24640708440170539     
   7.0800000000000016E-002   -0.19037158221316167     
   7.1099999999999997E-002   -0.13203489407564667     
   7.1400000000000005E-002    -7.7143823375795159E-002
   7.1700000000000000E-002    -3.0316224878071708E-002
   7.1999999999999995E-002     5.4666063105537803E-003
   7.2300000000000003E-002     2.8995858611477632E-002
   7.2600000000000012E-002     4.0391150184631415E-002
   7.2900000000000006E-002     4.0639622687702930E-002
   7.3200000000000001E-002     3.2128939854656764E-002
   7.3499999999999996E-002     1.8030145229111744E-002
   7.3800000000000004E-002     2.2791756599279374E-003
   7.4099999999999999E-002    -1.0811709747860391E-002
   7.4400000000000008E-002    -1.7771050565000949E-002
   7.4700000000000003E-002    -1.5879672833632192E-002
   7.5000000000000011E-002    -3.2029690057240046E-003
   7.5299999999999992E-002     2.1830656186042532E-002
   7.5600000000000001E-002     5.9720101000109049E-002
   7.5900000000000009E-002    0.11077829152293901     
   7.6200000000000004E-002    0.17345775150351275     
   7.6499999999999999E-002    0.24439553182656953     
   7.6800000000000007E-002    0.31938990057434691     
   7.7099999999999988E-002    0.39435767132287697     
   7.7399999999999997E-002    0.46482037373456497     
   7.7700000000000005E-002    0.52626054164593761     
   7.8000000000000014E-002    0.57316462677725299     
   7.8299999999999995E-002    0.60006098345120495     
   7.8600000000000003E-002    0.60367028373595499     
   7.8900000000000012E-002    0.58219198978452413     
   7.9199999999999993E-002    0.53636436386530506     
   7.9500000000000001E-002    0.46740158222973205     
   7.9800000000000010E-002    0.37714423723345913     
   8.0100000000000018E-002    0.26898010847548937     
   8.0399999999999999E-002    0.14845294921731630     
   8.0700000000000008E-002     2.1627260780099175E-002
   8.1000000000000003E-002   -0.10521945782345904     
   8.1299999999999997E-002   -0.22686373646015365     
   8.1600000000000006E-002   -0.33997180279386530     
   8.1900000000000014E-002   -0.44082035541639042     
   8.2199999999999995E-002   -0.52643875916255334     
   8.2500000000000004E-002   -0.59457795282049630     
   8.2799999999999999E-002   -0.64449898798335981     
   8.3100000000000007E-002   -0.67754910774274757     
   8.3400000000000002E-002   -0.69545321012592265     
   8.3700000000000011E-002   -0.70010290804479380     
   8.4000000000000005E-002   -0.69345681087127509     
   8.4300000000000000E-002   -0.67725853375603551     
   8.4599999999999995E-002   -0.65476338409078438     
   8.4900000000000003E-002   -0.62954388473063516     
   8.5199999999999998E-002   -0.60401092371235687     
   8.5500000000000007E-002   -0.58049027480463633     
   8.5800000000000001E-002   -0.55990139989207699     
   8.6100000000000010E-002   -0.54285536598001982     
   8.6399999999999991E-002   -0.53031156897128406     
   8.6699999999999999E-002   -0.52198688610784005     
   8.7000000000000008E-002   -0.51640741393302791     
   8.7300000000000003E-002   -0.51079462297115907     
   8.7599999999999997E-002   -0.50174324082842026     
   8.7900000000000006E-002   -0.48656572366492312     
   8.8200000000000014E-002   -0.46275852682208291     
   8.8499999999999995E-002   -0.42725153410610073     
   8.8800000000000004E-002   -0.37745739777361137     
   8.9100000000000013E-002   -0.31110533048282840     
   8.9399999999999993E-002   -0.22756760584209215     
   8.9700000000000002E-002   -0.12766006192836613     
   9.0000000000000011E-002    -1.2957778103008657E-002
   9.0299999999999991E-002    0.11452744628801224     
   9.0600000000000000E-002    0.25163536609825810     
   9.0900000000000009E-002    0.39445715057058489     
   9.1200000000000017E-002    0.53804634482398173     
   9.1499999999999998E-002    0.67676691281276058     
   9.1800000000000007E-002    0.80507162935166521     
   9.2100000000000001E-002    0.91800657346172221     
   9.2399999999999996E-002     1.0106788594303129     
   9.2700000000000005E-002     1.0786570012322263     
   9.3000000000000013E-002     1.1186260867469762     
   9.3300000000000008E-002     1.1287437365475319     
   9.3600000000000003E-002     1.1087402992650965     
   9.3899999999999997E-002     1.0600517699030043     
   9.4200000000000006E-002    0.98611972040254214     
   9.4500000000000001E-002    0.89166156020505305     
   9.4800000000000009E-002    0.78282544853122815     
   9.5100000000000004E-002    0.66644869395304951     
   9.5399999999999999E-002    0.54978309535732039     
   9.5699999999999993E-002    0.43951158499174958     
   9.6000000000000002E-002    0.34186710953909555     
   9.6300000000000011E-002    0.26122283171137484     
   9.6600000000000005E-002    0.20016690463396578     
   9.6900000000000000E-002    0.15946037541377830     
   9.7200000000000009E-002    0.13746113615916106     
   9.7499999999999989E-002    0.13175385748596014     
   9.7799999999999998E-002    0.13754014199547790     
   9.8100000000000007E-002    0.14903507610063788     
   9.8400000000000015E-002    0.16047617245628687     
   9.8699999999999996E-002    0.16572987477555001     
   9.9000000000000005E-002    0.15946295312487910     
   9.9300000000000013E-002    0.13713509837880422     
   9.9599999999999994E-002     9.4796765455305979E-002
   9.9900000000000003E-002     3.0565764599713489E-002
  0.10020000000000001         -5.5582765155239196E-002
  0.10049999999999999        -0.16243649717347866     
  0.10080000000000000        -0.28699609022554318     
  0.10110000000000001        -0.42564432821754800     
  0.10140000000000000        -0.57318084011713288     
  0.10170000000000000        -0.72248427227256273     
  0.10200000000000001        -0.86664829438969471     
  0.10230000000000002        -0.99918941108151016     
  0.10260000000000000         -1.1147144745725572     
  0.10290000000000001         -1.2075332083346020     
  0.10320000000000000         -1.2731231109202907     
  0.10350000000000001         -1.3084847575304006     
  0.10380000000000000         -1.3136137372155172     
  0.10410000000000001         -1.2901860123963742     
  0.10440000000000001         -1.2410634405742529     
  0.10470000000000000         -1.1693317550409743     
  0.10500000000000000         -1.0782465618405537     
  0.10530000000000000        -0.97350564727703748     
  0.10560000000000000        -0.86038700145168012     
  0.10590000000000001        -0.74253717675078879     
  0.10620000000000000        -0.62181494488852951     
  0.10650000000000001        -0.49881700889296515     
  0.10679999999999999        -0.37431176141987504     
  0.10710000000000000        -0.24931234632021501     
  0.10740000000000001        -0.12316415514432059     
  0.10770000000000000          6.2677117666695772E-003
  0.10800000000000000         0.14077620185588716     
  0.10830000000000001         0.28089418491141155     
  0.10859999999999999         0.42511167129974253     
  0.10890000000000000         0.57192455346477888     
  0.10920000000000001         0.72033993645869343     
  0.10950000000000001         0.86831519794558354     
  0.10979999999999999          1.0123281209012132     
  0.11009999999999999          1.1472482365989509     
  0.11040000000000001          1.2677541623537629     
  0.11070000000000001          1.3701325282885242     
  0.11100000000000000          1.4503920874031346     
  0.11130000000000000          1.5044188079630727     
  0.11160000000000002          1.5278329416892829     
  0.11190000000000001          1.5170167256306102     
  0.11220000000000001          1.4711017197415370     
  0.11250000000000000          1.3906575051628027     
  0.11280000000000000          1.2766118876880925     
  0.11309999999999999          1.1311703590306530     
  0.11340000000000001         0.95775553737104602     
  0.11369999999999998         0.76231542951499087     
  0.11400000000000000         0.55188165401481681     
  0.11430000000000000         0.33391233133310599     
  0.11460000000000002         0.11478025610589636     
  0.11489999999999999         -9.7909793592521360E-002
  0.11520000000000001        -0.29718887287544205     
  0.11550000000000001        -0.47616170831375088     
  0.11580000000000000        -0.62943320059934460     
  0.11609999999999999        -0.75338367878382406     
  0.11640000000000002        -0.84502033408509769     
  0.11670000000000001        -0.90257678287081333     
  0.11700000000000001        -0.92555145209706324     
  0.11730000000000000        -0.91553667962649354     
  0.11760000000000000        -0.87521461477700169     
  0.11789999999999999        -0.80822501556654369     
  0.11820000000000001        -0.71906171447223077     
  0.11850000000000001        -0.61415241638729889     
  0.11880000000000000        -0.50099157009561168     
  0.11910000000000000        -0.38655709130125265     
  0.11940000000000002        -0.27699433858403688     
  0.11970000000000001        -0.17822300734167443     
  0.12000000000000001         -9.5520633715542189E-002
  0.12030000000000000         -3.3417326266661697E-002
  0.12060000000000000          5.8717100787883765E-003
  0.12089999999999999          2.3374601966233956E-002
  0.12119999999999999          2.2146060717534173E-002
  0.12150000000000001          5.4317518942278856E-003
  0.12180000000000001         -2.2864849108177678E-002
  0.12210000000000000         -5.8150887096001073E-002
  0.12239999999999999         -9.4626197776381496E-002
  0.12270000000000002        -0.12599937038528136     
  0.12300000000000001        -0.14907951143458545     
  0.12330000000000001        -0.16259488043506717     
  0.12360000000000000        -0.16641529995979101     
  0.12390000000000000        -0.16124158690313989     
  0.12419999999999999        -0.14795797682432379     
  0.12450000000000001        -0.12955283838506451     
  0.12480000000000001        -0.10997954577023289     
  0.12509999999999999         -9.3139490485138074E-002
  0.12540000000000001         -8.2241056336361251E-002
  0.12570000000000003         -7.9118464993986767E-002
  0.12600000000000000         -8.4972445003704308E-002
  0.12630000000000002        -0.10079323791094534     
  0.12659999999999999        -0.12674779618066120     
  0.12690000000000001        -0.16136407112224097     
  0.12719999999999998        -0.20313849125728162     
  0.12750000000000000        -0.24925336630798470     
  0.12780000000000002        -0.29727523267718936     
  0.12809999999999999        -0.34393362834316332     
  0.12840000000000001        -0.38591657654068395     
  0.12869999999999998        -0.42048458807415839     
  0.12900000000000000        -0.44454239355282710     
  0.12930000000000003        -0.45535679243357691     
  0.12959999999999999        -0.44976566922137090     
  0.12990000000000002        -0.42594214191844032     
  0.13019999999999998        -0.38258983869142987     
  0.13050000000000000        -0.32025053557094452     
  0.13080000000000003        -0.23944903626442354     
  0.13109999999999999        -0.14136774860294377     
  0.13140000000000002         -2.7922110981679613E-002
  0.13169999999999998          9.6962957626167301E-002
  0.13200000000000001         0.22894153269900250     
  0.13229999999999997         0.36249737416988598     
  0.13260000000000000         0.49404255759355720     
  0.13290000000000002         0.62002102447747531     
  0.13319999999999999         0.73606095313353059     
  0.13350000000000001         0.83734950782215078     
  0.13380000000000003         0.92093262331526937     
  0.13410000000000000         0.98453596461904935     
  0.13440000000000002          1.0284266193965144     
  0.13469999999999999          1.0518194154352212     
  0.13500000000000001          1.0541988329288434     
  0.13529999999999998          1.0363703696648878     
  0.13560000000000000          1.0001897562071274     
  0.13590000000000002         0.94926545701249709     
  0.13619999999999999         0.88628486619840974     
  0.13650000000000001         0.81434122706622936     
  0.13680000000000003         0.73522476554255556     
  0.13710000000000000         0.65263198280360557     
  0.13740000000000002         0.56973628904674900     
  0.13769999999999999         0.48892824733972956     
  0.13800000000000001         0.41106825117106000     
  0.13829999999999998         0.33627208290301619     
  0.13860000000000000         0.26472111965936179     
  0.13890000000000002         0.19592646870285582     
  0.13919999999999999         0.12952255977997013     
  0.13950000000000001          6.3685446083987990E-002
  0.13979999999999998         -2.1818786006776243E-003
  0.14010000000000000         -6.9215429389227229E-002
  0.14040000000000002        -0.13720239285437691     
  0.14069999999999999        -0.20543202184212933     
  0.14100000000000001        -0.27357899420277831     
  0.14130000000000004        -0.34105136107363415     
  0.14160000000000000        -0.40673913501440262     
  0.14189999999999997        -0.46983050097993517     
  0.14219999999999999        -0.52986376152723103     
  0.14250000000000002        -0.58688597423918798     
  0.14279999999999998        -0.64203838907455024     
  0.14310000000000000        -0.69532374786815276     
  0.14339999999999997        -0.74787430078289696     
  0.14369999999999999        -0.79996554063951975     
  0.14400000000000002        -0.85200647420631959     
  0.14429999999999998        -0.90476343795060044     
  0.14460000000000001        -0.95761898740797569     
  0.14490000000000003         -1.0088376742115581     
  0.14520000000000000         -1.0566616982543313     
  0.14550000000000002         -1.0994393551242816     
  0.14579999999999999         -1.1359083369277430     
  0.14610000000000001         -1.1648837031774413     
  0.14640000000000003         -1.1839612413437639     
  0.14670000000000000         -1.1912666246037862     
  0.14699999999999996         -1.1853673150805051     
  0.14729999999999999         -1.1658825575761713     
  0.14760000000000001         -1.1325002614140181     
  0.14789999999999998         -1.0840558713710218     
  0.14820000000000000         -1.0182405428200778     