  -1.4999999999999999E-002     0.0000000000000000     
  -1.4700000000000000E-002     0.0000000000000000     
  -1.4400000000000000E-002     0.0000000000000000     
  -1.4100000000000000E-002     0.0000000000000000     
  -1.3800000000000000E-002     0.0000000000000000     
  -1.3500000000000000E-002     0.0000000000000000     
  -1.3200000000000000E-002     0.0000000000000000     
  -1.2899999999999998E-002     0.0000000000000000     
  -1.2600000000000000E-002    -1.7312155627325837E-036
  -1.2299999999999998E-002    -1.3303764406324519E-034
  -1.2000000000000000E-002     2.6360571000801886E-033
  -1.1699999999999999E-002    -2.2777297133580164E-032
  -1.1399999999999999E-002    -1.3196434343783574E-033
  -1.1099999999999999E-002     8.1673465212917899E-031
  -1.0799999999999999E-002    -1.5821108643441269E-030
  -1.0499999999999999E-002    -1.3244246991076482E-029
  -1.0199999999999999E-002     3.1795831046832235E-029
  -9.8999999999999991E-003     1.3585720277405131E-028
  -9.5999999999999992E-003    -2.1596685741104637E-028
  -9.2999999999999992E-003    -1.4102147011319758E-027
  -8.9999999999999993E-003     2.1289908050022149E-028
  -8.6999999999999994E-003     1.3564287441391753E-026
  -8.3999999999999995E-003     8.4089245996418153E-027
  -8.0999999999999996E-003    -1.0049699026414765E-025
  -7.7999999999999988E-003    -6.4647576080845710E-026
  -7.4999999999999997E-003     3.3518872965406565E-025
  -7.1999999999999998E-003     8.2670974551554619E-025
  -6.8999999999999981E-003    -3.0320364816542218E-026
  -6.5999999999999982E-003    -8.7067731154792025E-024
  -6.3000000000000000E-003     3.3927156649171512E-024
  -6.0000000000000001E-003     2.5204231296055438E-023
  -5.6999999999999985E-003    -5.8329903502167286E-025
  -5.3999999999999986E-003     4.1773672487835418E-023
  -5.1000000000000004E-003    -3.7344340877774765E-022
  -4.7999999999999987E-003     6.5257879871715458E-023
  -4.5000000000000005E-003     1.5997009207853103E-021
  -4.1999999999999989E-003    -2.6951939879111491E-021
  -3.8999999999999990E-003     5.9151909849063318E-021
  -3.5999999999999990E-003    -1.3286956544548568E-020
  -3.2999999999999991E-003    -2.9571733697551083E-021
  -2.9999999999999992E-003     6.1378965703190881E-020
  -2.6999999999999993E-003    -1.3124532551985508E-019
  -2.3999999999999994E-003     2.6548203718544464E-019
  -2.0999999999999977E-003    -4.3129303457768556E-019
  -1.7999999999999995E-003     9.0850462321253424E-020
  -1.4999999999999979E-003     1.1730580315695989E-018
  -1.1999999999999997E-003    -3.8004185982337883E-018
  -8.9999999999999976E-004     9.7935294363372746E-018
  -5.9999999999999810E-004    -1.6974673989391318E-017
  -2.9999999999999992E-004     9.5528163748402850E-018
   0.0000000000000000          3.9578422433765058E-017
   3.0000000000000165E-004    -1.6049804255340833E-016
   5.9999999999999984E-004     3.2299614239853067E-016
   9.0000000000000149E-004    -2.6665228558097115E-016
   1.2000000000000031E-003    -4.9302623009259594E-016
   1.5000000000000013E-003     2.1080309956245529E-015
   1.8000000000000030E-003    -3.4463915923683435E-015
   2.1000000000000012E-003     1.4763667894716690E-015
   2.3999999999999994E-003     6.8942117003002240E-015
   2.7000000000000010E-003    -1.8618477402269051E-014
   2.9999999999999992E-003     1.9722741366819414E-014
   3.3000000000000008E-003     6.6503229258290398E-015
   3.6000000000000025E-003    -5.8645316656058361E-014
   3.9000000000000007E-003     9.6466302796389909E-014
   4.2000000000000023E-003    -5.4654331542181035E-014
   4.5000000000000005E-003    -9.4902629860133647E-014
   4.7999999999999987E-003     2.7915765170468944E-013
   5.1000000000000004E-003    -3.4132715906573931E-013
   5.4000000000000020E-003     1.2618992855537969E-013
   5.7000000000000037E-003     4.1029145785524439E-013
   5.9999999999999984E-003    -1.0645912135812389E-012
   6.3000000000000000E-003     1.3237206036499759E-012
   6.6000000000000017E-003    -5.1439322099923670E-013
   6.9000000000000034E-003    -1.7122900429875556E-012
   7.2000000000000015E-003     4.4591266119022274E-012
   7.5000000000000032E-003    -5.1107438436218182E-012
   7.8000000000000014E-003     8.7387701587743428E-013
   8.0999999999999996E-003     8.1072737718846672E-012
   8.4000000000000012E-003    -1.6455421005899879E-011
   8.7000000000000029E-003     1.4805279250908912E-011
   9.0000000000000011E-003     3.0474309778546413E-012
   9.2999999999999992E-003    -3.0817223295214883E-011
   9.6000000000000009E-003     4.8369497775606332E-011
   9.8999999999999991E-003    -3.2522616741157770E-011
   1.0200000000000001E-002    -2.3483584824645608E-011
   1.0500000000000002E-002     9.2274443396864282E-011
   1.0800000000000004E-002    -1.1893186389631057E-010
   1.1099999999999999E-002     5.8195314863072547E-011
   1.1400000000000000E-002     8.4213407427790614E-011
   1.1700000000000002E-002    -2.3124306466950728E-010
   1.2000000000000004E-002     2.6210262239689468E-010
   1.2300000000000002E-002    -9.9192254601903160E-011
   1.2600000000000000E-002    -2.1518280107799717E-010
   1.2900000000000002E-002     5.1731521864188217E-010
   1.3200000000000000E-002    -5.8212008849078678E-010
   1.3500000000000002E-002     2.4811531625122631E-010
   1.3800000000000003E-002     4.4072177794661768E-010
   1.4100000000000001E-002    -1.2146485268800699E-009
   1.4400000000000000E-002     1.6296950681834458E-009
   1.4700000000000001E-002    -9.8922510958771089E-010
   1.4999999999999999E-002    -1.4061777593623192E-009
   1.5300000000000001E-002     4.4546089361386709E-009
   1.5600000000000003E-002    -4.1634449526809777E-009
   1.5899999999999997E-002    -1.5326163779045904E-010
   1.6199999999999999E-002     1.6197737343775367E-009
   1.6500000000000001E-002    -5.7333628175848984E-009
   1.6800000000000002E-002     3.2348836018349078E-008
   1.7100000000000004E-002    -3.5664755240820414E-008
   1.7400000000000006E-002    -8.7108090506644840E-008
   1.7700000000000000E-002     1.9487240002553849E-007
   1.8000000000000002E-002     6.0676963985527433E-008
   1.8300000000000004E-002    -5.9717782424699608E-007
   1.8600000000000005E-002     5.4181825573718123E-007
   1.8900000000000000E-002     5.1066404875903129E-006
   1.9200000000000002E-002     1.2319088028550358E-005
   1.9500000000000003E-002     2.0363444056367765E-005
   1.9799999999999998E-002     2.8131785656725809E-005
   2.0100000000000000E-002     3.8228299013085939E-005
   2.0400000000000001E-002     5.3606304250305073E-005
   2.0700000000000003E-002     7.3351910168910559E-005
   2.0999999999999998E-002     1.0062572036672518E-004
   2.1299999999999999E-002     1.4747694948204120E-004
   2.1600000000000001E-002     2.2478075215289628E-004
   2.1900000000000003E-002     3.2787338636268003E-004
   2.2200000000000004E-002     4.4476362413209516E-004
   2.2500000000000006E-002     5.8243841987415900E-004
   2.2800000000000001E-002     7.5196101265584750E-004
   2.3100000000000002E-002     9.5080990659862630E-004
   2.3400000000000004E-002     1.1761977681296195E-003
   2.3699999999999999E-002     1.3880396616660563E-003
   2.4000000000000000E-002     1.5135089613928609E-003
   2.4300000000000002E-002     1.4836513575027827E-003
   2.4599999999999997E-002     1.1606443802165928E-003
   2.4900000000000005E-002     3.4901148927870147E-004
   2.5200000000000000E-002    -1.1665173718261360E-003
   2.5499999999999995E-002    -3.7065893750188273E-003
   2.5800000000000003E-002    -7.6798802943238448E-003
   2.6099999999999998E-002    -1.3556181940937684E-002
   2.6400000000000007E-002    -2.1957171461245820E-002
   2.6700000000000002E-002    -3.3600251287651400E-002
   2.6999999999999996E-002    -4.9182160597093336E-002
   2.7300000000000005E-002    -6.9437182052095689E-002
   2.7600000000000000E-002    -9.5082832652358257E-002
   2.7900000000000008E-002   -0.12672123107775693     
   2.8200000000000003E-002   -0.16477444529402949     
   2.8499999999999998E-002   -0.20936853916040063     
   2.8800000000000006E-002   -0.26027062245879218     
   2.9100000000000001E-002   -0.31680857835532278     
   2.9400000000000003E-002   -0.37784459893245942     
   2.9700000000000004E-002   -0.44170036644862620     
   3.0000000000000006E-002   -0.50614046833927062     
   3.0300000000000001E-002   -0.56848209957751650     
   3.0600000000000002E-002   -0.62568777766636408     
   3.0900000000000004E-002   -0.67449760535104375     
   3.1199999999999999E-002   -0.71159488213387478     
   3.1500000000000007E-002   -0.73387504039423124     
   3.1800000000000002E-002   -0.73852927075313046     
   3.2099999999999997E-002   -0.72344065448666750     
   3.2400000000000005E-002   -0.68709869054586958     
   3.2700000000000000E-002   -0.62889207348250464     
   3.3000000000000002E-002   -0.54895866869728993     
   3.3300000000000003E-002   -0.44832343750709786     
   3.3599999999999998E-002   -0.32880438106253496     
   3.3900000000000000E-002   -0.19283621497101103     
   3.4200000000000001E-002    -4.3408708238477631E-002
   3.4500000000000003E-002    0.11600722645158019     
   3.4799999999999998E-002    0.28167540584114420     
   3.5099999999999999E-002    0.44949038090374765     
   3.5400000000000001E-002    0.61507238710167822     
   3.5699999999999996E-002    0.77373292269254335     
   3.6000000000000004E-002    0.92071637103881887     
   3.6299999999999999E-002     1.0508264584929803     
   3.6600000000000008E-002     1.1593934587745602     
   3.6900000000000002E-002     1.2417267841989330     
   3.7199999999999997E-002     1.2941282048490075     
   3.7500000000000006E-002     1.3141873089701108     
   3.7800000000000000E-002     1.3014691019936593     
   3.8100000000000009E-002     1.2575633593967119     
   3.8400000000000004E-002     1.1871881467980061     
   3.8699999999999998E-002     1.0973878993413408     
   3.9000000000000007E-002    0.99814943541918777     
   3.9300000000000002E-002    0.90128067403681766     
   3.9600000000000003E-002    0.81950422722768113     
   3.9900000000000005E-002    0.76571597743289077     
   4.0200000000000000E-002    0.75053157176570851     
   4.0500000000000001E-002    0.78149999826125549     
   4.0800000000000003E-002    0.86173792412520467     
   4.1100000000000005E-002    0.98831083371860906     
   4.1399999999999999E-002     1.1521142365113648     
   4.1700000000000008E-002     1.3382342750740506     
   4.2000000000000003E-002     1.5260743851949772     
   4.2299999999999997E-002     1.6914312659432025     
   4.2600000000000006E-002     1.8082082152552217     
   4.2900000000000001E-002     1.8509527381869559     
   4.3200000000000002E-002     1.7977763399333730     
   4.3500000000000004E-002     1.6323566458952945     
   4.3799999999999999E-002     1.3460922290228561     
   4.4100000000000000E-002    0.94025499273646640     
   4.4400000000000002E-002    0.42537239900151014     
   4.4700000000000004E-002   -0.17813118589236074     
   4.4999999999999998E-002   -0.84076117822868091     
   4.5300000000000000E-002    -1.5274130046418328     
   4.5600000000000002E-002    -2.1980848255127179     
   4.5899999999999996E-002    -2.8125944076517211     
   4.6200000000000005E-002    -3.3331909103243418     
   4.6500000000000000E-002    -3.7269625559872752     
   4.6799999999999994E-002    -3.9698076102158035     
   4.7100000000000003E-002    -4.0474695955362927     
   4.7399999999999998E-002    -3.9567806446562401     
   4.7700000000000006E-002    -3.7070901037521047     
   4.8000000000000001E-002    -3.3180439027456603     
   4.8300000000000010E-002    -2.8189444009229012     
   4.8600000000000004E-002    -2.2467078547397445     
   4.8899999999999999E-002    -1.6418767485128543     
   4.9200000000000008E-002    -1.0465515124961791     
   4.9500000000000002E-002   -0.50054900372758460     
   4.9800000000000011E-002    -3.8044834948787319E-002
   5.0100000000000006E-002    0.31481856759745191     
   5.0400000000000000E-002    0.54181521766618856     
   5.0700000000000009E-002    0.63897333727458971     
   5.1000000000000004E-002    0.61274137470416790     
   5.1299999999999998E-002    0.48143083100314082     
   5.1600000000000007E-002    0.27196807555804703     
   5.1900000000000002E-002     1.7440378052974815E-002
   5.2200000000000010E-002   -0.24529022984512666     
   5.2500000000000005E-002   -0.48026892852584130     
   5.2800000000000000E-002   -0.65464013157077039     
   5.3099999999999994E-002   -0.74324602850560850     
   5.3400000000000003E-002   -0.72943284207091907     
   5.3699999999999998E-002   -0.60768189657143346     
   5.4000000000000006E-002   -0.38329898838047921     
   5.4300000000000001E-002    -7.1736762846465268E-002
   5.4599999999999996E-002    0.30414840279700828     
   5.4900000000000004E-002    0.71580727655645893     
   5.5199999999999999E-002     1.1334999040387028     
   5.5499999999999994E-002     1.5294522780071473     
   5.5800000000000002E-002     1.8808271753666475     
   5.6099999999999997E-002     2.1723253934466547     
   5.6400000000000006E-002     2.3976047579245150     
   5.6700000000000000E-002     2.5591126335334731     
   5.6999999999999995E-002     2.6677409329970465     
   5.7300000000000004E-002     2.7399941808034076     
   5.7599999999999998E-002     2.7952620049215620     
   5.7900000000000007E-002     2.8521124435216856     
   5.8200000000000002E-002     2.9257470646692676     
   5.8499999999999996E-002     3.0236965577460495     
   5.8800000000000005E-002     3.1457284652577524     
   5.9100000000000000E-002     3.2812627255238462     
   5.9400000000000008E-002     3.4113815410010404     
   5.9700000000000003E-002     3.5085585352743998     
   6.0000000000000012E-002     3.5427455783162731     
   6.0300000000000006E-002     3.4807414550516196     
   6.0600000000000001E-002     3.2940196229966041     
   6.0900000000000010E-002     2.9609555190591990     
   6.1200000000000004E-002     2.4691180004042081     
   6.1500000000000013E-002     1.8209581301186877     
   6.1800000000000008E-002     1.0312168530415955     
   6.2100000000000002E-002    0.13000640568399646     
   6.2399999999999997E-002   -0.84125427272428732     
   6.2700000000000006E-002    -1.8312958013653784     
   6.3000000000000000E-002    -2.7843783321346471     
   6.3300000000000009E-002    -3.6441092574444043     
   6.3600000000000004E-002    -4.3596939782118458     
   6.3899999999999998E-002    -4.8904175178913984     
   6.4199999999999993E-002    -5.2085894685917005     
   6.4500000000000002E-002    -5.3059891594681732     
   6.4800000000000010E-002    -5.1909526597741209     
   6.5100000000000005E-002    -4.8920663579201529     
   6.5400000000000000E-002    -4.4544385723936823     
   6.5700000000000008E-002    -3.9351521942593060     
   6.5999999999999989E-002    -3.4012648314625329     
   6.6299999999999998E-002    -2.9208852789559958     
   6.6600000000000006E-002    -2.5571274619983795     
   6.6900000000000001E-002    -2.3638019735677056     
   6.7199999999999996E-002    -2.3765266388623760     
   6.7500000000000004E-002    -2.6091776545608760     
   6.7800000000000013E-002    -3.0513284962954219     
   6.8099999999999994E-002    -3.6658385546317791     
   6.8400000000000002E-002    -4.3896780624956042     
   6.8700000000000011E-002    -5.1396484725678659     
   6.8999999999999992E-002    -5.8142843235542561     
   6.9300000000000000E-002    -6.3056768921957325     
   6.9600000000000009E-002    -6.5057405509199517     
   6.9900000000000004E-002    -6.3177279067956063     
   7.0199999999999999E-002    -5.6689212986217701     
   7.0500000000000007E-002    -4.5161064116962057     
   7.0800000000000016E-002    -2.8583963335250968     
   7.1099999999999997E-002   -0.74057662727003759     
   7.1400000000000005E-002     1.7450658205186342     
   7.1700000000000000E-002     4.4616261152475918     
   7.1999999999999995E-002     7.2310666765942866     
   7.2300000000000003E-002     9.8500136014176221     
   7.2600000000000012E-002     12.102511164072848     
   7.2900000000000006E-002     13.775976786717562     
   7.3200000000000001E-002     14.685350932657537     
   7.3499999999999996E-002     14.686652633474894     
   7.3800000000000004E-002     13.696494523503633     
   7.4099999999999999E-002     11.704431968923675     
   7.4400000000000008E-002     8.7781319811981344     
   7.4700000000000003E-002     5.0663734750126670     
   7.5000000000000011E-002    0.78994540190629492     
   7.5299999999999992E-002    -3.7708938298794901     
   7.5600000000000001E-002    -8.2952173280732548     
   7.5900000000000009E-002    -12.446446976814119     
   7.6200000000000004E-002    -15.898353935676980     
   7.6499999999999999E-002    -18.360125728935373     
   7.6800000000000007E-002    -19.604289112438622     
   7.7099999999999988E-002    -19.482798558766174     
   7.7399999999999997E-002    -17.941798180492185     
   7.7700000000000005E-002    -15.031641984263452     
   7.8000000000000014E-002    -10.896169806011201     
   7.8299999999999995E-002    -5.7737019889665078     
   7.8600000000000003E-002     2.8849144875838284E-002
   7.8900000000000012E-002     6.1562530096302446     
   7.9199999999999993E-002     12.227197521110899     
   7.9500000000000001E-002     17.869042951174819     
   7.9800000000000010E-002     22.741263689640665     
   8.0100000000000018E-002     26.554640850828562     
   8.0399999999999999E-002     29.100289253264553     
   8.0700000000000008E-002     30.250136168175917     
   8.1000000000000003E-002     29.967356420800225     
   8.1299999999999997E-002     28.307667478955342     
   8.1600000000000006E-002     25.399361424419958     
   8.1900000000000014E-002     21.441437654663645     
   8.2199999999999995E-002     16.679238414589506     
   8.2500000000000004E-002     11.383003523500721     
   8.2799999999999999E-002     5.8334551101329684     
   8.3100000000000007E-002    0.29838768166932556     
   8.3400000000000002E-002    -4.9833326520438126     
   8.3700000000000011E-002    -9.8085039218688319     
   8.4000000000000005E-002    -14.025062200112309     
   8.4300000000000000E-002    -17.531573737498846     
   8.4599999999999995E-002    -20.271375025895569     
   8.4900000000000003E-002    -22.240954636388103     
   8.5199999999999998E-002    -23.466777031207720     
   8.5500000000000007E-002    -24.008923690326778     
   8.5800000000000001E-002    -23.945267839146101     
   8.6100000000000010E-002    -23.358815379737813     
   8.6399999999999991E-002    -22.336409797689207     
   8.6699999999999999E-002    -20.956532762466868     
   8.7000000000000008E-002    -19.283769003215106     
   8.7300000000000003E-002    -17.374345245802669     
   8.7599999999999997E-002    -15.265675085679238     
   8.7900000000000006E-002    -12.988892172746780     
   8.8200000000000014E-002    -10.568248443138005     
   8.8499999999999995E-002    -8.0226619346064769     
   8.8800000000000004E-002    -5.3796366132073832     
   8.9100000000000013E-002    -2.6694950307904048     
   8.9399999999999993E-002     6.6741078837242118E-002
   8.9700000000000002E-002     2.7777606704019138     
   9.0000000000000011E-002     5.4016684048551458     
   9.0299999999999991E-002     7.8738611033306283     
   9.0600000000000000E-002     10.124631612507539     
   9.0900000000000009E-002     12.085114158612235     
   9.1200000000000017E-002     13.702597254711206     
   9.1499999999999998E-002     14.926183305817737     
   9.1800000000000007E-002     15.729784549899078     
   9.2100000000000001E-002     16.102452806499372     
   9.2399999999999996E-002     16.050433689222128     
   9.2700000000000005E-002     15.603188102523628     
   9.3000000000000013E-002     14.799591626824736     
   9.3300000000000008E-002     13.697091692784229     
   9.3600000000000003E-002     12.357952741661682     
   9.3899999999999997E-002     10.848185246908516     
   9.4200000000000006E-002     9.2343423228261088     
   9.4500000000000001E-002     7.5796754630532304     
   9.4800000000000009E-002     5.9358542645962196     
   9.5100000000000004E-002     4.3475927004720623     
   9.5399999999999999E-002     2.8504349262355690     
   9.5699999999999993E-002     1.4607681673780337     
   9.6000000000000002E-002    0.19370726575729325     
   9.6300000000000011E-002   -0.95048182201276532     
   9.6600000000000005E-002    -1.9797210291907457     
   9.6900000000000000E-002    -2.8995498942006841     
   9.7200000000000009E-002    -3.7267686393537249     
   9.7499999999999989E-002    -4.4693831236082575     
   9.7799999999999998E-002    -5.1357019959672039     
   9.8100000000000007E-002    -5.7321284632440719     
   9.8400000000000015E-002    -6.2537172492577904     
   9.8699999999999996E-002    -6.6976616896788785     
   9.9000000000000005E-002    -7.0528934410790551     
   9.9300000000000013E-002    -7.3070195064650916     
   9.9599999999999994E-002    -7.4461791836448219     
   9.9900000000000003E-002    -7.4620240072224835     
  0.10020000000000001         -7.3420989922574336     
  0.10049999999999999         -7.0874164621620146     
  0.10080000000000000         -6.7000144193582791     
  0.10110000000000001         -6.1864021677851433     
  0.10140000000000000         -5.5660680396126914     
  0.10170000000000000         -4.8545149656976125     
  0.10200000000000001         -4.0758909313151319     
  0.10230000000000002         -3.2582008199940442     
  0.10260000000000000         -2.4214963501811400     
  0.10290000000000001         -1.5949722318858941     
  0.10320000000000000        -0.79772847634119448     
  0.10350000000000001         -4.6920249894778880E-002
  0.10380000000000000         0.64124772243576400     
  0.10410000000000001          1.2585109092843756     
  0.10440000000000001          1.8007183798609299     
  0.10470000000000000          2.2634913392566771     
  0.10500000000000000          2.6523234265853182     
  0.10530000000000000          2.9698914871403912     
  0.10560000000000000          3.2230481473272743     
  0.10590000000000001          3.4212757894488464     
  0.10620000000000000          3.5693911851544335     
  0.10650000000000001          3.6757830910285190     
  0.10679999999999999          3.7463354386294645     
  0.10710000000000000          3.7801813393449382     
  0.10740000000000001          3.7827898750751694     
  0.10770000000000000          3.7475506536913286     
  0.10800000000000000          3.6710416533995258     
  0.10830000000000001          3.5486671172177702     
  0.10859999999999999          3.3705300528310449     
  0.10890000000000000          3.1310192791572820     
  0.10920000000000001          2.8261839616280415     
  0.10950000000000001          2.4497114931850974     
  0.10979999999999999          2.0044705257330504     
  0.11009999999999999          1.4959911781620310     
  0.11040000000000001         0.93063350588446470     
  0.11070000000000001         0.32801971339458480     
  0.11100000000000000        -0.29564151965108154     
  0.11130000000000000        -0.91517316299207263     
  0.11160000000000002         -1.5046313724167009     
  0.11190000000000001         -2.0379061247983858     
  0.11220000000000001         -2.4876970643462513     
  0.11250000000000000         -2.8319358107392461     
  0.11280000000000000         -3.0532011190884685     
  0.11309999999999999         -3.1397694723879339     
  0.11340000000000001         -3.0896321941638765     
  0.11369999999999998         -2.9110724223833655     
  0.11400000000000000         -2.6174411204727175     
  0.11430000000000000         -2.2346283987622844     
  0.11460000000000002         -1.7929942393588347     
  0.11489999999999999         -1.3245084267434903     
  0.11520000000000001        -0.86712844793255628     
  0.11550000000000001        -0.45246380734057773     
  0.11580000000000000        -0.10932320884068167     
  0.11609999999999999         0.13993133260004417     
  0.11640000000000002         0.28447918244224185     
  0.11670000000000001         0.32189791092615716     
  0.11700000000000001         0.25879019250636531     
  0.11730000000000000         0.11546915400503543     
  0.11760000000000000         -8.7082365835747785E-002
  0.11789999999999999        -0.31803660100172015     
  0.11820000000000001        -0.54604044445149891     
  0.11850000000000001        -0.74270559809903269     
  0.11880000000000000        -0.87926555076455826     
  0.11910000000000000        -0.93505120036221845     
  0.11940000000000002        -0.89771759061739331     
  0.11970000000000001        -0.76079177685304855     
  0.12000000000000001        -0.52894932544441942     
  0.12030000000000000        -0.21457965730447209     
  0.12060000000000000         0.16360215941602477     
  0.12089999999999999         0.57924170886358683     
  0.12119999999999999          1.0037137271655550     
  0.12150000000000001          1.4058071222447874     
  0.12180000000000001          1.7558394377904394     
  0.12210000000000000          2.0259880611797536     
  0.12239999999999999          2.1971775985969639     
  0.12270000000000002          2.2516290591312509     
  0.12300000000000001          2.1869775679516228     
  0.12330000000000001          2.0045818730997835     
  0.12360000000000000          1.7154924373230704     
  0.12390000000000000          1.3427162942732727     
  0.12419999999999999         0.90953299225320206     
  0.12450000000000001         0.44771573917951080     
  0.12480000000000001         -8.8852299935732910E-003
  0.12509999999999999        -0.43204942016212361     
  0.12540000000000001        -0.78992681385856556     
  0.12570000000000003         -1.0633618616225220     
  0.12600000000000000         -1.2353272165782272     
  0.12630000000000002         -1.3010123662373942     
  0.12659999999999999         -1.2605228113738145     
  0.12690000000000001         -1.1271576588209380     
  0.12719999999999998        -0.91497609499814658     
  0.12750000000000000        -0.64906285271686814     
  0.12780000000000002        -0.35489549008266508     
  0.12809999999999999         -5.8613750281070978E-002
  0.12840000000000001         0.21257990329897444     
  0.12869999999999998         0.43815808536804901     
  0.12900000000000000         0.60051278746882286     
  0.12930000000000003         0.68952564488062562     
  0.12959999999999999         0.70357892750978956     
  0.12990000000000002         0.64431808198431584     
  0.13019999999999998         0.52501861192919208     
  0.13050000000000000         0.36157406561468380     
  0.13080000000000003         0.17158538195464773     
  0.13109999999999999         -1.9979691716046872E-002
  0.13140000000000002        -0.19488578088663930     
  0.13169999999999998        -0.33334204710303594     
  0.13200000000000001        -0.42186620688420418     
  0.13229999999999997        -0.45160460136321584     
  0.13260000000000000        -0.42010759914406215     
  0.13290000000000002        -0.33268013259783474     
  0.13319999999999999        -0.19746117128746349     
  0.13350000000000001         -2.9467128773927188E-002
  0.13380000000000003         0.15464894126827125     
  0.13410000000000000         0.33699026085164541     
  0.13440000000000002         0.50074105582525064     
  0.13469999999999999         0.63014351248488543     
  0.13500000000000001         0.71388553407367683     
  0.13529999999999998         0.74572943457883323     
  0.13560000000000000         0.72273920901406852     
  0.13590000000000002         0.64777373413269201     
  0.13619999999999999         0.52802508529875114     
  0.13650000000000001         0.37429383248809772     
  0.13680000000000003         0.19842906595720566     
  0.13710000000000000          1.5796033992121938E-002
  0.13740000000000002        -0.16051222619261121     
  0.13769999999999999        -0.31844056927497716     
  0.13800000000000001        -0.44701478774856723     
  0.13829999999999998        -0.54060885904063172     
  0.13860000000000000        -0.59611967622330031     
  0.13890000000000002        -0.61555353169746219     
  0.13919999999999999        -0.60277978031759971     
  0.13950000000000001        -0.56787995138784275     
  0.13979999999999998        -0.52051780555687799     
  0.14010000000000000        -0.47221176104646173     
  0.14040000000000002        -0.43430887315645705     
  0.14069999999999999        -0.41516198756094935     
  0.14100000000000001        -0.42240192851279240     
  0.14130000000000004        -0.45669132156541692     
  0.14160000000000000        -0.51939940318433941     
  0.14189999999999997        -0.60258561402780786     
  0.14219999999999999        -0.70004308305197138     
  0.14250000000000002        -0.79927897542549742     
  0.14279999999999998        -0.88804984162494327     
  0.14310000000000000        -0.95512580881230780     
  0.14339999999999997        -0.98722803580556484     
  0.14369999999999999        -0.97745567518595755     
  0.14400000000000002        -0.91867190591577230     
  0.14429999999999998        -0.80986046833583925     
  0.14460000000000001        -0.65084850948059370     
  0.14490000000000003        -0.44888514589972794     
  0.14520000000000000        -0.21092233573405494     
  0.14550000000000002          5.2262093590099888E-002
  0.14579999999999999         0.32711436298091517     
  0.14610000000000001         0.60025428349823295     
  0.14640000000000003         0.85783646811482495     
  0.14670000000000000          1.0865860980558562     
  0.14699999999999996          1.2748969569923121     
  0.14729999999999999          1.4138184544671648     
  0.14760000000000001          1.4983595354767765     
  0.14789999999999998          1.5234776479157626     
  0.14820000000000000          1.4917691698436992     