  -1.4999999999999999E-002     0.0000000000000000     
  -1.4700000000000000E-002     0.0000000000000000     
  -1.4400000000000000E-002     1.3880094862088808E-029
  -1.4100000000000000E-002     4.4532783686392975E-026
  -1.3800000000000000E-002    -2.4352162449812304E-024
  -1.3500000000000000E-002    -1.6182319074992998E-022
  -1.3200000000000000E-002     2.0414203271325133E-021
  -1.2899999999999998E-002     4.9288415459451552E-021
  -1.2600000000000000E-002    -7.8264794727498372E-020
  -1.2299999999999998E-002    -2.3852843927709377E-020
  -1.2000000000000000E-002     9.3097121820324721E-019
  -1.1699999999999999E-002     6.3823444887977504E-019
  -1.1399999999999999E-002    -6.0939706232554587E-018
  -1.1099999999999999E-002    -1.2172525535916336E-017
  -1.0799999999999999E-002     2.3712907308362675E-017
  -1.0499999999999999E-002     1.0924401441144523E-016
  -1.0199999999999999E-002    -2.1240477618071784E-017
  -9.8999999999999991E-003    -5.8851710480566143E-016
  -9.5999999999999992E-003    -2.2364826555365588E-016
  -9.2999999999999992E-003     1.0837712308574869E-015
  -8.9999999999999993E-003     3.7011125492897659E-015
  -8.6999999999999994E-003     3.3475844069085068E-016
  -8.3999999999999995E-003    -1.7820525698410944E-014
  -8.0999999999999996E-003    -5.2160625712395144E-015
  -7.7999999999999988E-003     2.0354740853022157E-014
  -7.4999999999999997E-003     5.1262816770635226E-014
  -7.1999999999999998E-003     7.4159166503816085E-014
  -6.8999999999999981E-003    -2.4611720709772418E-013
  -6.5999999999999982E-003    -2.3206463097281343E-013
  -6.3000000000000000E-003     2.8200470162802397E-013
  -6.0000000000000001E-003     2.0897461530268091E-013
  -5.6999999999999985E-003     1.4862156683644361E-012
  -5.3999999999999986E-003    -9.5991824554099043E-013
  -5.1000000000000004E-003    -4.2562796764017500E-012
  -4.7999999999999987E-003     1.9024481567458105E-012
  -4.5000000000000005E-003    -9.9804386792584545E-013
  -4.1999999999999989E-003     9.8288814957657179E-012
  -3.8999999999999990E-003     1.2054774253095482E-011
  -3.5999999999999990E-003    -3.2332498204595377E-011
  -3.2999999999999991E-003    -2.2398537040497080E-012
  -2.9999999999999992E-003    -1.2594339126100126E-011
  -2.6999999999999993E-003     4.6044953193626399E-012
  -2.3999999999999994E-003     1.4592287557358667E-010
  -2.0999999999999977E-003    -8.8654261126051465E-011
  -1.7999999999999995E-003    -5.6808576832725554E-011
  -1.4999999999999979E-003    -5.6498227942296239E-011
  -1.1999999999999997E-003    -3.2224197715139619E-010
  -8.9999999999999976E-004     6.9862793797747601E-010
  -5.9999999999999810E-004     2.7096168911226557E-011
  -2.9999999999999992E-004    -2.9737319244706425E-010
   0.0000000000000000          9.2607785739078609E-010
   3.0000000000000165E-004    -2.7932461952966557E-009
   5.9999999999999984E-004     2.8070077404769623E-010
   9.0000000000000149E-004     4.6730672692498435E-009
   1.2000000000000031E-003    -4.1339316118029282E-009
   1.5000000000000013E-003     4.2432573418226336E-010
   1.8000000000000030E-003     6.4987239798507890E-009
   2.1000000000000012E-003    -8.3718140128767709E-009
   2.3999999999999994E-003    -9.4904484480573456E-009
   2.7000000000000010E-003     1.3233237893927877E-008
   2.9999999999999992E-003     1.7263597135465035E-008
   3.3000000000000008E-003    -2.0881255181247857E-008
   3.6000000000000025E-003    -1.5808240713832783E-008
   3.9000000000000007E-003     3.0085405787718639E-008
   4.2000000000000023E-003    -4.8688580672632733E-009
   4.5000000000000005E-003    -2.3834129336404288E-008
   4.7999999999999987E-003     1.0346462972059603E-008
   5.1000000000000004E-003     1.5382546259385954E-008
   5.4000000000000020E-003     2.1519042767862461E-008
   5.7000000000000037E-003    -3.4089067361138598E-008
   5.9999999999999984E-003    -3.8878745001005847E-008
   6.3000000000000000E-003     3.1216165573988273E-008
   6.6000000000000017E-003     1.2746518861170166E-008
   6.9000000000000034E-003     7.4143160339737162E-008
   7.2000000000000015E-003     2.5306437680643091E-008
   7.5000000000000032E-003    -2.2273734747503594E-007
   7.8000000000000014E-003    -1.7488334770249840E-007
   8.0999999999999996E-003     1.9982826891889686E-007
   8.4000000000000012E-003     1.1033551486316194E-006
   8.7000000000000029E-003     2.6071191821907737E-006
   9.0000000000000011E-003     4.2335817239116517E-006
   9.2999999999999992E-003     6.2768067616271551E-006
   9.6000000000000009E-003     9.4819765826565640E-006
   9.8999999999999991E-003     1.5475081770885832E-005
   1.0200000000000001E-002     2.5534534863487017E-005
   1.0500000000000002E-002     3.7182326128035531E-005
   1.0800000000000004E-002     5.1483610744678594E-005
   1.1099999999999999E-002     7.5260900078596136E-005
   1.1400000000000000E-002     1.0038081177431193E-004
   1.1700000000000002E-002     1.1128304218960004E-004
   1.2000000000000004E-002     1.1626766978129797E-004
   1.2300000000000002E-002     1.2122839257573976E-004
   1.2600000000000000E-002     1.0640916353644737E-004
   1.2900000000000002E-002     5.1123339429747471E-005
   1.3200000000000000E-002    -6.3462965025704688E-005
   1.3500000000000002E-002    -2.7545834008617072E-004
   1.3800000000000003E-002    -6.7098410587547648E-004
   1.4100000000000001E-002    -1.3528693946952225E-003
   1.4400000000000000E-002    -2.4597932432365642E-003
   1.4700000000000001E-002    -4.2766667595321951E-003
   1.4999999999999999E-002    -7.1227031341125138E-003
   1.5300000000000001E-002    -1.1291067808672429E-002
   1.5600000000000003E-002    -1.7258736814481007E-002
   1.5899999999999997E-002    -2.5677418176745348E-002
   1.6199999999999999E-002    -3.7231331381307492E-002
   1.6500000000000001E-002    -5.2658418071886551E-002
   1.6800000000000002E-002    -7.2810484556031729E-002
   1.7100000000000004E-002    -9.8576357692700969E-002
   1.7400000000000006E-002   -0.13067742798539000     
   1.7700000000000000E-002   -0.16957596775149880     
   1.8000000000000002E-002   -0.21541572378526311     
   1.8300000000000004E-002   -0.26780807491233244     
   1.8600000000000005E-002   -0.32554683772984877     
   1.8900000000000000E-002   -0.38638748451289334     
   1.9200000000000002E-002   -0.44694578185361877     
   1.9500000000000003E-002   -0.50250396462245217     
   1.9799999999999998E-002   -0.54693051095221268     
   2.0100000000000000E-002   -0.57279809090317024     
   2.0400000000000001E-002   -0.57159637828457743     
   2.0700000000000003E-002   -0.53412921607992403     
   2.0999999999999998E-002   -0.45116947391097240     
   2.1299999999999999E-002   -0.31429378586503498     
   2.1600000000000001E-002   -0.11693895909446564     
   2.1900000000000003E-002    0.14461352502695130     
   2.2200000000000004E-002    0.47006483627316531     
   2.2500000000000006E-002    0.85415503934478132     
   2.2800000000000001E-002     1.2858767208290938     
   2.3100000000000002E-002     1.7483228479675608     
   2.3400000000000004E-002     2.2187559259495973     
   2.3699999999999999E-002     2.6693157837822321     
   2.4000000000000000E-002     3.0686392996560365     
   2.4300000000000002E-002     3.3838564683785517     
   2.4599999999999997E-002     3.5832000622425948     
   2.4900000000000005E-002     3.6388218813094877     
   2.5200000000000000E-002     3.5294760709076769     
   2.5499999999999995E-002     3.2432344813368594     
   2.5800000000000003E-002     2.7790095115997575     
   2.6099999999999998E-002     2.1480288376528449     
   2.6400000000000007E-002     1.3733495497829207     
   2.6700000000000002E-002    0.48919692029871531     
   2.6999999999999996E-002   -0.46191970173323793     
   2.7300000000000005E-002    -1.4323882287406478     
   2.7600000000000000E-002    -2.3734427173319670     
   2.7900000000000008E-002    -3.2391143552237014     
   2.8200000000000003E-002    -3.9907047901179329     
   2.8499999999999998E-002    -4.5994166910128262     
   2.8800000000000006E-002    -5.0487509883583197     
   2.9100000000000001E-002    -5.3354838474825801     
   2.9400000000000003E-002    -5.4691723692045233     
   2.9700000000000004E-002    -5.4701841847828421     
   3.0000000000000006E-002    -5.3669763921714511     
   3.0300000000000001E-002    -5.1918323312712928     
   3.0600000000000002E-002    -4.9768539355376777     
   3.0900000000000004E-002    -4.7504342293355739     
   3.1199999999999999E-002    -4.5334538119349022     
   3.1500000000000007E-002    -4.3371089052743477     
   3.1800000000000002E-002    -4.1616907921696820     
   3.2099999999999997E-002    -3.9965205527689687     
   3.2400000000000005E-002    -3.8215502123591953     
   3.2700000000000000E-002    -3.6095970371620316     
   3.3000000000000002E-002    -3.3298885057256307     
   3.3300000000000003E-002    -2.9513694026057191     
   3.3599999999999998E-002    -2.4464914262236732     
   3.3900000000000000E-002    -1.7950600254263640     
   3.4200000000000001E-002   -0.98656564731977969     
   3.4500000000000003E-002    -2.2852013962109119E-002
   3.4799999999999998E-002     1.0806178010928114     
   3.5099999999999999E-002     2.2947662586135200     
   3.5400000000000001E-002     3.5765013755548658     
   3.5699999999999996E-002     4.8700807411207547     
   3.6000000000000004E-002     6.1109001258665687     
   3.6299999999999999E-002     7.2268939252019484     
   3.6600000000000008E-002     8.1432269752171322     
   3.6900000000000002E-002     8.7867637733413311     
   3.7199999999999997E-002     9.0918555488081658     
   3.7500000000000006E-002     9.0066714108361250     
   3.7800000000000000E-002     8.5000080154737017     
   3.8100000000000009E-002     7.5675133849286098     
   3.8400000000000004E-002     6.2367323868590656     
   3.8699999999999998E-002     4.5715582881837236     
   3.9000000000000007E-002     2.6734644903886053     
   3.9300000000000002E-002    0.68003566419517614     
   3.9600000000000003E-002    -1.2409444755629413     
   3.9900000000000005E-002    -2.9016559375679156     
   4.0200000000000000E-002    -4.1082153439361022     
   4.0500000000000001E-002    -4.6781231136187129     
   4.0800000000000003E-002    -4.4589942339789221     
   4.1100000000000005E-002    -3.3478908862129364     
   4.1399999999999999E-002    -1.3087760030036293     
   4.1700000000000008E-002     1.6147785606493317     
   4.2000000000000003E-002     5.2921712483094119     
   4.2299999999999997E-002     9.5084953254716886     
   4.2600000000000006E-002     13.973139952035844     
   4.2900000000000001E-002     18.339627739598157     
   4.3200000000000002E-002     22.230344618200810     
   4.3500000000000004E-002     25.267495177057214     
   4.3799999999999999E-002     27.106753597879958     
   4.4100000000000000E-002     27.469816594182763     
   4.4400000000000002E-002     26.170536822499415     
   4.4700000000000004E-002     23.136214602864602     
   4.4999999999999998E-002     18.417361638220605     
   4.5300000000000000E-002     12.186978791798117     
   4.5600000000000002E-002     4.7299380336675068     
   4.5899999999999996E-002    -3.5757260855903663     
   4.6200000000000005E-002    -12.291011101162880     
   4.6500000000000000E-002    -20.948321274805597     
   4.6799999999999994E-002    -29.084469147275858     
   4.7100000000000003E-002    -36.274624013283372     
   4.7399999999999998E-002    -42.157024952945562     
   4.7700000000000006E-002    -46.454868920320557     
   4.8000000000000001E-002    -48.991680349376111     
   4.8300000000000010E-002    -49.693629888013085     
   4.8600000000000004E-002    -48.586432669800793     
   4.8899999999999999E-002    -45.782413601482702     
   4.9200000000000008E-002    -41.467313396547311     
   4.9500000000000002E-002    -35.881472928103236     
   4.9800000000000011E-002    -29.303199196958232     
   5.0100000000000006E-002    -22.029361556639312     
   5.0400000000000000E-002    -14.360869490704243     
   5.0700000000000009E-002    -6.5880026331497916     
   5.1000000000000004E-002     1.0216405544564040     
   5.1299999999999998E-002     8.2255554796331367     
   5.1600000000000007E-002     14.812468876468515     
   5.1900000000000002E-002     20.606000366837577     
   5.2200000000000010E-002     25.469765457782621     
   5.2500000000000005E-002     29.305461085329817     
   5.2800000000000000E-002     32.054234670852601     
   5.3099999999999994E-002     33.696957241316575     
   5.3400000000000003E-002     34.253628592236382     
   5.3699999999999998E-002     33.785586051860847     
   5.4000000000000006E-002     32.390918528721699     
   5.4300000000000001E-002     30.199508374960473     
   5.4599999999999996E-002     27.364369031618288     
   5.4900000000000004E-002     24.055662802409554     
   5.5199999999999999E-002     20.451448922444794     
   5.5499999999999994E-002     16.730890486153285     
   5.5800000000000002E-002     13.058686114243304     
   5.6099999999999997E-002     9.5771786456164136     
   5.6400000000000006E-002     6.3979338961727450     
   5.6700000000000000E-002     3.5989893408280542     
   5.6999999999999995E-002     1.2241074615676757     
   5.7300000000000004E-002   -0.71885038626739983     
   5.7599999999999998E-002    -2.2545908354421749     
   5.7900000000000007E-002    -3.4355525544192860     
   5.8200000000000002E-002    -4.3325476469273738     
   5.8499999999999996E-002    -5.0248796503319237     
   5.8800000000000005E-002    -5.5921235878577544     
   5.9100000000000000E-002    -6.1077411959080745     
   5.9400000000000008E-002    -6.6316701037590207     
   5.9700000000000003E-002    -7.2067881061595518     
   6.0000000000000012E-002    -7.8515380762864115     
   6.0300000000000006E-002    -8.5626310321459052     
   6.0600000000000001E-002    -9.3131279659652098     
   6.0900000000000010E-002    -10.059921714001943     
   6.1200000000000004E-002    -10.748360804224568     
   6.1500000000000013E-002    -11.316867021027427     
   6.1800000000000008E-002    -11.703272354328053     
   6.2100000000000002E-002    -11.849555269282284     
   6.2399999999999997E-002    -11.711536468530134     
   6.2700000000000006E-002    -11.262747866968841     
   6.3000000000000000E-002    -10.498028847762253     
   6.3300000000000009E-002    -9.4332868960310421     
   6.3600000000000004E-002    -8.1046447425532868     
   6.3899999999999998E-002    -6.5672505156224581     
   6.4199999999999993E-002    -4.8899850777754432     
   6.4500000000000002E-002    -3.1515329058230490     
   6.4800000000000010E-002    -1.4320077660937569     
   6.5100000000000005E-002    0.19106335886441239     
   6.5400000000000000E-002     1.6495280184361645     
   6.5700000000000008E-002     2.8883536368021767     
   6.5999999999999989E-002     3.8712011307581902     
   6.6299999999999998E-002     4.5813257307111384     
   6.6600000000000006E-002     5.0210159424292726     
   6.6900000000000001E-002     5.2096059927876848     
   6.7199999999999996E-002     5.1804756536312402     
   6.7500000000000004E-002     4.9788731372995896     
   6.7800000000000013E-002     4.6578341534746288     
   6.8099999999999994E-002     4.2737965075195845     
   6.8400000000000002E-002     3.8797121066569318     
   6.8700000000000011E-002     3.5212385173227161     
   6.8999999999999992E-002     3.2330058827266641     
   6.9300000000000000E-002     3.0389418483252282     
   6.9600000000000009E-002     2.9505698648532634     
   6.9900000000000004E-002     2.9657789783915693     
   7.0199999999999999E-002     3.0689892264220031     
   7.0500000000000007E-002     3.2322425956099581     
   7.0800000000000016E-002     3.4200192109774634     
   7.1099999999999997E-002     3.5928415266113882     
   7.1400000000000005E-002     3.7115232142523666     
   7.1700000000000000E-002     3.7401872663410982     
   7.1999999999999995E-002     3.6484184348984678     
   7.2300000000000003E-002     3.4149522613974868     
   7.2600000000000012E-002     3.0297417541222647     
   7.2900000000000006E-002     2.4953213403037648     
   7.3200000000000001E-002     1.8269258026088329     
   7.3499999999999996E-002     1.0508864600471086     
   7.3800000000000004E-002    0.20174200695759625     
   7.4099999999999999E-002   -0.68074466460685146     
   7.4400000000000008E-002    -1.5538374231482446     
   7.4700000000000003E-002    -2.3747622790641651     
   7.5000000000000011E-002    -3.1039239665045990     
   7.5299999999999992E-002    -3.7065116996368390     
   7.5600000000000001E-002    -4.1559655250556142     
   7.5900000000000009E-002    -4.4352427634130702     
   7.6200000000000004E-002    -4.5371296757963391     
   7.6499999999999999E-002    -4.4646557171998182     
   7.6800000000000007E-002    -4.2294909025933087     
   7.7099999999999988E-002    -3.8511098881012797     
   7.7399999999999997E-002    -3.3558144463040476     
   7.7700000000000005E-002    -2.7765063084115926     
   7.8000000000000014E-002    -2.1499554463298098     
   7.8299999999999995E-002    -1.5141579442138742     
   7.8600000000000003E-002   -0.90586672547592650     
   7.8900000000000012E-002   -0.35748238486630052     
   7.9199999999999993E-002    0.10305554206158893     
   7.9500000000000001E-002    0.45458971343032828     
   7.9800000000000010E-002    0.68362087821222817     
   8.0100000000000018E-002    0.78657986703621430     
   8.0399999999999999E-002    0.77066816714485731     
   8.0700000000000008E-002    0.65313269973954058     
   8.1000000000000003E-002    0.45961199745318504     
   8.1299999999999997E-002    0.22126928901692794     
   8.1600000000000006E-002    -2.6407192633717672E-002
   8.1900000000000014E-002   -0.24683075305285865     
   8.2199999999999995E-002   -0.40487261883410819     
   8.2500000000000004E-002   -0.47121229336020132     
   8.2799999999999999E-002   -0.42454722078268958     
   8.3100000000000007E-002   -0.25439700681797373     
   8.3400000000000002E-002     3.6934615720264519E-002
   8.3700000000000011E-002    0.43462466076652195     
   8.4000000000000005E-002    0.91232300095487207     
   8.4300000000000000E-002     1.4340022191895379     
   8.4599999999999995E-002     1.9577057733590446     
   8.4900000000000003E-002     2.4386126786882882     
   8.5199999999999998E-002     2.8322411537212591     
   8.5500000000000007E-002     3.1000514740766345     
   8.5800000000000001E-002     3.2130308412160238     
   8.6100000000000010E-002     3.1550031720980276     
   8.6399999999999991E-002     2.9244947816561311     
   8.6699999999999999E-002     2.5334576297075047     
   8.7000000000000008E-002     2.0065390255737823     
   8.7300000000000003E-002     1.3794044871675910     
   8.7599999999999997E-002    0.69378462141473429     
   8.7900000000000006E-002    -3.6791497023375141E-003
   8.8200000000000014E-002   -0.66776065280043240     
   8.8499999999999995E-002    -1.2585891857773051     
   8.8800000000000004E-002    -1.7447981871133509     
   8.9100000000000013E-002    -2.1053283156004095     
   8.9399999999999993E-002    -2.3305680737210954     
   8.9700000000000002E-002    -2.4206677672736170     
   9.0000000000000011E-002    -2.3859191233474570     
   9.0299999999999991E-002    -2.2440643613811297     
   9.0600000000000000E-002    -2.0186096238563223     
   9.0900000000000009E-002    -1.7361634725026425     
   9.1200000000000017E-002    -1.4234631381461238     
   9.1499999999999998E-002    -1.1055712274044747     
   9.1800000000000007E-002   -0.80270127450907891     
   9.2100000000000001E-002   -0.53078939644528111     
   9.2399999999999996E-002   -0.30030653050275030     
   9.2700000000000005E-002   -0.11742428721185402     
   9.3000000000000013E-002     1.6292978496658755E-002
   9.3300000000000008E-002    0.10378737105022925     
   9.3600000000000003E-002    0.15293072004262812     
   9.3899999999999997E-002    0.17385954886734106     
   9.4200000000000006E-002    0.17729997451376600     
   9.4500000000000001E-002    0.17330483806822372     
   9.4800000000000009E-002    0.16903923931270648     
   9.5100000000000004E-002    0.17201494973012346     
   9.5399999999999999E-002    0.18670227312037924     
   9.5699999999999993E-002    0.21575719610283789     
   9.6000000000000002E-002    0.25700475148178842     
   9.6300000000000011E-002    0.30471778684280182     
   9.6600000000000005E-002    0.35109198825487270     
   9.6900000000000000E-002    0.38805117382954041     
   9.7200000000000009E-002    0.40817217866204197     
   9.7499999999999989E-002    0.40432713109834001     
   9.7799999999999998E-002    0.37093071747865819     
   9.8100000000000007E-002    0.30466123623666286     
   9.8400000000000015E-002    0.20566175672150075     
   9.8699999999999996E-002     7.8052696914448064E-002
   9.9000000000000005E-002    -7.1357796372912341E-002
   9.9300000000000013E-002   -0.23339552145861822     
   9.9599999999999994E-002   -0.39778077925229827     
   9.9900000000000003E-002   -0.55227301895571157     
  0.10020000000000001        -0.68497488046364186     
  0.10049999999999999        -0.78462165407740636     
  0.10080000000000000        -0.84321991490741288     
  0.10110000000000001        -0.85475604153956475     
  0.10140000000000000        -0.81614761276141790     
  0.10170000000000000        -0.72665841043266544     
  0.10200000000000001        -0.58922263970595490     
  0.10230000000000002        -0.41098902336807713     
  0.10260000000000000        -0.20230064261090439     
  0.10290000000000001          2.4655830878608811E-002
  0.10320000000000000         0.25778835341096590     
  0.10350000000000001         0.48502612820432500     
  0.10380000000000000         0.69372083359016024     
  0.10410000000000001         0.87171669082230152     
  0.10440000000000001          1.0099482405094673     
  0.10470000000000000          1.1025604106932207     
  0.10500000000000000          1.1485845050367125     
  0.10530000000000000          1.1496962116836156     
  0.10560000000000000          1.1092540314055905     
  0.10590000000000001          1.0334805022101130     
  0.10620000000000000         0.93104463276940730     
  0.10650000000000001         0.81317981031337272     
  0.10679999999999999         0.69254724630067055     
  0.10710000000000000         0.57993076660723886     
  0.10740000000000001         0.48484153350759918     
  0.10770000000000000         0.41450908960930033     
  0.10800000000000000         0.37554390457751752     
  0.10830000000000001         0.37176402266872516     
  0.10859999999999999         0.40487437398231851     
  0.10890000000000000         0.47197132361793703     
  0.10920000000000001         0.56716642085965840     
  0.10950000000000001         0.68202821541484049     
  0.10979999999999999         0.80632398546707740     
  0.11009999999999999         0.92911489820669257     
  0.11040000000000001          1.0381652444127634     
  0.11070000000000001          1.1214238485875181     
  0.11100000000000000          1.1681451229022386     
  0.11130000000000000          1.1696707395306449     
  0.11160000000000002          1.1196959337889925     
  0.11190000000000001          1.0156552092872402     
  0.11220000000000001         0.85822566107371068     
  0.11250000000000000         0.65220279245933233     
  0.11280000000000000         0.40552737824128210     
  0.11309999999999999         0.12744535492128425     
  0.11340000000000001        -0.17020032096845306     
  0.11369999999999998        -0.47628664478906124     
  0.11400000000000000        -0.77829370051640467     
  0.11430000000000000         -1.0641646575248940     
  0.11460000000000002         -1.3229068669065662     
  0.11489999999999999         -1.5472031333434875     
  0.11520000000000001         -1.7316235604023489     
  0.11550000000000001         -1.8738030914942820     
  0.11580000000000000         -1.9725636266422573     
  0.11609999999999999         -2.0287707447702590     
  0.11640000000000002         -2.0451806418722880     
  0.11670000000000001         -2.0271160478349328     
  0.11700000000000001         -1.9813578168878916     
  0.11730000000000000         -1.9149612065507262     
  0.11760000000000000         -1.8336991928038882     
  0.11789999999999999         -1.7426533718703934     
  0.11820000000000001         -1.6467405169237144     
  0.11850000000000001         -1.5504207023908989     
  0.11880000000000000         -1.4571166830218227     
  0.11910000000000000         -1.3667687294634343     
  0.11940000000000002         -1.2780594801879679     
  0.11970000000000001         -1.1882458697759395     
  0.12000000000000001         -1.0948116842662197     
  0.12030000000000000        -0.99596094209610753     
  0.12060000000000000        -0.88879494387658142     
  0.12089999999999999        -0.77009226422363386     
  0.12119999999999999        -0.63647115237954066     
  0.12150000000000001        -0.48705401280726046     
  0.12180000000000001        -0.32230559246773771     
  0.12210000000000000        -0.14499683643259878     
  0.12239999999999999          4.1657074321445969E-002
  0.12270000000000002         0.23530291369309281     
  0.12300000000000001         0.43296299561379420     
  0.12330000000000001         0.63019649323189286     
  0.12360000000000000         0.82134430568266492     
  0.12390000000000000          1.0004425235920371     
  0.12419999999999999          1.1635855299350681     
  0.12450000000000001          1.3076294321295521     
  0.12480000000000001          1.4314234110302890     
  0.12509999999999999          1.5331033319235674     
  0.12540000000000001          1.6119323039297349     
  0.12570000000000003          1.6679623286462490     
  0.12600000000000000          1.7033885363343950     
  0.12630000000000002          1.7218780021317417     
  0.12659999999999999          1.7270795658886311     
  0.12690000000000001          1.7227434282406280     
  0.12719999999999998          1.7121297662894590     
  0.12750000000000000          1.6981517690770089     
  0.12780000000000002          1.6829114642143783     
  0.12809999999999999          1.6674469280714892     
  0.12840000000000001          1.6508899685524656     
  0.12869999999999998          1.6322707756938606     
  0.12900000000000000          1.6077307018974811     
  0.12930000000000003          1.5739872596170017     
  0.12959999999999999          1.5256603787128786     
  0.12990000000000002          1.4584645217654744     
  0.13019999999999998          1.3673728569812700     
  0.13050000000000000          1.2489555962704550     
  0.13080000000000003          1.1006664019618906     
  0.13109999999999999         0.92082379408162396     
  0.13140000000000002         0.70970141792272456     
  0.13169999999999998         0.46979572625372806     
  0.13200000000000001         0.20473583144016802     
  0.13229999999999997         -7.8917771932401071E-002
  0.13260000000000000        -0.37545387456379803     
  0.13290000000000002        -0.67590546482300373     
  0.13319999999999999        -0.97253626898328926     
  0.13350000000000001         -1.2551509698711767     
  0.13380000000000003         -1.5151828620620944     
  0.13410000000000000         -1.7450946261494948     
  0.13440000000000002         -1.9392878926698920     
  0.13469999999999999         -2.0937411563594148     
  0.13500000000000001         -2.2055906740207907     
  0.13529999999999998         -2.2738356627138070     
  0.13560000000000000         -2.2987752864812174     
  0.13590000000000002         -2.2842854564710091     
  0.13619999999999999         -2.2343828404532360     
  0.13650000000000001         -2.1536002395490623     
  0.13680000000000003         -2.0458796526717684     
  0.13710000000000000         -1.9147982230030163     
  0.13740000000000002         -1.7635604409933570     
  0.13769999999999999         -1.5957071500139750     
  0.13800000000000001         -1.4133673198066095     
  0.13829999999999998         -1.2173860039507214     
  0.13860000000000000         -1.0083123687964095     
  0.13890000000000002        -0.78687677221507590     
  0.13919999999999999        -0.55424530427464958     
  0.13950000000000001        -0.31287163288703113     
  0.13979999999999998         -6.3562024459318273E-002
  0.14010000000000000         0.19072086130868138     
  0.14040000000000002         0.44670134695758479     
  0.14069999999999999         0.69943590184524917     
  0.14100000000000001         0.94326951815069338     
  0.14130000000000004          1.1725972712712660     
  0.14160000000000000          1.3827514054710581     
  0.14189999999999997          1.5675542317353681     
  0.14219999999999999          1.7210765498337754     
  0.14250000000000002          1.8372211499353308     
  0.14279999999999998          1.9114124712197840     
  0.14310000000000000          1.9406806975839812     
  0.14339999999999997          1.9234639620592100     
  0.14369999999999999          1.8600672998830614     
  0.14400000000000002          1.7511027398690486     
  0.14429999999999998          1.6004465588760246     
  0.14460000000000001          1.4131508611130712     
  0.14490000000000003          1.1964272592305951     
  0.14520000000000000         0.95769086227869471     
  0.14550000000000002         0.70500925192639208     
  0.14579999999999999         0.44670313973745057     
  0.14610000000000001         0.19109016672557530     
  0.14640000000000003         -5.5145919821463690E-002
  0.14670000000000000        -0.28639733374046233     
  0.14699999999999996        -0.49867844968482555     
  0.14729999999999999        -0.68857212958533465     
  0.14760000000000001        -0.85343449792527637     
  0.14789999999999998        -0.99156702371331096     
  0.14820000000000000         -1.1036322560974479     