  -1.4999999999999999E-002     0.0000000000000000     
  -1.4700000000000000E-002    -4.7275275980298433E-005
  -1.4400000000000000E-002     6.8877194181179530E-005
  -1.4100000000000000E-002     2.2074720674134752E-004
  -1.3800000000000000E-002     4.3751105830489620E-004
  -1.3500000000000000E-002     3.8186355507948316E-004
  -1.3200000000000000E-002     1.1796880865259785E-004
  -1.2899999999999998E-002    -2.4108398541798425E-004
  -1.2600000000000000E-002    -6.3969958954706045E-004
  -1.2299999999999998E-002    -1.0580066275210607E-003
  -1.2000000000000000E-002    -1.6441136149939444E-003
  -1.1699999999999999E-002    -2.9542550706622927E-003
  -1.1399999999999999E-002    -4.9938937947050840E-003
  -1.1099999999999999E-002    -8.6334871936837726E-003
  -1.0799999999999999E-002    -1.3903394229228802E-002
  -1.0499999999999999E-002    -2.2701820528737305E-002
  -1.0199999999999999E-002    -3.5940038690891130E-002
  -9.8999999999999991E-003    -5.6420865344441150E-002
  -9.5999999999999992E-003    -8.6860055757364926E-002
  -9.2999999999999992E-003   -0.13094332998411815     
  -8.9999999999999993E-003   -0.19387598345957105     
  -8.6999999999999994E-003   -0.28151532726692574     
  -8.3999999999999995E-003   -0.40222098608592821     
  -8.0999999999999996E-003   -0.56444232045672571     
  -7.7999999999999988E-003   -0.77898940594928778     
  -7.4999999999999997E-003    -1.0558015847929627     
  -7.1999999999999998E-003    -1.4062431366153616     
  -6.8999999999999981E-003    -1.8397643769498311     
  -6.5999999999999982E-003    -2.3634599264122560     
  -6.3000000000000000E-003    -2.9802401599275314     
  -6.0000000000000001E-003    -3.6859185669264170     
  -5.6999999999999985E-003    -4.4681035807149714     
  -5.3999999999999986E-003    -5.3022938800558430     
  -5.1000000000000004E-003    -6.1521640132989397     
  -4.7999999999999987E-003    -6.9662475206344503     
  -4.5000000000000005E-003    -7.6788605665105951     
  -4.1999999999999989E-003    -8.2102578664192354     
  -3.8999999999999990E-003    -8.4715751020517409     
  -3.5999999999999990E-003    -8.3670295263741732     
  -3.2999999999999991E-003    -7.8037966883857832     
  -2.9999999999999992E-003    -6.6985655149658276     
  -2.6999999999999993E-003    -4.9880458919052977     
  -2.3999999999999994E-003    -2.6402022306187458     
  -2.0999999999999977E-003    0.33812762624529707     
  -1.7999999999999995E-003     3.8902534720415658     
  -1.4999999999999979E-003     7.9088101885404285     
  -1.1999999999999997E-003     12.230635325632749     
  -8.9999999999999976E-004     16.646127980309050     
  -5.9999999999999810E-004     20.904985388481254     
  -2.9999999999999992E-004     24.735019389681494     
   0.0000000000000000          27.857303161072299     
   3.0000000000000165E-004     30.013518776191610     
   5.9999999999999984E-004     30.985126059224019     
   9.0000000000000149E-004     30.616994630111339     
   1.2000000000000031E-003     28.834205739129452     
   1.5000000000000013E-003     25.654726597267196     
   1.8000000000000030E-003     21.192786383342764     
   2.1000000000000012E-003     15.654132670441633     
   2.3999999999999994E-003     9.3234972860238834     
   2.7000000000000010E-003     2.5432754957847354     
   2.9999999999999992E-003    -4.3125789206783018     
   3.3000000000000008E-003    -10.866838216246533     
   3.6000000000000025E-003    -16.770949715717240     
   3.9000000000000007E-003    -21.729996809250284     
   4.2000000000000023E-003    -25.524861387577385     
   4.5000000000000005E-003    -28.027896047688454     
   4.7999999999999987E-003    -29.203915918486864     
   5.1000000000000004E-003    -29.113273302235676     
   5.4000000000000020E-003    -27.894031603340323     
   5.7000000000000037E-003    -25.749022057364051     
   5.9999999999999984E-003    -22.921147387424089     
   6.3000000000000000E-003    -19.667424699555983     
   6.6000000000000017E-003    -16.240940054954351     
   6.9000000000000034E-003    -12.860973678661368     
   7.2000000000000015E-003    -9.7092186312370004     
   7.5000000000000032E-003    -6.9066656614652118     
   7.8000000000000014E-003    -4.5227212770365659     
   8.0999999999999996E-003    -2.5677278448364151     
   8.4000000000000012E-003    -1.0073551259048750     
   8.7000000000000029E-003    0.22769856094355936     
   9.0000000000000011E-003     1.2270140639590152     
   9.2999999999999992E-003     2.0838406014319970     
   9.6000000000000009E-003     2.8853689356862620     
   9.8999999999999991E-003     3.6965591792433306     
   1.0200000000000001E-002     4.5575319245963319     
   1.0500000000000002E-002     5.4764119955516444     
   1.0800000000000004E-002     6.4332988293964659     
   1.1099999999999999E-002     7.3828757304652690     
   1.1400000000000000E-002     8.2630375217855452     
   1.1700000000000002E-002     9.0036114201973270     
   1.2000000000000004E-002     9.5362433001727922     
   1.2300000000000002E-002     9.8040731950613349     
   1.2600000000000000E-002     9.7669247180163534     
   1.2900000000000002E-002     9.4091318629455536     
   1.3200000000000000E-002     8.7379654459992580     
   1.3500000000000002E-002     7.7868670109726938     
   1.3800000000000003E-002     6.6077765235710855     
   1.4100000000000001E-002     5.2705291686859344     
   1.4400000000000000E-002     3.8519155177222006     
   1.4700000000000001E-002     2.4337961107222186     
   1.4999999999999999E-002     1.0909171986852886     
   1.5300000000000001E-002   -0.10857055157698491     
   1.5600000000000003E-002    -1.1124241164896984     
   1.5899999999999997E-002    -1.8840047905855288     
   1.6199999999999999E-002    -2.4051849253072257     
   1.6500000000000001E-002    -2.6760889752844581     
   1.6800000000000002E-002    -2.7113544120624349     
   1.7100000000000004E-002    -2.5420312016256985     
   1.7400000000000006E-002    -2.2079032991728362     
   1.7700000000000000E-002    -1.7572644132093804     
   1.8000000000000002E-002    -1.2396092866620432     
   1.8300000000000004E-002   -0.70624172194364199     
   1.8600000000000005E-002   -0.20331228332863291     
   1.8900000000000000E-002    0.22955465257976204     
   1.9200000000000002E-002    0.56176737538067079     
   1.9500000000000003E-002    0.77314302278684921     
   1.9799999999999998E-002    0.85523238351955921     
   2.0100000000000000E-002    0.80948945363442815     
   2.0400000000000001E-002    0.64833834366033605     
   2.0700000000000003E-002    0.39107766702106078     
   2.0999999999999998E-002     6.4843658822644923E-002
   2.1299999999999999E-002   -0.30113734819672261     
   2.1600000000000001E-002   -0.67525590930369461     
   2.1900000000000003E-002    -1.0276703338799922     
   2.2200000000000004E-002    -1.3326386871392166     
   2.2500000000000006E-002    -1.5680504483473232     
   2.2800000000000001E-002    -1.7199770842194624     
   2.3100000000000002E-002    -1.7795206954269733     
   2.3400000000000004E-002    -1.7466859304779101     
   2.3699999999999999E-002    -1.6271029253618896     
   2.4000000000000000E-002    -1.4340391967735302     
   2.4300000000000002E-002    -1.1844145956775245     
   2.4599999999999997E-002   -0.89852945072010948     
   2.4900000000000005E-002   -0.59874968897813585     
   2.5200000000000000E-002   -0.30684301582960077     
   2.5499999999999995E-002    -4.3206184110945914E-002
   2.5800000000000003E-002    0.17572202412661442     
   2.6099999999999998E-002    0.33792322734107905     
   2.6400000000000007E-002    0.43706261438390803     
   2.6700000000000002E-002    0.47290756310211185     
   2.6999999999999996E-002    0.44944017110932094     
   2.7300000000000005E-002    0.37621077060523900     
   2.7600000000000000E-002    0.26554971497350405     
   2.7900000000000008E-002    0.13262626608518810     
   2.8200000000000003E-002    -7.2227445831304178E-003
   2.8499999999999998E-002   -0.13943416120633903     
   2.8800000000000006E-002   -0.25089175688410736     
   2.9100000000000001E-002   -0.33153308120422909     
   2.9400000000000003E-002   -0.37418660802127662     
   2.9700000000000004E-002   -0.37487518779651319     
   3.0000000000000006E-002   -0.33303123504045185     
   3.0300000000000001E-002   -0.25030737804444286     
   3.0600000000000002E-002   -0.13197599000235960     
   3.0900000000000004E-002     1.5304688767458359E-002
   3.1199999999999999E-002    0.18297682928007256     
   3.1500000000000007E-002    0.36133912287443015     
   3.1800000000000002E-002    0.54015862834177919     
   3.2099999999999997E-002    0.70811086608984397     
   3.2400000000000005E-002    0.85578673594481303     
   3.2700000000000000E-002    0.97335659842962774     
   3.3000000000000002E-002     1.0547203943225312     
   3.3300000000000003E-002     1.0942203922015419     
   3.3599999999999998E-002     1.0910223648439898     
   3.3900000000000000E-002     1.0459159550102106     
   3.4200000000000001E-002    0.96377110004990640     
   3.4500000000000003E-002    0.85106402316707708     
   3.4799999999999998E-002    0.71592736058957329     
   3.5099999999999999E-002    0.56746113170577439     
   3.5400000000000001E-002    0.41383802762369798     
   3.5699999999999996E-002    0.26268899205080204     
   3.6000000000000004E-002    0.11838456616133256     
   3.6299999999999999E-002    -1.5416192744385450E-002
   3.6600000000000008E-002   -0.13838473599214823     
   3.6900000000000002E-002   -0.25073224917150244     
   3.7199999999999997E-002   -0.35414553030522483     
   3.7500000000000006E-002   -0.44861757599493152     
   3.7800000000000000E-002   -0.53444968691016959     
   3.8100000000000009E-002   -0.60917250327206574     
   3.8400000000000004E-002   -0.66881188567978322     
   3.8699999999999998E-002   -0.70775045523236624     
   3.9000000000000007E-002   -0.71904290181951191     
   3.9300000000000002E-002   -0.69701450665437314     
   3.9600000000000003E-002   -0.63595377633125616     
   3.9900000000000005E-002   -0.53513866042094416     
   4.0200000000000000E-002   -0.39579567514600245     
   4.0500000000000001E-002   -0.22577966864465476     
   4.0800000000000003E-002    -3.5394928249631807E-002
   4.1100000000000005E-002    0.15971133056256856     
   4.1399999999999999E-002    0.34208950654637066     
   4.1700000000000008E-002    0.49257001849663179     
   4.2000000000000003E-002    0.59310738385313122     
   4.2299999999999997E-002    0.62951835149106328     
   4.2600000000000006E-002    0.59139252566186207     
   4.2900000000000001E-002    0.47608632149265062     
   4.3200000000000002E-002    0.28598064805473350     
   4.3500000000000004E-002     3.2338595422740674E-002
   4.3799999999999999E-002   -0.26895698321137917     
   4.4100000000000000E-002   -0.59541112206885638     
   4.4400000000000002E-002   -0.92253771689422326     
   4.4700000000000004E-002    -1.2244919581046807     
   4.4999999999999998E-002    -1.4780479440326222     
   4.5300000000000000E-002    -1.6621131431809557     
   4.5600000000000002E-002    -1.7633187115074480     
   4.5899999999999996E-002    -1.7725273782011428     
   4.6200000000000005E-002    -1.6902090659629718     
   4.6500000000000000E-002    -1.5216846817657455     
   4.6799999999999994E-002    -1.2801094467337237     
   4.7100000000000003E-002   -0.98288451805359822     
   4.7399999999999998E-002   -0.64916730498012531     
   4.7700000000000006E-002   -0.30076961791422085     
   4.8000000000000001E-002     4.3525543845926350E-002
   4.8300000000000010E-002    0.36530343563751932     
   4.8600000000000004E-002    0.65165918630840081     
   4.8899999999999999E-002    0.89284960916390110     
   4.9200000000000008E-002     1.0839928159185654     
   4.9500000000000002E-002     1.2249191710718499     
   4.9800000000000011E-002     1.3168764988915995     
   5.0100000000000006E-002     1.3664898536871768     
   5.0400000000000000E-002     1.3786303670152722     
   5.0700000000000009E-002     1.3619067355361729     
   5.1000000000000004E-002     1.3216190057203694     
   5.1299999999999998E-002     1.2648862357686288     
   5.1600000000000007E-002     1.1966004175327172     
   5.1900000000000002E-002     1.1200106004920163     
   5.2200000000000010E-002     1.0392978104413033     
   5.2500000000000005E-002    0.95393943574784013     
   5.2800000000000000E-002    0.86741626567646257     
   5.3099999999999994E-002    0.77725649786351914     
   5.3400000000000003E-002    0.68548156158973494     
   5.3699999999999998E-002    0.59014781050584364     
   5.4000000000000006E-002    0.49143450452725279     
   5.4300000000000001E-002    0.38882439454997458     
   5.4599999999999996E-002    0.28171863355904231     
   5.4900000000000004E-002    0.17200042902581295     
   5.5199999999999999E-002     5.9207578671855249E-002
   5.5499999999999994E-002    -5.2886822209117751E-002
   5.5800000000000002E-002   -0.16358943175839696     
   5.6099999999999997E-002   -0.26823516335958042     
   5.6400000000000006E-002   -0.36412124697569381     
   5.6700000000000000E-002   -0.44803850922854416     
   5.6999999999999995E-002   -0.51625614677417986     
   5.7300000000000004E-002   -0.56760280799687857     
   5.7599999999999998E-002   -0.59939354363360997     
   5.7900000000000007E-002   -0.61300825901498501     
   5.8200000000000002E-002   -0.60763263696110226     
   5.8499999999999996E-002   -0.58629435396045104     
   5.8800000000000005E-002   -0.55080610695740850     
   5.9100000000000000E-002   -0.50432485583807407     
   5.9400000000000008E-002   -0.45023787291728323     
   5.9700000000000003E-002   -0.39118245527122414     
   6.0000000000000012E-002   -0.33040571485050635     
   6.0300000000000006E-002   -0.27006218111387370     
   6.0600000000000001E-002   -0.21254949547238144     
   6.0900000000000010E-002   -0.15921384412268341     
   6.1200000000000004E-002   -0.11172418658031753     
   6.1500000000000013E-002    -7.0857425133657892E-002
   6.1800000000000008E-002    -3.7923427182808354E-002
   6.2100000000000002E-002    -1.2554366400228299E-002
   6.2399999999999997E-002     4.0970311500263664E-003
   6.2700000000000006E-002     1.3301571198756247E-002
   6.3000000000000000E-002     1.4979726200505162E-002
   6.3300000000000009E-002     1.1016622850590192E-002
   6.3600000000000004E-002     2.6112291894627962E-003
   6.3899999999999998E-002    -8.5680471609735197E-003
   6.4199999999999993E-002    -1.9896015246748288E-002
   6.4500000000000002E-002    -3.0259958468922481E-002
   6.4800000000000010E-002    -3.7150966626841843E-002
   6.5100000000000005E-002    -4.0072658973131600E-002
   6.5400000000000000E-002    -3.8446810837242239E-002
   6.5700000000000008E-002    -3.1820267325135224E-002
   6.5999999999999989E-002    -2.1900230925496478E-002
   6.6299999999999998E-002    -8.0970644600853146E-003
   6.6600000000000006E-002     6.2798703649806316E-003
   6.6900000000000001E-002     2.1057807996981877E-002
   6.7199999999999996E-002     3.3386671434642246E-002
   6.7500000000000004E-002     4.2045011874934805E-002
   6.7800000000000013E-002     4.6462861041502185E-002
   6.8099999999999994E-002     4.3783705030343185E-002
   6.8400000000000002E-002     3.5939521538119877E-002
   6.8700000000000011E-002     1.9181732967685657E-002
   6.8999999999999992E-002    -2.8188379196976312E-003
   6.9300000000000000E-002    -3.2408572217573227E-002
   6.9600000000000009E-002    -6.6577405209996637E-002
   6.9900000000000004E-002   -0.10506010967893821     
   7.0199999999999999E-002   -0.14626110600064604     
   7.0500000000000007E-002   -0.18695351167259489     
   7.0800000000000016E-002   -0.22662283243046702     
   7.1099999999999997E-002   -0.26076623747748506     
   7.1400000000000005E-002   -0.28908008373151783     
   7.1700000000000000E-002   -0.30817642990589683     
   7.1999999999999995E-002   -0.31696027784577480     
   7.2300000000000003E-002   -0.31354785303486760     
   7.2600000000000012E-002   -0.29722640321024651     
   7.2900000000000006E-002   -0.26797011913811247     
   7.3200000000000001E-002   -0.22541496584870757     
   7.3499999999999996E-002   -0.17075965195696005     
   7.3800000000000004E-002   -0.10507494540063163     
   7.4099999999999999E-002    -2.9593684401151100E-002
   7.4400000000000008E-002     5.3386813431856923E-002
   7.4700000000000003E-002    0.14177979484526682     
   7.5000000000000011E-002    0.23313958989565287     
   7.5299999999999992E-002    0.32421249295901111     
   7.5600000000000001E-002    0.41304409690285071     
   7.5900000000000009E-002    0.49520281221355483     
   7.6200000000000004E-002    0.56886714967343988     
   7.6499999999999999E-002    0.62958514999861925     
   7.6800000000000007E-002    0.67560845910579370     
   7.7099999999999988E-002    0.70386547133803778     
   7.7399999999999997E-002    0.71197492182924493     
   7.7700000000000005E-002    0.69897055914882567     
   7.8000000000000014E-002    0.66312152466511920     
   7.8299999999999995E-002    0.60521942688544039     
   7.8600000000000003E-002    0.52497554135971414     
   7.8900000000000012E-002    0.42423704574883703     
   7.9199999999999993E-002    0.30519256291437374     
   7.9500000000000001E-002    0.17062679227690589     
   7.9800000000000010E-002     2.4412031043517225E-002
   8.0100000000000018E-002   -0.12900370172997908     
   8.0399999999999999E-002   -0.28526985514731895     
   8.0700000000000008E-002   -0.43857032022450188     
   8.1000000000000003E-002   -0.58434307577549649     
   8.1299999999999997E-002   -0.71600252500710881     
   8.1600000000000006E-002   -0.83004480756630250     
   8.1900000000000014E-002   -0.92077160154980553     
   8.2199999999999995E-002   -0.98624700622458150     
   8.2500000000000004E-002    -1.0231024063444407     
   8.2799999999999999E-002    -1.0305539408220428     
   8.3100000000000007E-002    -1.0090074576429924     
   8.3400000000000002E-002   -0.95909864084129914     
   8.3700000000000011E-002   -0.88447457825953002     
   8.4000000000000005E-002   -0.78728538962554007     
   8.4300000000000000E-002   -0.67255443372002954     
   8.4599999999999995E-002   -0.54346197734262580     
   8.4900000000000003E-002   -0.40493419465451014     
   8.5199999999999998E-002   -0.26090985055007954     
   8.5500000000000007E-002   -0.11510676984653423     
   8.5800000000000001E-002     2.8822744836745677E-002
   8.6100000000000010E-002    0.16832595476364143     
   8.6399999999999991E-002    0.30105317592861552     
   8.6699999999999999E-002    0.42496077160562273     
   8.7000000000000008E-002    0.53857714786469446     
   8.7300000000000003E-002    0.64104581549301876     
   8.7599999999999997E-002    0.73127305979032353     
   8.7900000000000006E-002    0.80962926313678951     
   8.8200000000000014E-002    0.87533885120171984     
   8.8499999999999995E-002    0.92974733806060339     
   8.8800000000000004E-002    0.97182988276453286     
   8.9100000000000013E-002     1.0032443879130548     
   8.9399999999999993E-002     1.0240273322568747     
   8.9700000000000002E-002     1.0346303999358377     
   9.0000000000000011E-002     1.0358365572192949     
   9.0299999999999991E-002     1.0265916374443893     
   9.0600000000000000E-002     1.0079623241701223     
   9.0900000000000009E-002    0.97783617082507779     
   9.1200000000000017E-002    0.93695036615315408     
   9.1499999999999998E-002    0.88291118862272899     
   9.1800000000000007E-002    0.81551127282866065     
   9.2100000000000001E-002    0.73351465680928174     
   9.2399999999999996E-002    0.63526361634425210     
   9.2700000000000005E-002    0.52099019117086076     
   9.3000000000000013E-002    0.38960317012038309     
   9.3300000000000008E-002    0.24290867693824567     
   9.3600000000000003E-002     8.0867321116237831E-002
   9.3899999999999997E-002    -9.3884264088386793E-002
   9.4200000000000006E-002   -0.27823053628960404     
   9.4500000000000001E-002   -0.46840678395456503     
   9.4800000000000009E-002   -0.65936492600348762     
   9.5100000000000004E-002   -0.84630321172031464     
   9.5399999999999999E-002    -1.0232070557973425     
   9.5699999999999993E-002    -1.1848565216269320     
   9.6000000000000002E-002    -1.3259620545179298     
   9.6300000000000011E-002    -1.4421604754040827     
   9.6600000000000005E-002    -1.5304539086786342     
   9.6900000000000000E-002    -1.5884501817502201     
   9.7200000000000009E-002    -1.6155502679153879     
   9.7499999999999989E-002    -1.6120594621847590     
   9.7799999999999998E-002    -1.5787154318834631     
   9.8100000000000007E-002    -1.5180817720931921     
   9.8400000000000015E-002    -1.4316155789112122     
   9.8699999999999996E-002    -1.3220655790449842     
   9.9000000000000005E-002    -1.1904792657143572     
   9.9300000000000013E-002    -1.0391653645576728     
   9.9599999999999994E-002   -0.86942492587989340     
   9.9900000000000003E-002   -0.68205081098772802     
  0.10020000000000001        -0.47985331846324503     
  0.10049999999999999        -0.26312817818019751     
  0.10080000000000000         -3.6210009613984934E-002
  0.10110000000000001         0.19890182966939579     
  0.10140000000000000         0.43606294439076215     
  0.10170000000000000         0.67116601437854873     
  0.10200000000000001         0.89720482739580121     
  0.10230000000000002          1.1082789997482729     
  0.10260000000000000          1.2978060329152989     
  0.10290000000000001          1.4590565030662672     
  0.10320000000000000          1.5872032676836372     
  0.10350000000000001          1.6766117812193626     
  0.10380000000000000          1.7249821376868932     
  0.10410000000000001          1.7291998764623953     
  0.10440000000000001          1.6897520856122599     
  0.10470000000000000          1.6064982187777910     
  0.10500000000000000          1.4830431642472488     
  0.10530000000000000          1.3227825997268228     
  0.10560000000000000          1.1317680654235487     
  0.10590000000000001         0.91612590650624193     
  0.10620000000000000         0.68452752559070540     
  0.10650000000000001         0.44481176875167161     
  0.10679999999999999         0.20625098762568775     
  0.10710000000000000         -2.2415309185760946E-002
  0.10740000000000001        -0.23389441083358226     
  0.10770000000000000        -0.42014326047481276     
  0.10800000000000000        -0.57675764733933021     
  0.10830000000000001        -0.69883039729754026     
  0.10859999999999999        -0.78603097192444460     
  0.10890000000000000        -0.83752198668335365     
  0.10920000000000001        -0.85598457753544532     
  0.10950000000000001        -0.84493565746077892     
  0.10979999999999999        -0.80892914100036228     
  0.11009999999999999        -0.75416140746259253     
  0.11040000000000001        -0.68601994279088929     
  0.11070000000000001        -0.61130396725058711     
  0.11100000000000000        -0.53466014048472688     
  0.11130000000000000        -0.46155766466523090     
  0.11160000000000002        -0.39534936118163588     
  0.11190000000000001        -0.33934433005455833     
  0.11220000000000001        -0.29498872888262634     
  0.11250000000000000        -0.26299659132490055     
  0.11280000000000000        -0.24353583791982150     
  0.11309999999999999        -0.23457962810874419     
  0.11340000000000001        -0.23508024550766540     
  0.11369999999999998        -0.24205629641059481     
  0.11400000000000000        -0.25338914814420410     
  0.11430000000000000        -0.26604607232615018     
  0.11460000000000002        -0.27744316307737882     
  0.11489999999999999        -0.28507106527821185     
  0.11520000000000001        -0.28639112795765298     
  0.11550000000000001        -0.27973829553416002     
  0.11580000000000000        -0.26330425276756486     
  0.11609999999999999        -0.23607820886999456     
  0.11640000000000002        -0.19674141146770832     
  0.11670000000000001        -0.14540077551307282     
  0.11700000000000001         -8.1272157789292657E-002
  0.11730000000000000         -5.8223383119798541E-003
  0.11760000000000000          8.0705533812905419E-002
  0.11789999999999999         0.17498093724275476     
  0.11820000000000001         0.27515448108113749     
  0.11850000000000001         0.37654239599770450     
  0.11880000000000000         0.47503140961681017     
  0.11910000000000000         0.56542915272373961     
  0.11940000000000002         0.64184504757241256     
  0.11970000000000001         0.69977456146505823     
  0.12000000000000001         0.73365240963875644     
  0.12030000000000000         0.74147027160533319     
  0.12060000000000000         0.71987246649144587     
  0.12089999999999999         0.67009084213420300     
  0.12119999999999999         0.59253822129755418     
  0.12150000000000001         0.49151075693209667     
  0.12180000000000001         0.37127116533633664     
  0.12210000000000000         0.23830672628009827     
  0.12239999999999999          9.9069292993237593E-002
  0.12270000000000002         -3.9742019169920692E-002
  0.12300000000000001        -0.17192196403663620     
  0.12330000000000001        -0.29224130618109240     
  0.12360000000000000        -0.39568633399950220     
  0.12390000000000000        -0.47984037621436088     
  0.12419999999999999        -0.54185629850321715     
  0.12450000000000001        -0.58263743748913899     
  0.12480000000000001        -0.60115886302639920     
  0.12509999999999999        -0.60072016763151059     
  0.12540000000000001        -0.58206962960882880     
  0.12570000000000003        -0.54879771285328305     
  0.12600000000000000        -0.50359026292070108     
  0.12630000000000002        -0.45023354594347004     
  0.12659999999999999        -0.39193774896584582     
  0.12690000000000001        -0.33172694424435112     
  0.12719999999999998        -0.27277966857430641     
  0.12750000000000000        -0.21682289275984429     
  0.12780000000000002        -0.16670753641929861     
  0.12809999999999999        -0.12323597588217299     
  0.12840000000000001         -8.7721315958289664E-002
  0.12869999999999998         -5.9441231091042761E-002
  0.12900000000000000         -3.8201633559716161E-002
  0.12930000000000003         -2.2645528621593723E-002
  0.12959999999999999         -1.0506592388984305E-002
  0.12990000000000002          1.9987328931608667E-004
  0.13019999999999998          1.2251525805347085E-002
  0.13050000000000000          2.9118017734018783E-002
  0.13080000000000003          5.3231830436217216E-002
  0.13109999999999999          8.8079457057431046E-002
  0.13140000000000002         0.13499358235150646     
  0.13169999999999998         0.19647393559603482     
  0.13200000000000001         0.27260213076222400     
  0.13229999999999997         0.36236836161345137     
  0.13260000000000000         0.46464513110020700     
  0.13290000000000002         0.57490797109321345     
  0.13319999999999999         0.68909789373577679     
  0.13350000000000001         0.80089963836305500     
  0.13380000000000003         0.90357448222648118     
  0.13410000000000000         0.99053646890425173     
  0.13440000000000002          1.0541265215751157     
  0.13469999999999999          1.0899052841778896     
  0.13500000000000001          1.0911183603252130     
  0.13529999999999998          1.0574759492596291     
  0.13560000000000000         0.98580613229814962     
  0.13590000000000002         0.87922885300116727     
  0.13619999999999999         0.74043597721623333     
  0.13650000000000001         0.57423414321276067     
  0.13680000000000003         0.38925878095775945     
  0.13710000000000000         0.19001691371130308     
  0.13740000000000002         -1.1861846107112909E-002
  0.13769999999999999        -0.21270577239617972     
  0.13800000000000001        -0.40192856298643947     
  0.13829999999999998        -0.57686456548823795     
  0.13860000000000000        -0.73124542915075219     
  0.13890000000000002        -0.86323741619103822     
  0.13919999999999999        -0.97193066142947959     
  0.13950000000000001         -1.0564384868976202     
  0.13979999999999998         -1.1190472061596084     
  0.14010000000000000         -1.1599693711000079     
  0.14040000000000002         -1.1824657117666095     
  0.14069999999999999         -1.1865557803143336     
  0.14100000000000001         -1.1749816272096540     
  0.14130000000000004         -1.1460740858165070     
  0.14160000000000000         -1.1009603974758762     
  0.14189999999999997         -1.0364815179952398     
  0.14219999999999999        -0.95268411635701289     
  0.14250000000000002        -0.84596545086948627     
  0.14279999999999998        -0.71584808765116292     
  0.14310000000000000        -0.56091540369776927     
  0.14339999999999997        -0.38150696707696974     
  0.14369999999999999        -0.17989319265461090     
  0.14400000000000002          4.1312679128182671E-002
  0.14429999999999998         0.27530738299154928     
  0.14460000000000001         0.51706698310160681     
  0.14490000000000003         0.75660857492184685     
  0.14520000000000000         0.98712983623734030     
  0.14550000000000002          1.1982478180656904     
  0.14579999999999999          1.3822778717564685     
  0.14610000000000001          1.5315462570610463     
  0.14640000000000003          1.6394180241290635     
  0.14670000000000000          1.7025690210789826     
  0.14699999999999996          1.7177850092194160     
  0.14729999999999999          1.6860580474739373     
  0.14760000000000001          1.6085304002420153     
  0.14789999999999998          1.4891985588593795     
  0.14820000000000000          1.3336141001411765     