  -1.4999999999999999E-002     0.0000000000000000     
  -1.4700000000000000E-002     0.0000000000000000     
  -1.4400000000000000E-002     0.0000000000000000     
  -1.4100000000000000E-002     0.0000000000000000     
  -1.3800000000000000E-002     0.0000000000000000     
  -1.3500000000000000E-002     1.0707345094927145E-034
  -1.3200000000000000E-002     1.2313822587182619E-032
  -1.2899999999999998E-002    -4.3729882798960138E-031
  -1.2600000000000000E-002    -4.9805772800164621E-030
  -1.2299999999999998E-002     1.3887765344807924E-028
  -1.2000000000000000E-002    -3.4125996734510080E-028
  -1.1699999999999999E-002    -4.7816089262983302E-027
  -1.1399999999999999E-002     1.7578149240887113E-026
  -1.1099999999999999E-002     7.1192916103764721E-026
  -1.0799999999999999E-002    -2.8020827415086014E-025
  -1.0499999999999999E-002    -7.1943497821386473E-025
  -1.0199999999999999E-002     1.9695368433304839E-024
  -9.8999999999999991E-003     7.6674850105282215E-024
  -9.5999999999999992E-003    -5.3667873882204634E-024
  -9.2999999999999992E-003    -7.3020319343508113E-023
  -8.9999999999999993E-003    -2.9131053658189247E-023
  -8.6999999999999994E-003     5.3337649114389624E-022
  -8.3999999999999995E-003     2.1849463787304080E-022
  -8.0999999999999996E-003    -1.6169789890315457E-021
  -7.7999999999999988E-003    -3.1793168603614576E-021
  -7.4999999999999997E-003    -9.2303266020113842E-022
  -7.1999999999999998E-003     3.4669823913677564E-020
  -6.8999999999999981E-003    -4.6415868033715155E-021
  -6.5999999999999982E-003    -1.0546840268125430E-019
  -6.3000000000000000E-003     1.7100901264085365E-020
  -6.0000000000000001E-003    -1.6419423290366816E-019
  -5.6999999999999985E-003     9.6069932309231874E-019
  -5.3999999999999986E-003     6.6323065494655013E-019
  -5.1000000000000004E-003    -4.9419546946109502E-018
  -4.7999999999999987E-003     4.4374323182836944E-018
  -4.5000000000000005E-003    -5.2773891368596272E-018
  -4.1999999999999989E-003     3.4818467566161904E-018
  -3.8999999999999990E-003     6.1008117130612354E-017
  -3.5999999999999990E-003    -1.5809946314710343E-016
  -3.2999999999999991E-003     1.4486676122110577E-016
  -2.9999999999999992E-003    -6.9538956706952420E-017
  -2.6999999999999993E-003    -2.9307463301090241E-016
  -2.3999999999999994E-003     1.6059726514786494E-015
  -2.0999999999999977E-003    -3.0292918914468325E-015
  -1.7999999999999995E-003     3.2658315036962265E-015
  -1.4999999999999979E-003    -2.4441178820005607E-015
  -1.1999999999999997E-003    -5.6585454786115043E-015
  -8.9999999999999976E-004     3.0957472912825179E-014
  -5.9999999999999810E-004    -6.6903139304144609E-014
  -2.9999999999999992E-004     8.8599203370892062E-014
   0.0000000000000000         -1.7155530746417159E-014
   3.0000000000000165E-004    -3.1103698220162276E-013
   5.9999999999999984E-004     8.7142468498030144E-013
   9.0000000000000149E-004    -1.0444691618880752E-012
   1.2000000000000031E-003    -2.6932102728724329E-013
   1.5000000000000013E-003     3.6730730247909208E-012
   1.8000000000000030E-003    -7.0083908651087862E-012
   2.1000000000000012E-003     3.9706130388197222E-012
   2.3999999999999994E-003     1.0009842118775519E-011
   2.7000000000000010E-003    -2.6520441275301103E-011
   2.9999999999999992E-003     2.3365629725802791E-011
   3.3000000000000008E-003     1.5433950616661739E-011
   3.6000000000000025E-003    -6.8612911754032155E-011
   3.9000000000000007E-003     7.4214146312840287E-011
   4.2000000000000023E-003     6.2914225924065754E-012
   4.5000000000000005E-003    -1.1675422023620904E-010
   4.7999999999999987E-003     1.4794102626697489E-010
   5.1000000000000004E-003    -5.4724077536217422E-011
   5.4000000000000020E-003    -9.5353143355224194E-011
   5.7000000000000037E-003     1.8632812121259716E-010
   5.9999999999999984E-003    -1.7909855639842853E-010
   6.3000000000000000E-003     1.1768144294145680E-010
   6.6000000000000017E-003     3.0269657459989974E-011
   6.9000000000000034E-003    -3.1189434994216269E-010
   7.2000000000000015E-003     5.4593195505080080E-010
   7.5000000000000032E-003    -4.5065044190389296E-010
   7.8000000000000014E-003    -1.0561000128312923E-010
   8.0999999999999996E-003     9.5590024155264056E-010
   8.4000000000000012E-003    -1.3880457000861294E-009
   8.7000000000000029E-003     6.9918778163898391E-010
   9.0000000000000011E-003     8.0503683911648759E-010
   9.2999999999999992E-003    -2.1672175904970960E-009
   9.6000000000000009E-003     2.3665698995424972E-009
   9.8999999999999991E-003    -6.4087041735702434E-010
   1.0200000000000001E-002    -2.1804772355955962E-009
   1.0500000000000002E-002     4.0630359476153330E-009
   1.0800000000000004E-002    -3.6094128268193899E-009
   1.1099999999999999E-002    -4.0982441480346370E-011
   1.1400000000000000E-002     5.3403806316243671E-009
   1.1700000000000002E-002    -6.9255411343569314E-009
   1.2000000000000004E-002     2.6854918946254401E-009
   1.2300000000000002E-002     2.1500207248088495E-009
   1.2600000000000000E-002    -4.9136455941171690E-009
   1.2900000000000002E-002     1.0746625037931356E-008
   1.3200000000000000E-002    -1.2953925597143324E-008
   1.3500000000000002E-002    -1.0785957125050676E-008
   1.3800000000000003E-002     2.8368422343160882E-008
   1.4100000000000001E-002     1.1144972541766079E-008
   1.4400000000000000E-002    -1.0672909171201101E-008
   1.4700000000000001E-002    -5.5210441041087571E-008
   1.4999999999999999E-002    -2.7429392040241850E-008
   1.5300000000000001E-002     6.1883453598437924E-008
   1.5600000000000003E-002     1.0267879862841127E-006
   1.5899999999999997E-002     6.6229243204504909E-006
   1.6199999999999999E-002     1.9362616153900425E-005
   1.6500000000000001E-002     3.6162061560107283E-005
   1.6800000000000002E-002     5.1510555617234181E-005
   1.7100000000000004E-002     5.9253535129394779E-005
   1.7400000000000006E-002     6.0886565442445429E-005
   1.7700000000000000E-002     7.6814989489690894E-005
   1.8000000000000002E-002     1.2529940899240038E-004
   1.8300000000000004E-002     1.9353234868392364E-004
   1.8600000000000005E-002     2.5511593646061016E-004
   1.8900000000000000E-002     3.0426860901529670E-004
   1.9200000000000002E-002     3.6074779190281103E-004
   1.9500000000000003E-002     4.4435829295466850E-004
   1.9799999999999998E-002     5.3219729016921622E-004
   2.0100000000000000E-002     5.5078939909048916E-004
   2.0400000000000001E-002     4.0853532121981747E-004
   2.0700000000000003E-002     8.0995751772023938E-006
   2.0999999999999998E-002    -7.6637275664572793E-004
   2.1299999999999999E-002    -2.1104106686344595E-003
   2.1600000000000001E-002    -4.3403342384256182E-003
   2.1900000000000003E-002    -7.8305972981311533E-003
   2.2200000000000004E-002    -1.3044806858190516E-002
   2.2500000000000006E-002    -2.0607228896717077E-002
   2.2800000000000001E-002    -3.1206946178865037E-002
   2.3100000000000002E-002    -4.5558567155487555E-002
   2.3400000000000004E-002    -6.4442141523037608E-002
   2.3699999999999999E-002    -8.8598808321945749E-002
   2.4000000000000000E-002   -0.11859449501300631     
   2.4300000000000002E-002   -0.15471967737762077     
   2.4599999999999997E-002   -0.19679128720313979     
   2.4900000000000005E-002   -0.24398703372220892     
   2.5200000000000000E-002   -0.29471954097340275     
   2.5499999999999995E-002   -0.34633692385491244     
   2.5800000000000003E-002   -0.39501016515345777     
   2.6099999999999998E-002   -0.43581610013127736     
   2.6400000000000007E-002   -0.46265347825519887     
   2.6700000000000002E-002   -0.46844949330713015     
   2.6999999999999996E-002   -0.44555180312116632     
   2.7300000000000005E-002   -0.38621573794588254     
   2.7600000000000000E-002   -0.28330578748347041     
   2.7900000000000008E-002   -0.13116258023693383     
   2.8200000000000003E-002     7.3500096411026353E-002
   2.8499999999999998E-002    0.33067833834977156     
   2.8800000000000006E-002    0.63629977749639977     
   2.9100000000000001E-002    0.98159704761417310     
   2.9400000000000003E-002     1.3527413349221744     
   2.9700000000000004E-002     1.7310987377145479     
   3.0000000000000006E-002     2.0936643669361295     
   3.0300000000000001E-002     2.4143304350417032     
   3.0600000000000002E-002     2.6655220457552158     
   3.0900000000000004E-002     2.8201836976986052     
   3.1199999999999999E-002     2.8539895437522356     
   3.1500000000000007E-002     2.7479254641488491     
   3.1800000000000002E-002     2.4903063262293168     
   3.2099999999999997E-002     2.0788299602204154     
   3.2400000000000005E-002     1.5217616228955577     
   3.2700000000000000E-002    0.83826677019105422     
   3.3000000000000002E-002     5.8048873390579118E-002
   3.3300000000000003E-002   -0.77993099669216637     
   3.3599999999999998E-002    -1.6296921677657217     
   3.3900000000000000E-002    -2.4416284106518127     
   3.4200000000000001E-002    -3.1657819145989179     
   3.4500000000000003E-002    -3.7555290928917264     
   3.4799999999999998E-002    -4.1716512820965921     
   3.5099999999999999E-002    -4.3849300476083535     
   3.5400000000000001E-002    -4.3792022790261909     
   3.5699999999999996E-002    -4.1527279977374514     
   3.6000000000000004E-002    -3.7186435903384867     
   3.6299999999999999E-002    -3.1043900810702958     
   3.6600000000000008E-002    -2.3497025479968556     
   3.6900000000000002E-002    -1.5040211356728161     
   3.7199999999999997E-002   -0.62277363271584174     
   3.7500000000000006E-002    0.23605988655594368     
   3.7800000000000000E-002     1.0161702446889147     
   3.8100000000000009E-002     1.6672329581322116     
   3.8400000000000004E-002     2.1477536731003486     
   3.8699999999999998E-002     2.4281033981156068     
   3.9000000000000007E-002     2.4922358479541038     
   3.9300000000000002E-002     2.3388163553322991     
   3.9600000000000003E-002     1.9808188247545868     
   3.9900000000000005E-002     1.4444926644483678     
   4.0200000000000000E-002    0.76732704951715291     
   4.0500000000000001E-002    -4.7306291080405896E-003
   4.0800000000000003E-002   -0.82061045353265394     
   4.1100000000000005E-002    -1.6278873418618149     
   4.1399999999999999E-002    -2.3764721927913239     
   4.1700000000000008E-002    -3.0218793787206457     
   4.2000000000000003E-002    -3.5288302223086214     
   4.2299999999999997E-002    -3.8729604910582522     
   4.2600000000000006E-002    -4.0427879465620240     
   4.2900000000000001E-002    -4.0390538321376592     
   4.3200000000000002E-002    -3.8741182438037667     
   4.3500000000000004E-002    -3.5703710699335156     
   4.3799999999999999E-002    -3.1568884098217196     
   4.4100000000000000E-002    -2.6658827587724381     
   4.4400000000000002E-002    -2.1297149085362124     
   4.4700000000000004E-002    -1.5767261518914555     
   4.4999999999999998E-002    -1.0295176162076616     
   4.5300000000000000E-002   -0.50184039062104646     
   4.5600000000000002E-002     1.1892166668434987E-003
   4.5899999999999996E-002    0.48270007508965124     
   4.6200000000000005E-002    0.95235161113829159     
   4.6500000000000000E-002     1.4236967234132605     
   4.6799999999999994E-002     1.9110804320483337     
   4.7100000000000003E-002     2.4268636081341581     
   4.7399999999999998E-002     2.9782449430404454     
   4.7700000000000006E-002     3.5656215231888364     
   4.8000000000000001E-002     4.1815480135503345     
   4.8300000000000010E-002     4.8106340184406706     
   4.8600000000000004E-002     5.4307836198778103     
   4.8899999999999999E-002     6.0150865135656915     
   4.9200000000000008E-002     6.5353034496413009     
   4.9500000000000002E-002     6.9642342062652647     
   4.9800000000000011E-002     7.2777470084586202     
   5.0100000000000006E-002     7.4572175502574920     
   5.0400000000000000E-002     7.4908608011842315     
   5.0700000000000009E-002     7.3733566889683155     
   5.1000000000000004E-002     7.1070092905834459     
   5.1299999999999998E-002     6.7001375064114690     
   5.1600000000000007E-002     6.1673959722991105     
   5.1900000000000002E-002     5.5271939395111600     
   5.2200000000000010E-002     4.8005713707266757     
   5.2500000000000005E-002     4.0107030285016068     
   5.2800000000000000E-002     3.1822278038303176     
   5.3099999999999994E-002     2.3401991981898509     
   5.3400000000000003E-002     1.5109108462830283     
   5.3699999999999998E-002    0.71827446270069095     
   5.4000000000000006E-002    -1.4206462663011617E-002
   5.4300000000000001E-002   -0.66772972677682696     
   5.4599999999999996E-002    -1.2291126073208551     
   5.4900000000000004E-002    -1.6917991375421271     
   5.5199999999999999E-002    -2.0599884645326560     
   5.5499999999999994E-002    -2.3496822893444080     
   5.5800000000000002E-002    -2.5880095467192481     
   5.6099999999999997E-002    -2.8158952622509528     
   5.6400000000000006E-002    -3.0825917068840272     
   5.6700000000000000E-002    -3.4430276601448173     
   5.6999999999999995E-002    -3.9523920155109771     
   5.7300000000000004E-002    -4.6588624911005416     
   5.7599999999999998E-002    -5.5934675961836993     
   5.7900000000000007E-002    -6.7625497413184483     
   5.8200000000000002E-002    -8.1413067195830902     
   5.8499999999999996E-002    -9.6665914644266859     
   5.8800000000000005E-002    -11.237735546569821     
   5.9100000000000000E-002    -12.718583839562150     
   5.9400000000000008E-002    -13.942847015593900     
   5.9700000000000003E-002    -14.730760329389783     
   6.0000000000000012E-002    -14.900192970579241     
   6.0300000000000006E-002    -14.290945776241866     
   6.0600000000000001E-002    -12.785054003340388     
   6.0900000000000010E-002    -10.325839834425683     
   6.1200000000000004E-002    -6.9359444498029967     
   6.1500000000000013E-002    -2.7260548651258873     
   6.1800000000000008E-002     2.1037945426600557     
   6.2100000000000002E-002     7.2691634986948195     
   6.2399999999999997E-002     12.419318012088933     
   6.2700000000000006E-002     17.161601762092022     
   6.3000000000000000E-002     21.094306628844844     
   6.3300000000000009E-002     23.841834663649674     
   6.3600000000000004E-002     25.092448811009412     
   6.3899999999999998E-002     24.630275355487349     
   6.4199999999999993E-002     22.363065381493172     
   6.4500000000000002E-002     18.334865290645823     
   6.4800000000000010E-002     12.730922501008516     
   6.5100000000000005E-002     5.8669828388412748     
   6.5400000000000000E-002    -1.8338163942137564     
   6.5700000000000008E-002    -9.8715828516899045     
   6.5999999999999989E-002    -17.711288202122272     
   6.6299999999999998E-002    -24.826186776583771     
   6.6600000000000006E-002    -30.738097696579601     
   6.6900000000000001E-002    -35.056762178695578     
   6.7199999999999996E-002    -37.507468618646783     
   6.7500000000000004E-002    -37.946597481544771     
   6.7800000000000013E-002    -36.370910090359288     
   6.8099999999999994E-002    -32.906192270829322     
   6.8400000000000002E-002    -27.793530980195751     
   6.8700000000000011E-002    -21.361545217228155     
   6.8999999999999992E-002    -13.996712446667871     
   6.9300000000000000E-002    -6.1092919105095547     
   6.9600000000000009E-002     1.8932955245299787     
   6.9900000000000004E-002     9.6372364725020567     
   7.0199999999999999E-002     16.800252677611134     
   7.0500000000000007E-002     23.125566142147221     
   7.0800000000000016E-002     28.427012967074106     
   7.1099999999999997E-002     32.588756057997024     
   7.1400000000000005E-002     35.560546316366015     
   7.1700000000000000E-002     37.345912337801209     
   7.1999999999999995E-002     37.992976527840369     
   7.2300000000000003E-002     37.583422997981053     
   7.2600000000000012E-002     36.220389717480600     
   7.2900000000000006E-002     34.020499608880584     
   7.3200000000000001E-002     31.107516709165843     
   7.3499999999999996E-002     27.605567450916382     
   7.3800000000000004E-002     23.640082893202969     
   7.4099999999999999E-002     19.333251602718402     
   7.4400000000000008E-002     14.805533132763538     
   7.4700000000000003E-002     10.172381201391769     
   7.5000000000000011E-002     5.5426286432306000     
   7.5299999999999992E-002     1.0205974128569999     
   7.5600000000000001E-002    -3.2973782726196825     
   7.5900000000000009E-002    -7.3265131907820988     
   7.6200000000000004E-002    -10.990994287851256     
   7.6499999999999999E-002    -14.228978886219851     
   7.6800000000000007E-002    -16.989808760641306     
   7.7099999999999988E-002    -19.242427508614821     
   7.7399999999999997E-002    -20.968783982415726     
   7.7700000000000005E-002    -22.168292626095624     
   7.8000000000000014E-002    -22.853973001030983     
   7.8299999999999995E-002    -23.053586565248711     
   7.8600000000000003E-002    -22.806148135401905     
   7.8900000000000012E-002    -22.158582302007012     
   7.9199999999999993E-002    -21.165753947657919     
   7.9500000000000001E-002    -19.885036118807740     
   7.9800000000000010E-002    -18.376886043001107     
   8.0100000000000018E-002    -16.697944344293266     
   8.0399999999999999E-002    -14.899066658167349     
   8.0700000000000008E-002    -13.027819397591600     
   8.1000000000000003E-002    -11.119784151243298     
   8.1299999999999997E-002    -9.2045238691898330     
   8.1600000000000006E-002    -7.3055480531907779     
   8.1900000000000014E-002    -5.4382027532206347     
   8.2199999999999995E-002    -3.6158022155974705     
   8.2500000000000004E-002    -1.8467812125155532     
   8.2799999999999999E-002   -0.13974179650878396     
   8.3100000000000007E-002     1.4968436792793334     
   8.3400000000000002E-002     3.0533248945144158     
   8.3700000000000011E-002     4.5184268261340517     
   8.4000000000000005E-002     5.8760251067089833     
   8.4300000000000000E-002     7.1096319004110207     
   8.4599999999999995E-002     8.2016113844043854     
   8.4900000000000003E-002     9.1346987167875451     
   8.5199999999999998E-002     9.8916872282822776     
   8.5500000000000007E-002     10.458878341252454     
   8.5800000000000001E-002     10.823938186760429     
   8.6100000000000010E-002     10.980819514966473     
   8.6399999999999991E-002     10.927075198607589     
   8.6699999999999999E-002     10.666889960124175     
   8.7000000000000008E-002     10.211014569565101     
   8.7300000000000003E-002     9.5744817954395458     
   8.7599999999999997E-002     8.7823265413517237     
   8.7900000000000006E-002     7.8627041340986015     
   8.8200000000000014E-002     6.8486250561346589     
   8.8499999999999995E-002     5.7786296704298925     
   8.8800000000000004E-002     4.6900328682513752     
   8.9100000000000013E-002     3.6232859366701646     
   8.9399999999999993E-002     2.6148626257634366     
   8.9700000000000002E-002     1.6948449217419554     
   9.0000000000000011E-002    0.88831207543625312     
   9.0299999999999991E-002    0.20848743690015067     
   9.0600000000000000E-002   -0.33881733147540061     
   9.0900000000000009E-002   -0.75772332505050444     
   9.1200000000000017E-002    -1.0591798881743248     
   9.1499999999999998E-002    -1.2635153339826075     
   9.1800000000000007E-002    -1.3951732891949695     
   9.2100000000000001E-002    -1.4841637375296426     
   9.2399999999999996E-002    -1.5590852242538877     
   9.2700000000000005E-002    -1.6465068776648144     
   9.3000000000000013E-002    -1.7674290817870988     
   9.3300000000000008E-002    -1.9357790590176998     
   9.3600000000000003E-002    -2.1585623819940936     
   9.3899999999999997E-002    -2.4336683303209412     
   9.4200000000000006E-002    -2.7522448998759947     
   9.4500000000000001E-002    -3.0977093621982168     
   9.4800000000000009E-002    -3.4467558249614920     
   9.5100000000000004E-002    -3.7719997693446436     
   9.5399999999999999E-002    -4.0440840004424574     
   9.5699999999999993E-002    -4.2344388210272514     
   9.6000000000000002E-002    -4.3173312373361856     
   9.6300000000000011E-002    -4.2705444527450256     
   9.6600000000000005E-002    -4.0807384716461845     
   9.6900000000000000E-002    -3.7421442795364066     
   9.7200000000000009E-002    -3.2597643748142970     
   9.7499999999999989E-002    -2.6479131702286591     
   9.7799999999999998E-002    -1.9324383386424917     
   9.8100000000000007E-002    -1.1465463422885409     
   9.8400000000000015E-002   -0.33093082150393111     
   9.8699999999999996E-002    0.46796476223250510     
   9.9000000000000005E-002     1.2046317864609495     
   9.9300000000000013E-002     1.8356988126891616     
   9.9599999999999994E-002     2.3231961333599447     
   9.9900000000000003E-002     2.6397196789180879     
  0.10020000000000001          2.7701360689606611     
  0.10049999999999999          2.7136663906709013     
  0.10080000000000000          2.4860553293743251     
  0.10110000000000001          2.1171521757924192     
  0.10140000000000000          1.6486102037698553     
  0.10170000000000000          1.1316394582311229     
  0.10200000000000001         0.61885230306827665     
  0.10230000000000002         0.16435924951602648     
  0.10260000000000000        -0.18812403131664118     
  0.10290000000000001        -0.40303122550503190     
  0.10320000000000000        -0.46054767852135570     
  0.10350000000000001        -0.35725116018293451     
  0.10380000000000000        -0.10677645702660189     
  0.10410000000000001         0.25849348198911065     
  0.10440000000000001         0.69631158549555661     
  0.10470000000000000          1.1528487059269001     
  0.10500000000000000          1.5755364682172015     
  0.10530000000000000          1.9118081058468388     
  0.10560000000000000          2.1175138639169164     
  0.10590000000000001          2.1601495416742629     
  0.10620000000000000          2.0248787093740730     
  0.10650000000000001          1.7109007566520849     
  0.10679999999999999          1.2375938686777859     
  0.10710000000000000         0.63582556130361434     
  0.10740000000000001         -5.0463184769743007E-002
  0.10770000000000000        -0.77139955091897783     
  0.10800000000000000         -1.4744826369157100     
  0.10830000000000001         -2.1089939767654213     
  0.10859999999999999         -2.6282546114771859     
  0.10890000000000000         -2.9979366782007189     
  0.10920000000000001         -3.1944612947326942     
  0.10950000000000001         -3.2107426609844567     
  0.10979999999999999         -3.0502948266596324     
  0.11009999999999999         -2.7315585151494233     
  0.11040000000000001         -2.2788903300905790     
  0.11070000000000001         -1.7267703666361021     
  0.11100000000000000         -1.1121102324248753     
  0.11130000000000000        -0.47624494289632674     
  0.11160000000000002         0.14221815955121722     
  0.11190000000000001         0.70605348651698308     
  0.11220000000000001          1.1862164567801146     
  0.11250000000000000          1.5598566301702195     
  0.11280000000000000          1.8140082085975744     
  0.11309999999999999          1.9436247044667012     
  0.11340000000000001          1.9507420932639783     
  0.11369999999999998          1.8454782639365324     
  0.11400000000000000          1.6426553428085828     
  0.11430000000000000          1.3628908142454201     
  0.11460000000000002          1.0309636404090501     
  0.11489999999999999         0.67219792575368209     
  0.11520000000000001         0.31430595508250031     
  0.11550000000000001         -2.2638155859815788E-002
  0.11580000000000000        -0.31653639280707840     
  0.11609999999999999        -0.55563431164027111     
  0.11640000000000002        -0.72973887891327649     
  0.11670000000000001        -0.83456097503487769     
  0.11700000000000001        -0.87171809194588712     
  0.11730000000000000        -0.84666715409867699     
  0.11760000000000000        -0.77111570624291770     
  0.11789999999999999        -0.65891687965135948     
  0.11820000000000001        -0.52634596016678248     
  0.11850000000000001        -0.38911011257459571     
  0.11880000000000000        -0.26103612361455741     
  0.11910000000000000        -0.15370991574136833     
  0.11940000000000002         -7.4502981574645397E-002
  0.11970000000000001         -2.7580322394728067E-002
  0.12000000000000001         -1.5009699423567929E-002
  0.12030000000000000         -3.4266256436112842E-002
  0.12060000000000000         -8.0580438867743714E-002
  0.12089999999999999        -0.14390444797015392     
  0.12119999999999999        -0.21386107508712882     
  0.12150000000000001        -0.27783601956716708     
  0.12180000000000001        -0.32487505108526477     
  0.12210000000000000        -0.34620490168943246     
  0.12239999999999999        -0.33567744078798217     
  0.12270000000000002        -0.29183750917574974     
  0.12300000000000001        -0.21185218751135584     
  0.12330000000000001         -9.6979567443669215E-002
  0.12360000000000000          4.9359110028128469E-002
  0.12390000000000000         0.22127242474005318     
  0.12419999999999999         0.40681975623607630     
  0.12450000000000001         0.59251134627115876     
  0.12480000000000001         0.76680384792773115     
  0.12509999999999999         0.91589848720340206     
  0.12540000000000001          1.0308492034351764     
  0.12570000000000003          1.1033874587086137     
  0.12600000000000000          1.1286545814197257     
  0.12630000000000002          1.1012251183735455     
  0.12659999999999999          1.0217356484579361     
  0.12690000000000001         0.89151505831803823     
  0.12719999999999998         0.71867828132093703     
  0.12750000000000000         0.51376568309117154     
  0.12780000000000002         0.28840597957859160     
  0.12809999999999999          5.6165306813793281E-002
  0.12840000000000001        -0.17058479561923451     
  0.12869999999999998        -0.38035049495288081     
  0.12900000000000000        -0.56323175785357260     
  0.12930000000000003        -0.71077488716580906     
  0.12959999999999999        -0.81699524877499008     
  0.12990000000000002        -0.87704746315614812     
  0.13019999999999998        -0.88995258347992601     
  0.13050000000000000        -0.85647599351045967     
  0.13080000000000003        -0.78003798613937692     
  0.13109999999999999        -0.66743301297758395     
  0.13140000000000002        -0.52551310485480118     
  0.13169999999999998        -0.36102950043356297     
  0.13200000000000001        -0.18408916656748461     
  0.13229999999999997         -1.7830517311645065E-003
  0.13260000000000000         0.17569273195059162     
  0.13290000000000002         0.33811797810816052     
  0.13319999999999999         0.47867213529628294     
  0.13350000000000001         0.58963404798127661     
  0.13380000000000003         0.66739921428383686     
  0.13410000000000000         0.71179251487177275     
  0.13440000000000002         0.72179035930296798     
  0.13469999999999999         0.70097141041525024     
  0.13500000000000001         0.65302984577024925     
  0.13529999999999998         0.58319472154491503     
  0.13560000000000000         0.49981536631017326     
  0.13590000000000002         0.41005247286581342     
  0.13619999999999999         0.32108822122438208     
  0.13650000000000001         0.23941793802871394     
  0.13680000000000003         0.16774543978449286     
  0.13710000000000000         0.10724604860650087     
  0.13740000000000002          5.9543585144047985E-002
  0.13769999999999999          2.2626537355656555E-002
  0.13800000000000001         -4.0686610017788057E-003
  0.13829999999999998         -2.3673936440760976E-002
  0.13860000000000000         -4.0788431278264370E-002
  0.13890000000000002         -6.0457309080903049E-002
  0.13919999999999999         -8.6468254607429185E-002
  0.13950000000000001        -0.12125859839543006     
  0.13979999999999998        -0.16638536324815834     
  0.14010000000000000        -0.22223996622872833     
  0.14040000000000002        -0.28717258012822816     
  0.14069999999999999        -0.35889452119693915     
  0.14100000000000001        -0.43468739947540563     
  0.14130000000000004        -0.51016109437253554     
  0.14160000000000000        -0.57986872519107469     
  0.14189999999999997        -0.63824932739881657     
  0.14219999999999999        -0.67967228956723813     
  0.14250000000000002        -0.70057271726383596     
  0.14279999999999998        -0.69889609833713084     
  0.14310000000000000        -0.67340468252410446     
  0.14339999999999997        -0.62503032866609776     
  0.14369999999999999        -0.55790429402313435     
  0.14400000000000002        -0.47475092782434003     
  0.14429999999999998        -0.38234259959890271     
  0.14460000000000001        -0.28461416930341688     
  0.14490000000000003        -0.18733679797058345     
  0.14520000000000000         -9.5424373882340860E-002
  0.14550000000000002         -1.1696274650639117E-002
  0.14579999999999999          5.9768217543255918E-002
  0.14610000000000001         0.11929417977880538     
  0.14640000000000003         0.16718891036915745     
  0.14670000000000000         0.20504416227784453     
  0.14699999999999996         0.23558343553763214     
  0.14729999999999999         0.25951784333441746     
  0.14760000000000001         0.27832763787129694     
  0.14789999999999998         0.29346516114970578     
  0.14820000000000000         0.30511056753166216     