  -1.4999999999999999E-002     0.0000000000000000     
  -1.4700000000000000E-002     0.0000000000000000     
  -1.4400000000000000E-002     0.0000000000000000     
  -1.4100000000000000E-002     0.0000000000000000     
  -1.3800000000000000E-002     0.0000000000000000     
  -1.3500000000000000E-002     0.0000000000000000     
  -1.3200000000000000E-002     0.0000000000000000     
  -1.2899999999999998E-002     0.0000000000000000     
  -1.2600000000000000E-002     0.0000000000000000     
  -1.2299999999999998E-002     0.0000000000000000     
  -1.2000000000000000E-002     0.0000000000000000     
  -1.1699999999999999E-002     0.0000000000000000     
  -1.1399999999999999E-002     0.0000000000000000     
  -1.1099999999999999E-002     0.0000000000000000     
  -1.0799999999999999E-002     0.0000000000000000     
  -1.0499999999999999E-002     0.0000000000000000     
  -1.0199999999999999E-002     0.0000000000000000     
  -9.8999999999999991E-003     0.0000000000000000     
  -9.5999999999999992E-003     0.0000000000000000     
  -9.2999999999999992E-003     0.0000000000000000     
  -8.9999999999999993E-003     0.0000000000000000     
  -8.6999999999999994E-003     0.0000000000000000     
  -8.3999999999999995E-003     0.0000000000000000     
  -8.0999999999999996E-003     0.0000000000000000     
  -7.7999999999999988E-003     0.0000000000000000     
  -7.4999999999999997E-003     0.0000000000000000     
  -7.1999999999999998E-003     0.0000000000000000     
  -6.8999999999999981E-003     0.0000000000000000     
  -6.5999999999999982E-003     0.0000000000000000     
  -6.3000000000000000E-003     0.0000000000000000     
  -6.0000000000000001E-003     0.0000000000000000     
  -5.6999999999999985E-003     0.0000000000000000     
  -5.3999999999999986E-003     0.0000000000000000     
  -5.1000000000000004E-003     0.0000000000000000     
  -4.7999999999999987E-003     0.0000000000000000     
  -4.5000000000000005E-003     0.0000000000000000     
  -4.1999999999999989E-003     0.0000000000000000     
  -3.8999999999999990E-003     0.0000000000000000     
  -3.5999999999999990E-003     0.0000000000000000     
  -3.2999999999999991E-003     0.0000000000000000     
  -2.9999999999999992E-003     0.0000000000000000     
  -2.6999999999999993E-003     0.0000000000000000     
  -2.3999999999999994E-003     0.0000000000000000     
  -2.0999999999999977E-003     0.0000000000000000     
  -1.7999999999999995E-003     0.0000000000000000     
  -1.4999999999999979E-003     0.0000000000000000     
  -1.1999999999999997E-003     0.0000000000000000     
  -8.9999999999999976E-004     0.0000000000000000     
  -5.9999999999999810E-004     0.0000000000000000     
  -2.9999999999999992E-004     0.0000000000000000     
   0.0000000000000000          0.0000000000000000     
   3.0000000000000165E-004     0.0000000000000000     
   5.9999999999999984E-004     0.0000000000000000     
   9.0000000000000149E-004     0.0000000000000000     
   1.2000000000000031E-003     0.0000000000000000     
   1.5000000000000013E-003     0.0000000000000000     
   1.8000000000000030E-003     0.0000000000000000     
   2.1000000000000012E-003     0.0000000000000000     
   2.3999999999999994E-003     0.0000000000000000     
   2.7000000000000010E-003     0.0000000000000000     
   2.9999999999999992E-003     0.0000000000000000     
   3.3000000000000008E-003     0.0000000000000000     
   3.6000000000000025E-003     0.0000000000000000     
   3.9000000000000007E-003     0.0000000000000000     
   4.2000000000000023E-003     0.0000000000000000     
   4.5000000000000005E-003     0.0000000000000000     
   4.7999999999999987E-003     0.0000000000000000     
   5.1000000000000004E-003     0.0000000000000000     
   5.4000000000000020E-003     0.0000000000000000     
   5.7000000000000037E-003     0.0000000000000000     
   5.9999999999999984E-003     0.0000000000000000     
   6.3000000000000000E-003     0.0000000000000000     
   6.6000000000000017E-003     0.0000000000000000     
   6.9000000000000034E-003     0.0000000000000000     
   7.2000000000000015E-003     0.0000000000000000     
   7.5000000000000032E-003     0.0000000000000000     
   7.8000000000000014E-003     0.0000000000000000     
   8.0999999999999996E-003     0.0000000000000000     
   8.4000000000000012E-003     0.0000000000000000     
   8.7000000000000029E-003     0.0000000000000000     
   9.0000000000000011E-003     0.0000000000000000     
   9.2999999999999992E-003     0.0000000000000000     
   9.6000000000000009E-003     0.0000000000000000     
   9.8999999999999991E-003     0.0000000000000000     
   1.0200000000000001E-002     0.0000000000000000     
   1.0500000000000002E-002     0.0000000000000000     
   1.0800000000000004E-002     0.0000000000000000     
   1.1099999999999999E-002     0.0000000000000000     
   1.1400000000000000E-002     0.0000000000000000     
   1.1700000000000002E-002     0.0000000000000000     
   1.2000000000000004E-002     0.0000000000000000     
   1.2300000000000002E-002     0.0000000000000000     
   1.2600000000000000E-002     0.0000000000000000     
   1.2900000000000002E-002     0.0000000000000000     
   1.3200000000000000E-002     0.0000000000000000     
   1.3500000000000002E-002     0.0000000000000000     
   1.3800000000000003E-002     0.0000000000000000     
   1.4100000000000001E-002     0.0000000000000000     
   1.4400000000000000E-002     0.0000000000000000     
   1.4700000000000001E-002     0.0000000000000000     
   1.4999999999999999E-002     0.0000000000000000     
   1.5300000000000001E-002     0.0000000000000000     
   1.5600000000000003E-002     0.0000000000000000     
   1.5899999999999997E-002     0.0000000000000000     
   1.6199999999999999E-002     0.0000000000000000     
   1.6500000000000001E-002     0.0000000000000000     
   1.6800000000000002E-002     0.0000000000000000     
   1.7100000000000004E-002     0.0000000000000000     
   1.7400000000000006E-002     0.0000000000000000     
   1.7700000000000000E-002     0.0000000000000000     
   1.8000000000000002E-002     0.0000000000000000     
   1.8300000000000004E-002     0.0000000000000000     
   1.8600000000000005E-002     0.0000000000000000     
   1.8900000000000000E-002     0.0000000000000000     
   1.9200000000000002E-002     0.0000000000000000     
   1.9500000000000003E-002    -3.4310128420967392E-038
   1.9799999999999998E-002    -2.0976601454441025E-037
   2.0100000000000000E-002     1.7530332159085715E-036
   2.0400000000000001E-002    -5.6894926601850015E-036
   2.0700000000000003E-002     1.1685093781862136E-035
   2.0999999999999998E-002    -3.8826194847941004E-035
   2.1299999999999999E-002     6.2216521629278793E-036
   2.1600000000000001E-002     1.4555882230268140E-034
   2.1900000000000003E-002    -8.9059901179083665E-035
   2.2200000000000004E-002     1.8356478165892622E-034
   2.2500000000000006E-002     5.8449510020743043E-034
   2.2800000000000001E-002    -1.3653650521658107E-033
   2.3100000000000002E-002     1.1571689796569221E-033
   2.3400000000000004E-002    -2.7409905492340097E-033
   2.3699999999999999E-002    -7.0209176479117538E-034
   2.4000000000000000E-002     1.5367938363953871E-032
   2.4300000000000002E-002    -3.0598813656002480E-032
   2.4599999999999997E-002     2.0797396619070845E-032
   2.4900000000000005E-002     3.5179740479508026E-032
   2.5200000000000000E-002    -1.3606559246374551E-031
   2.5499999999999995E-002     2.2942931944995062E-031
   2.5800000000000003E-002    -1.7354134144860157E-031
   2.6099999999999998E-002    -2.2537159104166356E-031
   2.6400000000000007E-002     9.9202144773030304E-031
   2.6700000000000002E-002    -1.6069168699348306E-030
   2.6999999999999996E-002     8.4783239885474857E-031
   2.7300000000000005E-002     2.6133899509152193E-030
   2.7600000000000000E-002    -8.7830349184001019E-030
   2.7900000000000008E-002     1.4075538862038084E-029
   2.8200000000000003E-002    -4.1676121583461808E-030
   2.8499999999999998E-002    -6.8149701491462339E-029
   2.8800000000000006E-002     3.1014668641917394E-028
   2.9100000000000001E-002    -8.3104705994622966E-028
   2.9400000000000003E-002     1.5223572916266746E-027
   2.9700000000000004E-002    -2.3768984853668743E-027
   3.0000000000000006E-002     7.2698374473218096E-027
   3.0300000000000001E-002    -3.5262668903047141E-026
   3.0600000000000002E-002     1.3283238674124760E-025
   3.0900000000000004E-002    -3.4409269922878324E-025
   3.1199999999999999E-002     5.5173767760494692E-025
   3.1500000000000007E-002    -1.5514191245996504E-025
   3.1800000000000002E-002    -2.1103398228771834E-024
   3.2099999999999997E-002     7.2489414183049028E-024
   3.2400000000000005E-002    -1.2634054963773341E-023
   3.2700000000000000E-002     6.5607463454158578E-024
   3.3000000000000002E-002     3.0553307925718171E-023
   3.3300000000000003E-002    -7.7900769085708618E-023
   3.3599999999999998E-002    -1.5854201319911439E-022
   3.3900000000000000E-002     1.8970931582771851E-021
   3.4200000000000001E-002    -7.7467505658802714E-021
   3.4500000000000003E-002     1.6775347113794289E-020
   3.4799999999999998E-002    -5.9664055549030425E-022
   3.5099999999999999E-002    -1.3847265602545389E-019
   3.5400000000000001E-002     5.1097377995797195E-019
   3.5699999999999996E-002    -7.5288441454474416E-019
   3.6000000000000004E-002    -9.8409518431040133E-019
   3.6299999999999999E-002     7.6029534124228832E-018
   3.6600000000000008E-002    -1.5799363025598420E-017
   3.6900000000000002E-002     7.5913354286656204E-019
   3.7199999999999997E-002     8.0226299734343374E-017
   3.7500000000000006E-002    -2.0108681766728196E-016
   3.7800000000000000E-002     9.8299648147934754E-017
   3.8100000000000009E-002     6.7505417257845501E-016
   3.8400000000000004E-002    -1.8885218818253293E-015
   3.8699999999999998E-002     1.1887424330811487E-015
   3.9000000000000007E-002     5.0797052156544042E-015
   3.9300000000000002E-002    -1.4524374108076650E-014
   3.9600000000000003E-002     8.4711955396288537E-015
   3.9900000000000005E-002     3.8348510228029722E-014
   4.0200000000000000E-002    -1.0279186618331680E-013
   4.0500000000000001E-002     5.3788108125277047E-014
   4.0800000000000003E-002     2.6124028291905263E-013
   4.1100000000000005E-002    -7.0401792211199873E-013
   4.1399999999999999E-002     6.2620567333648601E-013
   4.1700000000000008E-002     8.5137076663527891E-013
   4.2000000000000003E-002    -4.5201153362324266E-012
   4.2299999999999997E-002     1.0170627399045093E-011
   4.2600000000000006E-002    -9.0921752244213183E-012
   4.2900000000000001E-002    -2.8355223502508424E-011
   4.3200000000000002E-002     1.2470907796899851E-010
   4.3500000000000004E-002    -1.7754021335113448E-010
   4.3799999999999999E-002    -1.2296799934351532E-010
   4.4100000000000000E-002     1.0641034246656051E-009
   4.4400000000000002E-002    -2.2354055455803170E-009
   4.4700000000000004E-002     8.6236887840628121E-010
   4.4999999999999998E-002     1.0444988662626560E-008
   4.5300000000000000E-002    -3.1917636083495404E-008
   4.5600000000000002E-002    -1.6689237412912188E-010
   4.5899999999999996E-002     1.8010598642428131E-007
   4.6200000000000005E-002    -2.7136435174297074E-007
   4.6500000000000000E-002    -6.1120048907511302E-007
   4.6799999999999994E-002     4.6486381430564546E-006
   4.7100000000000003E-002     1.9407859879473857E-005
   4.7399999999999998E-002     3.7741988535428146E-005
   4.7700000000000006E-002     5.1697413554363744E-005
   4.8000000000000001E-002     6.3530879948005124E-005
   4.8300000000000010E-002     8.4739106410003763E-005
   4.8600000000000004E-002     1.2926442121761480E-004
   4.8899999999999999E-002     2.0550199875535142E-004
   4.9200000000000008E-002     3.1304955959038784E-004
   4.9500000000000002E-002     4.5734169509667726E-004
   4.9800000000000011E-002     6.6095529249285846E-004
   5.0100000000000006E-002     9.4875536031736396E-004
   5.0400000000000000E-002     1.3380378821450517E-003
   5.0700000000000009E-002     1.8511384047380022E-003
   5.1000000000000004E-002     2.5163697430445010E-003
   5.1299999999999998E-002     3.3570271379880648E-003
   5.1600000000000007E-002     4.3904326537321688E-003
   5.1900000000000002E-002     5.6184378659625937E-003
   5.2200000000000010E-002     7.0145013690341308E-003
   5.2500000000000005E-002     8.5281143434926508E-003
   5.2800000000000000E-002     1.0073613335109029E-002
   5.3099999999999994E-002     1.1496767276388811E-002
   5.3400000000000003E-002     1.2568027949734304E-002
   5.3699999999999998E-002     1.2993279033661473E-002
   5.4000000000000006E-002     1.2396967284361779E-002
   5.4300000000000001E-002     1.0320198224304557E-002
   5.4599999999999996E-002     6.2557807023136125E-003
   5.4900000000000004E-002    -3.2145093948700407E-004
   5.5199999999999999E-002    -9.9143290670498947E-003
   5.5499999999999994E-002    -2.2926608602366276E-002
   5.5800000000000002E-002    -3.9568689262858038E-002
   5.6099999999999997E-002    -5.9760168816460901E-002
   5.6400000000000006E-002    -8.3051545462659776E-002
   5.6700000000000000E-002   -0.10853130489931742     
   5.6999999999999995E-002   -0.13470708742264667     
   5.7300000000000004E-002   -0.15950702110048837     
   5.7599999999999998E-002   -0.18038614565155936     
   5.7900000000000007E-002   -0.19436392928012414     
   5.8200000000000002E-002   -0.19814124269452243     
   5.8499999999999996E-002   -0.18844601813361148     
   5.8800000000000005E-002   -0.16235364186712059     
   5.9100000000000000E-002   -0.11759216008220336     
   5.9400000000000008E-002    -5.3000465322382326E-002
   5.9700000000000003E-002     3.1116909616336143E-002
   6.0000000000000012E-002    0.13281108089303184     
   6.0300000000000006E-002    0.24826851477824358     
   6.0600000000000001E-002    0.37173642264020468     
   6.0900000000000010E-002    0.49586611003549075     
   6.1200000000000004E-002    0.61209466883536590     
   6.1500000000000013E-002    0.71110288577357550     
   6.1800000000000008E-002    0.78365797223062406     
   6.2100000000000002E-002    0.82146248062930427     
   6.2399999999999997E-002    0.81787438088081676     
   6.2700000000000006E-002    0.76876149984376818     
   6.3000000000000000E-002    0.67310967539065159     
   6.3300000000000009E-002    0.53326518843112702     
   6.3600000000000004E-002    0.35508956752937521     
   6.3899999999999998E-002    0.14776940194822616     
   6.4199999999999993E-002    -7.6878377130779302E-002
   6.4500000000000002E-002   -0.30518459665565512     
   6.4800000000000010E-002   -0.52261910683805479     
   6.5100000000000005E-002   -0.71496520208278214     
   6.5400000000000000E-002   -0.86949688395939351     
   6.5700000000000008E-002   -0.97597250972220384     
   6.5999999999999989E-002    -1.0274353871186843     
   6.6299999999999998E-002    -1.0208294961224975     
   6.6600000000000006E-002   -0.95726394131663817     
   6.6900000000000001E-002   -0.84191062503036707     
   6.7199999999999996E-002   -0.68354288492269533     
   6.7500000000000004E-002   -0.49386505702723538     
   6.7800000000000013E-002   -0.28662517244067820     
   6.8099999999999994E-002    -7.6573698698606932E-002
   6.8400000000000002E-002    0.12161132239162420     
   6.8700000000000011E-002    0.29442084956885423     
   6.8999999999999992E-002    0.43041824440309800     
   6.9300000000000000E-002    0.52094787822556310     
   6.9600000000000009E-002    0.56069550990854755     
   6.9900000000000004E-002    0.54801536973817710     
   7.0199999999999999E-002    0.48495365400585821     
   7.0500000000000007E-002    0.37696193694215074     
   7.0800000000000016E-002    0.23242880500779411     
   7.1099999999999997E-002     6.2069493233111256E-002
   7.1400000000000005E-002   -0.12181323368214163     
   7.1700000000000000E-002   -0.30636128661258599     
   7.1999999999999995E-002   -0.47896136568947290     
   7.2300000000000003E-002   -0.62812934475294591     
   7.2600000000000012E-002   -0.74435058249434238     
   7.2900000000000006E-002   -0.82054379924121568     
   7.3200000000000001E-002   -0.85260655366764515     
   7.3499999999999996E-002   -0.83971619965227384     
   7.3800000000000004E-002   -0.78391591556737494     
   7.4099999999999999E-002   -0.69004198087586244     
   7.4400000000000008E-002   -0.56535372679215701     
   7.4700000000000003E-002   -0.41850400062119741     
   7.5000000000000011E-002   -0.25885315284410304     
   7.5299999999999992E-002    -9.5908213850510640E-002
   7.5600000000000001E-002     6.1897076784769259E-002
   7.5900000000000009E-002    0.20771162711691904     
   7.6200000000000004E-002    0.33653508976329971     
   7.6499999999999999E-002    0.44581620071403050     
   7.6800000000000007E-002    0.53534158011745048     
   7.7099999999999988E-002    0.60673505156188878     
   7.7399999999999997E-002    0.66322079555882829     
   7.7700000000000005E-002    0.70888387290714072     
   7.8000000000000014E-002    0.74763976390384668     
   7.8299999999999995E-002    0.78284739811177850     
   7.8600000000000003E-002    0.81635260077195593     
   7.8900000000000012E-002    0.84813246291720945     
   7.9199999999999993E-002    0.87616903480432073     
   7.9500000000000001E-002    0.89640098352696784     
   7.9800000000000010E-002    0.90300889710983245     
   8.0100000000000018E-002    0.88963536555627432     
   8.0399999999999999E-002    0.84992291267536357     
   8.0700000000000008E-002    0.77806030275003302     
   8.1000000000000003E-002    0.67055710226054310     
   8.1299999999999997E-002    0.52652154361675318     
   8.1600000000000006E-002    0.34807658722770235     
   8.1900000000000014E-002    0.14086175777997320     
   8.2199999999999995E-002    -8.6544320404307470E-002
   8.2500000000000004E-002   -0.32286850640988807     
   8.2799999999999999E-002   -0.55512442690570507     
   8.3100000000000007E-002   -0.76984411903368499     
   8.3400000000000002E-002   -0.95426164549116277     
   8.3700000000000011E-002    -1.0971953125246219     
   8.4000000000000005E-002    -1.1901424910480427     
   8.4300000000000000E-002    -1.2282291754685200     
   8.4599999999999995E-002    -1.2100447208816747     
   8.4900000000000003E-002    -1.1378367994094023     
   8.5199999999999998E-002    -1.0172304691347838     
   8.5500000000000007E-002   -0.85613604529521337     
   8.5800000000000001E-002   -0.66412519971142658     
   8.6100000000000010E-002   -0.45143697284251993     
   8.6399999999999991E-002   -0.22781269888463723     
   8.6699999999999999E-002    -1.9629200384488343E-003
   8.7000000000000008E-002    0.21898970098392337     
   8.7300000000000003E-002    0.42962581831740870     
   8.7599999999999997E-002    0.62630473386497876     
   8.7900000000000006E-002    0.80675758867478620     
   8.8200000000000014E-002    0.96910204625668528     
   8.8499999999999995E-002     1.1115132445602134     
   8.8800000000000004E-002     1.2315718076954121     
   8.9100000000000013E-002     1.3257015293048804     
   8.9399999999999993E-002     1.3890021944551547     
   8.9700000000000002E-002     1.4151424234356895     
   9.0000000000000011E-002     1.3972365914804035     
   9.0299999999999991E-002     1.3281824954967327     
   9.0600000000000000E-002     1.2019325726962395     
   9.0900000000000009E-002     1.0144827677722947     
   9.1200000000000017E-002    0.76476426038359868     
   9.1499999999999998E-002    0.45561182963031688     
   9.1800000000000007E-002     9.4383729138535932E-002
   9.2100000000000001E-002   -0.30714638990560139     
   9.2399999999999996E-002   -0.73316296812149018     
   9.2700000000000005E-002    -1.1646356658903358     
   9.3000000000000013E-002    -1.5803694687791665     
   9.3300000000000008E-002    -1.9585093045312116     
   9.3600000000000003E-002    -2.2784363447924525     
   9.3899999999999997E-002    -2.5221077975146180     
   9.4200000000000006E-002    -2.6749926725000988     
   9.4500000000000001E-002    -2.7277703700100702     
   9.4800000000000009E-002    -2.6765627651767523     
   9.5100000000000004E-002    -2.5229887935561282     
   9.5399999999999999E-002    -2.2741336963262029     
   9.5699999999999993E-002    -1.9415552831516671     
   9.6000000000000002E-002    -1.5406507424794600     
   9.6300000000000011E-002    -1.0895859502064382     
   9.6600000000000005E-002   -0.60781672672463194     
   9.6900000000000000E-002   -0.11521918325529759     
   9.7200000000000009E-002    0.36891689991064003     
   9.7499999999999989E-002    0.82688900306199864     
   9.7799999999999998E-002     1.2430271146070393     
   9.8100000000000007E-002     1.6042833941952270     
   9.8400000000000015E-002     1.9006651002977328     
   9.8699999999999996E-002     2.1251796352702534     
   9.9000000000000005E-002     2.2737684379078082     
   9.9300000000000013E-002     2.3459006598570662     
   9.9599999999999994E-002     2.3438232674281192     
   9.9900000000000003E-002     2.2725118856514142     
  0.10020000000000001          2.1397258324153476     
  0.10049999999999999          1.9552939689581370     
  0.10080000000000000          1.7305936909367450     
  0.10110000000000001          1.4784101930907450     
  0.10140000000000000          1.2120993801544580     
  0.10170000000000000         0.94466977112538286     
  0.10200000000000001         0.68852894975906076     
  0.10230000000000002         0.45472271200232550     
  0.10260000000000000         0.25211961871934707     
  0.10290000000000001          8.7536308561265971E-002
  0.10320000000000000         -3.5112299611134233E-002
  0.10350000000000001        -0.11499522703975948     
  0.10380000000000000        -0.15345374458567079     
  0.10410000000000001        -0.15459433749041759     
  0.10440000000000001        -0.12496846169524262     
  0.10470000000000000         -7.2542657547176786E-002
  0.10500000000000000         -6.4560387490868107E-003
  0.10530000000000000          6.3459545778556684E-002
  0.10560000000000000         0.12713453020073121     
  0.10590000000000001         0.17514956396980888     
  0.10620000000000000         0.19911645551124924     
  0.10650000000000001         0.19168648058969043     
  0.10679999999999999         0.14734945349749048     
  0.10710000000000000          6.2713264257401785E-002
  0.10740000000000001         -6.3459006439422622E-002
  0.10770000000000000        -0.22987161285964497     
  0.10800000000000000        -0.43276122177684301     
  0.10830000000000001        -0.66582523002984939     
  0.10859999999999999        -0.91958901260142367     
  0.10890000000000000         -1.1826697239159825     
  0.10920000000000001         -1.4420498774585537     
  0.10950000000000001         -1.6825671540026814     
  0.10979999999999999         -1.8887576707622009     
  0.11009999999999999         -2.0451063274050201     
  0.11040000000000001         -2.1375018647945359     
  0.11070000000000001         -2.1542770971018772     
  0.11100000000000000         -2.0867174581058472     
  0.11130000000000000         -1.9305003913643324     
  0.11160000000000002         -1.6860358215325200     
  0.11190000000000001         -1.3595505455426746     
  0.11220000000000001        -0.96220170598763999     
  0.11250000000000000        -0.51005632665835110     
  0.11280000000000000         -2.3644290851443317E-002
  0.11309999999999999         0.47312930034264689     
  0.11340000000000001         0.95475897883033167     
  0.11369999999999998          1.3957547897378009     
  0.11400000000000000          1.7718450648918427     
  0.11430000000000000          2.0618454238760986     
  0.11460000000000002          2.2489692084234054     
  0.11489999999999999          2.3225104838005679     
  0.11520000000000001          2.2781847149274270     
  0.11550000000000001          2.1186270765683068     
  0.11580000000000000          1.8531635072552817     
  0.11609999999999999          1.4973669493114581     
  0.11640000000000002          1.0723814482785980     
  0.11670000000000001         0.60288402033659261     
  0.11700000000000001         0.11578512148514444     
  0.11730000000000000        -0.36142551757710401     
  0.11760000000000000        -0.80231913632437613     
  0.11789999999999999         -1.1832196121619170     
  0.11820000000000001         -1.4848495493933433     
  0.11850000000000001         -1.6926732317536743     
  0.11880000000000000         -1.7981172679381396     
  0.11910000000000000         -1.7982648405003090     
  0.11940000000000002         -1.6962312807431328     
  0.11970000000000001         -1.5005608896648692     
  0.12000000000000001         -1.2241627667538042     
  0.12030000000000000        -0.88386400023216449     
  0.12060000000000000        -0.49941744099857854     
  0.12089999999999999         -9.2222583102137989E-002
  0.12119999999999999         0.31562773984842563     
  0.12150000000000001         0.70223685571415195     
  0.12180000000000001          1.0472121040396640     
  0.12210000000000000          1.3322240999892667     
  0.12239999999999999          1.5420613784071311     
  0.12270000000000002          1.6655564603417776     
  0.12300000000000001          1.6959344272049222     
  0.12330000000000001          1.6312464268388744     
  0.12360000000000000          1.4749199673301594     
  0.12390000000000000          1.2353270952186040     
  0.12419999999999999         0.92562248636317235     
  0.12450000000000001         0.56300376860338530     
  0.12480000000000001         0.16743455334180085     
  0.12509999999999999        -0.23903057529695099     
  0.12540000000000001        -0.63384818264108489     
  0.12570000000000003        -0.99547197772693319     
  0.12600000000000000         -1.3049351666880864     
  0.12630000000000002         -1.5465006843833793     
  0.12659999999999999         -1.7090282218057191     
  0.12690000000000001         -1.7862769885967520     
  0.12719999999999998         -1.7772647368652152     
  0.12750000000000000         -1.6864870397125373     
  0.12780000000000002         -1.5227451385136885     
  0.12809999999999999         -1.2989212826424548     
  0.12840000000000001         -1.0313106932925606     
  0.12869999999999998        -0.73784075712317421     
  0.12900000000000000        -0.43766499622025634     
  0.12930000000000003        -0.14950488145772148     
  0.12959999999999999         0.10900512382890482     
  0.12990000000000002         0.32247995130762308     
  0.13019999999999998         0.47886961996251320     
  0.13050000000000000         0.57026860455386341     
  0.13080000000000003         0.59301997032191101     
  0.13109999999999999         0.54877693964560248     
  0.13140000000000002         0.44471036438895051     
  0.13169999999999998         0.29241707752849416     
  0.13200000000000001         0.10826853330817324     
  0.13229999999999997         -8.8014082337501687E-002
  0.13260000000000000        -0.27422259148893674     
  0.13290000000000002        -0.42771651189202098     
  0.13319999999999999        -0.52741030081830209     
  0.13350000000000001        -0.55529973435250468     
  0.13380000000000003        -0.49821554319021977     
  0.13410000000000000        -0.34922547129061737     
  0.13440000000000002        -0.10950968156050628     
  0.13469999999999999         0.21239734876264776     
  0.13500000000000001         0.60071445904371668     
  0.13529999999999998          1.0327631757460858     
  0.13560000000000000          1.4810462376109554     
  0.13590000000000002          1.9151014664170010     
  0.13619999999999999          2.3041722885499598     
  0.13650000000000001          2.6195057399307689     
  0.13680000000000003          2.8358159477073785     
  0.13710000000000000          2.9335980837759683     
  0.13740000000000002          2.9008861773835153     
  0.13769999999999999          2.7333241978687122     
  0.13800000000000001          2.4335477470338733     
  0.13829999999999998          2.0121138375051157     
  0.13860000000000000          1.4859842292237180     
  0.13890000000000002         0.87682492287726377     
  0.13919999999999999         0.21040764599571349     
  0.13950000000000001        -0.48524216081995075     
  0.13979999999999998         -1.1803352539056795     
  0.14010000000000000         -1.8451043914927081     
  0.14040000000000002         -2.4509494767382947     
  0.14069999999999999         -2.9707090260184716     
  0.14100000000000001         -3.3793367315780189     
  0.14130000000000004         -3.6551504156359980     
  0.14160000000000000         -3.7813360536206755     
  0.14189999999999997         -3.7454531351504095     
  0.14219999999999999         -3.5417156675776615     
  0.14250000000000002         -3.1707403128715050     
  0.14279999999999998         -2.6414209491207683     
  0.14310000000000000         -1.9708179594964008     
  0.14339999999999997         -1.1839547862507240     
  0.14369999999999999        -0.31325372701917387     
  0.14400000000000002         0.60269934706775941     
  0.14429999999999998          1.5206683983453197     
  0.14460000000000001          2.3961748768448037     
  0.14490000000000003          3.1855197457850077     
  0.14520000000000000          3.8492478895373861     
  0.14550000000000002          4.3545545884440191     
  0.14579999999999999          4.6779554058927264     
  0.14610000000000001          4.8073069108511621     
  0.14640000000000003          4.7417831997535504     
  0.14670000000000000          4.4924052523591920     
  0.14699999999999996          4.0804459647749933     
  0.14729999999999999          3.5357298461266859     
  0.14760000000000001          2.8936511072409430     
  0.14789999999999998          2.1918716449972218     
  0.14820000000000000          1.4679458534284553     