  -1.4999999999999999E-002     0.0000000000000000     
  -1.4700000000000000E-002     0.0000000000000000     
  -1.4400000000000000E-002     0.0000000000000000     
  -1.4100000000000000E-002     0.0000000000000000     
  -1.3800000000000000E-002     0.0000000000000000     
  -1.3500000000000000E-002     0.0000000000000000     
  -1.3200000000000000E-002     0.0000000000000000     
  -1.2899999999999998E-002     0.0000000000000000     
  -1.2600000000000000E-002     0.0000000000000000     
  -1.2299999999999998E-002     0.0000000000000000     
  -1.2000000000000000E-002     0.0000000000000000     
  -1.1699999999999999E-002     0.0000000000000000     
  -1.1399999999999999E-002     0.0000000000000000     
  -1.1099999999999999E-002     0.0000000000000000     
  -1.0799999999999999E-002     0.0000000000000000     
  -1.0499999999999999E-002     0.0000000000000000     
  -1.0199999999999999E-002     0.0000000000000000     
  -9.8999999999999991E-003     0.0000000000000000     
  -9.5999999999999992E-003     0.0000000000000000     
  -9.2999999999999992E-003     0.0000000000000000     
  -8.9999999999999993E-003     0.0000000000000000     
  -8.6999999999999994E-003     0.0000000000000000     
  -8.3999999999999995E-003     0.0000000000000000     
  -8.0999999999999996E-003     0.0000000000000000     
  -7.7999999999999988E-003     0.0000000000000000     
  -7.4999999999999997E-003     0.0000000000000000     
  -7.1999999999999998E-003     0.0000000000000000     
  -6.8999999999999981E-003     0.0000000000000000     
  -6.5999999999999982E-003     0.0000000000000000     
  -6.3000000000000000E-003     0.0000000000000000     
  -6.0000000000000001E-003     0.0000000000000000     
  -5.6999999999999985E-003     0.0000000000000000     
  -5.3999999999999986E-003     0.0000000000000000     
  -5.1000000000000004E-003     0.0000000000000000     
  -4.7999999999999987E-003     0.0000000000000000     
  -4.5000000000000005E-003     0.0000000000000000     
  -4.1999999999999989E-003     0.0000000000000000     
  -3.8999999999999990E-003     0.0000000000000000     
  -3.5999999999999990E-003     0.0000000000000000     
  -3.2999999999999991E-003     0.0000000000000000     
  -2.9999999999999992E-003     0.0000000000000000     
  -2.6999999999999993E-003     0.0000000000000000     
  -2.3999999999999994E-003     0.0000000000000000     
  -2.0999999999999977E-003     0.0000000000000000     
  -1.7999999999999995E-003     0.0000000000000000     
  -1.4999999999999979E-003     0.0000000000000000     
  -1.1999999999999997E-003     0.0000000000000000     
  -8.9999999999999976E-004     0.0000000000000000     
  -5.9999999999999810E-004     0.0000000000000000     
  -2.9999999999999992E-004     0.0000000000000000     
   0.0000000000000000          0.0000000000000000     
   3.0000000000000165E-004     0.0000000000000000     
   5.9999999999999984E-004     0.0000000000000000     
   9.0000000000000149E-004     0.0000000000000000     
   1.2000000000000031E-003     0.0000000000000000     
   1.5000000000000013E-003     0.0000000000000000     
   1.8000000000000030E-003     0.0000000000000000     
   2.1000000000000012E-003     0.0000000000000000     
   2.3999999999999994E-003     0.0000000000000000     
   2.7000000000000010E-003     0.0000000000000000     
   2.9999999999999992E-003     0.0000000000000000     
   3.3000000000000008E-003     0.0000000000000000     
   3.6000000000000025E-003     0.0000000000000000     
   3.9000000000000007E-003     0.0000000000000000     
   4.2000000000000023E-003     0.0000000000000000     
   4.5000000000000005E-003     0.0000000000000000     
   4.7999999999999987E-003     0.0000000000000000     
   5.1000000000000004E-003     0.0000000000000000     
   5.4000000000000020E-003     0.0000000000000000     
   5.7000000000000037E-003     0.0000000000000000     
   5.9999999999999984E-003     0.0000000000000000     
   6.3000000000000000E-003     0.0000000000000000     
   6.6000000000000017E-003     0.0000000000000000     
   6.9000000000000034E-003     0.0000000000000000     
   7.2000000000000015E-003     0.0000000000000000     
   7.5000000000000032E-003     0.0000000000000000     
   7.8000000000000014E-003     0.0000000000000000     
   8.0999999999999996E-003     0.0000000000000000     
   8.4000000000000012E-003     0.0000000000000000     
   8.7000000000000029E-003     0.0000000000000000     
   9.0000000000000011E-003     0.0000000000000000     
   9.2999999999999992E-003     0.0000000000000000     
   9.6000000000000009E-003     0.0000000000000000     
   9.8999999999999991E-003     0.0000000000000000     
   1.0200000000000001E-002     0.0000000000000000     
   1.0500000000000002E-002     0.0000000000000000     
   1.0800000000000004E-002     0.0000000000000000     
   1.1099999999999999E-002     0.0000000000000000     
   1.1400000000000000E-002     0.0000000000000000     
   1.1700000000000002E-002     0.0000000000000000     
   1.2000000000000004E-002     0.0000000000000000     
   1.2300000000000002E-002     0.0000000000000000     
   1.2600000000000000E-002     0.0000000000000000     
   1.2900000000000002E-002     0.0000000000000000     
   1.3200000000000000E-002     0.0000000000000000     
   1.3500000000000002E-002     0.0000000000000000     
   1.3800000000000003E-002     0.0000000000000000     
   1.4100000000000001E-002     0.0000000000000000     
   1.4400000000000000E-002     0.0000000000000000     
   1.4700000000000001E-002     0.0000000000000000     
   1.4999999999999999E-002     0.0000000000000000     
   1.5300000000000001E-002     0.0000000000000000     
   1.5600000000000003E-002     0.0000000000000000     
   1.5899999999999997E-002     0.0000000000000000     
   1.6199999999999999E-002     0.0000000000000000     
   1.6500000000000001E-002     0.0000000000000000     
   1.6800000000000002E-002     0.0000000000000000     
   1.7100000000000004E-002     0.0000000000000000     
   1.7400000000000006E-002     0.0000000000000000     
   1.7700000000000000E-002     0.0000000000000000     
   1.8000000000000002E-002     0.0000000000000000     
   1.8300000000000004E-002     0.0000000000000000     
   1.8600000000000005E-002     0.0000000000000000     
   1.8900000000000000E-002     0.0000000000000000     
   1.9200000000000002E-002     0.0000000000000000     
   1.9500000000000003E-002     0.0000000000000000     
   1.9799999999999998E-002     0.0000000000000000     
   2.0100000000000000E-002     0.0000000000000000     
   2.0400000000000001E-002     0.0000000000000000     
   2.0700000000000003E-002     0.0000000000000000     
   2.0999999999999998E-002     0.0000000000000000     
   2.1299999999999999E-002     0.0000000000000000     
   2.1600000000000001E-002     0.0000000000000000     
   2.1900000000000003E-002     0.0000000000000000     
   2.2200000000000004E-002     0.0000000000000000     
   2.2500000000000006E-002     0.0000000000000000     
   2.2800000000000001E-002     0.0000000000000000     
   2.3100000000000002E-002     0.0000000000000000     
   2.3400000000000004E-002     0.0000000000000000     
   2.3699999999999999E-002     3.0304989092675228E-036
   2.4000000000000000E-002     2.0434407726878376E-036
   2.4300000000000002E-002    -2.6141763192667306E-035
   2.4599999999999997E-002     7.6921405842214929E-035
   2.4900000000000005E-002    -1.5213022891376458E-034
   2.5200000000000000E-002     1.4973348317615928E-034
   2.5499999999999995E-002    -6.1955233320680046E-034
   2.5800000000000003E-002    -9.9181004235936218E-034
   2.6099999999999998E-002     5.6352736327519827E-033
   2.6400000000000007E-002    -1.3698939331414311E-032
   2.6700000000000002E-002     2.5909129761191580E-032
   2.6999999999999996E-002    -3.7968828996072764E-032
   2.7300000000000005E-002     6.2009930725862737E-032
   2.7600000000000000E-002    -1.8374695276093256E-031
   2.7900000000000008E-002     6.6576445335657478E-031
   2.8200000000000003E-002    -2.0926304658197190E-030
   2.8499999999999998E-002     5.3804659717363136E-030
   2.8800000000000006E-002    -1.1121673668384047E-029
   2.9100000000000001E-002     1.6779959548496527E-029
   2.9400000000000003E-002    -7.1995985868089701E-030
   2.9700000000000004E-002    -7.4221253474083323E-029
   3.0000000000000006E-002     4.0852132645562068E-028
   3.0300000000000001E-002    -1.5354447592678072E-027
   3.0600000000000002E-002     4.9809860076640539E-027
   3.0900000000000004E-002    -1.4725211998293752E-026
   3.1199999999999999E-002     3.9858830424884462E-026
   3.1500000000000007E-002    -9.7234853429098008E-026
   3.1800000000000002E-002     2.0800294848795686E-025
   3.2099999999999997E-002    -3.7240994278313370E-025
   3.2400000000000005E-002     4.9585370754909247E-025
   3.2700000000000000E-002    -2.3359611074746188E-025
   3.3000000000000002E-002    -1.2739259538150754E-024
   3.3300000000000003E-002     5.8158640075369734E-024
   3.3599999999999998E-002    -1.6925802737865650E-023
   3.3900000000000000E-002     4.2617677134593233E-023
   3.4200000000000001E-002    -1.0633158377847335E-022
   3.4500000000000003E-002     2.8000709969773544E-022
   3.4799999999999998E-002    -7.2771603140006703E-022
   3.5099999999999999E-002     1.5504336349828142E-021
   3.5400000000000001E-002    -1.7080615239011208E-021
   3.5699999999999996E-002    -3.7594357176512094E-021
   3.6000000000000004E-002     2.5069931511315740E-020
   3.6299999999999999E-002    -6.2709673761593146E-020
   3.6600000000000008E-002     5.6803733434935240E-020
   3.6900000000000002E-002     1.5237341552413883E-019
   3.7199999999999997E-002    -6.2083901288439124E-019
   3.7500000000000006E-002     6.0619104010336080E-019
   3.7800000000000000E-002     1.7963984760390671E-018
   3.8100000000000009E-002    -6.4688964972994985E-018
   3.8400000000000004E-002     2.3476758904071763E-018
   3.8699999999999998E-002     3.3802232806167044E-017
   3.9000000000000007E-002    -8.9854353540589650E-017
   3.9300000000000002E-002     4.7096272638257928E-018
   3.9600000000000003E-002     5.3607164102640009E-016
   3.9900000000000005E-002    -1.4226104696384370E-015
   4.0200000000000000E-002     7.6561084640829665E-016
   4.0500000000000001E-002     5.4733337816453148E-015
   4.0800000000000003E-002    -1.8170210277254455E-014
   4.1100000000000005E-002     2.1475304038320528E-014
   4.1399999999999999E-002     2.5641483023235850E-014
   4.1700000000000008E-002    -1.5642199449779348E-013
   4.2000000000000003E-002     2.9630161171856351E-013
   4.2299999999999997E-002    -1.5180424191990616E-013
   4.2600000000000006E-002    -7.5057332311195823E-013
   4.2900000000000001E-002     2.6270075524637004E-012
   4.3200000000000002E-002    -4.1433961296688526E-012
   4.3500000000000004E-002     1.8439492554395143E-013
   4.3799999999999999E-002     1.7154656167805982E-011
   4.4100000000000000E-002    -4.2886555418064631E-011
   4.4400000000000002E-002     3.0187914668022842E-011
   4.4700000000000004E-002     9.1659506373797939E-011
   4.4999999999999998E-002    -2.7160326765418574E-010
   4.5300000000000000E-002     1.9665637174259842E-010
   4.5600000000000002E-002     4.0031414294539047E-010
   4.5899999999999996E-002    -9.3898711028828075E-010
   4.6200000000000005E-002     8.4357139329416242E-011
   4.6500000000000000E-002     1.2564029816530820E-009
   4.6799999999999994E-002     3.4151397265702599E-009
   4.7100000000000003E-002    -1.2901232082640490E-008
   4.7399999999999998E-002    -2.2269073696179476E-008
   4.7700000000000006E-002     1.2960694562025310E-007
   4.8000000000000001E-002    -4.7495642974126895E-009
   4.8300000000000010E-002    -8.3970724062965019E-007
   4.8600000000000004E-002     9.4663118943572044E-007
   4.8899999999999999E-002     1.0182007827097550E-005
   4.9200000000000008E-002     2.4070042854873464E-005
   4.9500000000000002E-002     3.5037759516853839E-005
   4.9800000000000011E-002     4.3389707570895553E-005
   5.0100000000000006E-002     5.7309931435156614E-005
   5.0400000000000000E-002     8.5069026681594551E-005
   5.0700000000000009E-002     1.3264034350868315E-004
   5.1000000000000004E-002     2.0251245587132871E-004
   5.1299999999999998E-002     2.9702953179366887E-004
   5.1600000000000007E-002     4.2945580207742751E-004
   5.1900000000000002E-002     6.2137778149917722E-004
   5.2200000000000010E-002     8.8514271192252636E-004
   5.2500000000000005E-002     1.2296950444579124E-003
   5.2800000000000000E-002     1.6778543358668685E-003
   5.3099999999999994E-002     2.2523605730384588E-003
   5.3400000000000003E-002     2.9609794728457928E-003
   5.3699999999999998E-002     3.8049400318413973E-003
   5.4000000000000006E-002     4.7738491557538509E-003
   5.4300000000000001E-002     5.8290092274546623E-003
   5.4599999999999996E-002     6.9058653898537159E-003
   5.4900000000000004E-002     7.9022999852895737E-003
   5.5199999999999999E-002     8.6512966081500053E-003
   5.5499999999999994E-002     8.9294519275426865E-003
   5.5800000000000002E-002     8.4657231345772743E-003
   5.6099999999999997E-002     6.9229309447109699E-003
   5.6400000000000006E-002     3.9040537085384130E-003
   5.6700000000000000E-002    -1.0073604062199593E-003
   5.6999999999999995E-002    -8.1961099058389664E-003
   5.7300000000000004E-002    -1.7984159290790558E-002
   5.7599999999999998E-002    -3.0582401901483536E-002
   5.7900000000000007E-002    -4.5984990894794464E-002
   5.8200000000000002E-002    -6.3855491578578949E-002
   5.8499999999999996E-002    -8.3496734499931335E-002
   5.8800000000000005E-002   -0.10382020473480225     
   5.9100000000000000E-002   -0.12325028330087662     
   5.9400000000000008E-002   -0.13973103463649750     
   5.9700000000000003E-002   -0.15083369612693787     
   6.0000000000000012E-002   -0.15387699007987976     
   6.0300000000000006E-002   -0.14612270891666412     
   6.0600000000000001E-002   -0.12502945959568024     
   6.0900000000000010E-002    -8.8559791445732117E-002
   6.1200000000000004E-002    -3.5542625933885574E-002
   6.1500000000000013E-002     3.4062951803207397E-002
   6.1800000000000008E-002    0.11889252811670303     
   6.2100000000000002E-002    0.21593344211578369     
   6.2399999999999997E-002    0.32055658102035522     
   6.2700000000000006E-002    0.42666614055633545     
   6.3000000000000000E-002    0.52691847085952759     
   6.3300000000000009E-002    0.61318600177764893     
   6.3600000000000004E-002    0.67726927995681763     
   6.3899999999999998E-002    0.71159046888351440     
   6.4199999999999993E-002    0.70987433195114136     
   6.4500000000000002E-002    0.66794151067733765     
   6.4800000000000010E-002    0.58432120084762573     
   6.5100000000000005E-002    0.46063649654388428     
   6.5400000000000000E-002    0.30171054601669312     
   6.5700000000000008E-002    0.11548870801925659     
   6.5999999999999989E-002    -8.7429925799369812E-002
   6.6299999999999998E-002   -0.29453894495964050     
   6.6600000000000006E-002   -0.49228811264038086     
   6.6900000000000001E-002   -0.66724830865859985     
   6.7199999999999996E-002   -0.80717182159423828     
   6.7500000000000004E-002   -0.90208971500396729     
   6.7800000000000013E-002   -0.94508314132690430     
   6.8099999999999994E-002   -0.93302541971206665     
   6.8400000000000002E-002   -0.86687827110290527     
   6.8700000000000011E-002   -0.75164818763732910     
   6.8999999999999992E-002   -0.59596794843673706     
   6.9300000000000000E-002   -0.41141030192375183     
   6.9600000000000009E-002   -0.21170435845851898     
   6.9900000000000004E-002    -1.1560419574379921E-002
   7.0199999999999999E-002    0.17449510097503662     
   7.0500000000000007E-002    0.33329862356185913     
   7.0800000000000016E-002    0.45385047793388367     
   7.1099999999999997E-002    0.52808201313018799     
   7.1400000000000005E-002    0.55168694257736206     
   7.1700000000000000E-002    0.52403312921524048     
   7.1999999999999995E-002    0.44825872778892517     
   7.2300000000000003E-002    0.33087834715843201     
   7.2600000000000012E-002    0.18115276098251343     
   7.2900000000000006E-002     1.0491053573787212E-002
   7.3200000000000001E-002   -0.16865615546703339     
   7.3499999999999996E-002   -0.34359496831893921     
   7.3800000000000004E-002   -0.50241762399673462     
   7.4099999999999999E-002   -0.63477677106857300     
   7.4400000000000008E-002   -0.73256009817123413     
   7.4700000000000003E-002   -0.79033023118972778     
   7.5000000000000011E-002   -0.80566066503524780     
   7.5299999999999992E-002   -0.77916872501373291     
   7.5600000000000001E-002   -0.71414214372634888     
   7.5900000000000009E-002   -0.61639338731765747     
   7.6200000000000004E-002   -0.49339190125465393     
   7.6499999999999999E-002   -0.35365286469459534     
   7.6800000000000007E-002   -0.20616014301776886     
   7.7099999999999988E-002    -5.9516541659832001E-002
   7.7399999999999997E-002     7.8938387334346771E-002
   7.7700000000000005E-002    0.20342090725898743     
   7.8000000000000014E-002    0.30994984507560730     
   7.8299999999999995E-002    0.39696726202964783     
   7.8600000000000003E-002    0.46487480401992798     
   7.8900000000000012E-002    0.51579552888870239     
   7.9199999999999993E-002    0.55350297689437866     
   7.9500000000000001E-002    0.58233875036239624     
   7.9800000000000010E-002    0.60693228244781494     
   8.0100000000000018E-002    0.63131684064865112     
   8.0399999999999999E-002    0.65830188989639282     
   8.0700000000000008E-002    0.68933439254760742     
   8.1000000000000003E-002    0.72392940521240234     
   8.1299999999999997E-002    0.75946903228759766     
   8.1600000000000006E-002    0.79172360897064209     
   8.1900000000000014E-002    0.81514710187911987     
   8.2199999999999995E-002    0.82338780164718628     
   8.2500000000000004E-002    0.81000822782516479     
   8.2799999999999999E-002    0.76920771598815918     
   8.3100000000000007E-002    0.69667124748229980     
   8.3400000000000002E-002    0.59028023481369019     
   8.3700000000000011E-002    0.45038390159606934     
   8.4000000000000005E-002    0.27980935573577881     
   8.4300000000000000E-002     8.4300674498081207E-002
   8.4599999999999995E-002   -0.12796670198440552     
   8.4900000000000003E-002   -0.34714734554290771     
   8.5199999999999998E-002   -0.56230425834655762     
   8.5500000000000007E-002   -0.76211768388748169     
   8.5800000000000001E-002   -0.93583279848098755     
   8.6100000000000010E-002    -1.0741494894027710     
   8.6399999999999991E-002    -1.1699023246765137     
   8.6699999999999999E-002    -1.2183846235275269     
   8.7000000000000008E-002    -1.2175208330154419     
   8.7300000000000003E-002    -1.1684073209762573     
   8.7599999999999997E-002    -1.0743627548217773     
   8.7900000000000006E-002   -0.94087409973144531     
   8.8200000000000014E-002   -0.77492445707321167     
   8.8499999999999995E-002   -0.58431357145309448     
   8.8800000000000004E-002   -0.37741056084632874     
   8.9100000000000013E-002   -0.16178633272647858     
   8.9399999999999993E-002     5.5682908743619919E-002
   8.9700000000000002E-002    0.26905217766761780     
   9.0000000000000011E-002    0.47315528988838196     
   9.0299999999999991E-002    0.66401749849319458     
   9.0600000000000000E-002    0.83857262134552002     
   9.0900000000000009E-002    0.99370950460433960     
   9.1200000000000017E-002     1.1261670589447021     
   9.1499999999999998E-002     1.2323293685913086     
   9.1800000000000007E-002     1.3083140850067139     
   9.2100000000000001E-002     1.3495641946792603     
   9.2399999999999996E-002     1.3506495952606201     
   9.2700000000000005E-002     1.3065862655639648     
   9.3000000000000013E-002     1.2129201889038086     
   9.3300000000000008E-002     1.0664049386978149     
   9.3600000000000003E-002    0.86559158563613892     
   9.3899999999999997E-002    0.61181282997131348     
   9.4200000000000006E-002    0.30952265858650208     
   9.4500000000000001E-002    -3.3867679536342621E-002
   9.4800000000000009E-002   -0.40685573220252991     
   9.5100000000000004E-002   -0.79545545578002930     
   9.5399999999999999E-002    -1.1834021806716919     
   9.5699999999999993E-002    -1.5525883436203003     
   9.6000000000000002E-002    -1.8849607706069946     
   9.6300000000000011E-002    -2.1629710197448730     
   9.6600000000000005E-002    -2.3712713718414307     
   9.6900000000000000E-002    -2.4979281425476074     
   9.7200000000000009E-002    -2.5343692302703857     
   9.7499999999999989E-002    -2.4769299030303955     
   9.7799999999999998E-002    -2.3264532089233398     
   9.8100000000000007E-002    -2.0880084037780762     
   9.8400000000000015E-002    -1.7713013887405396     
   9.8699999999999996E-002    -1.3887227773666382     
   9.9000000000000005E-002   -0.95559459924697876     
   9.9300000000000013E-002   -0.48885679244995117     
   9.9599999999999994E-002    -5.6170597672462463E-003
   9.9900000000000003E-002    0.47619348764419556     
  0.10020000000000001         0.94014722108840942     
  0.10049999999999999          1.3708221912384033     
  0.10080000000000000          1.7543601989746094     
  0.10110000000000001          2.0789606571197510     
  0.10140000000000000          2.3346040248870850     
  0.10170000000000000          2.5140607357025146     
  0.10200000000000001          2.6127352714538574     
  0.10230000000000002          2.6283593177795410     
  0.10260000000000000          2.5618345737457275     
  0.10290000000000001          2.4175786972045898     
  0.10320000000000000          2.2031409740447998     
  0.10350000000000001          1.9293081760406494     
  0.10380000000000000          1.6097081899642944     
  0.10410000000000001          1.2603689432144165     
  0.10440000000000001         0.89902853965759277     
  0.10470000000000000         0.54383653402328491     
  0.10500000000000000         0.21194514632225037     
  0.10530000000000000         -8.1040129065513611E-002
  0.10560000000000000        -0.32224792242050171     
  0.10590000000000001        -0.50356560945510864     
  0.10620000000000000        -0.62092423439025879     
  0.10650000000000001        -0.67499047517776489     
  0.10679999999999999        -0.67067921161651611     
  0.10710000000000000        -0.61726611852645874     
  0.10740000000000001        -0.52705502510070801     
  0.10770000000000000        -0.41331940889358521     
  0.10800000000000000        -0.29051408171653748     
  0.10830000000000001        -0.17227660119533539     
  0.10859999999999999         -7.0406697690486908E-002
  0.10890000000000000          5.0487047992646694E-003
  0.10920000000000001          4.7526694834232330E-002
  0.10950000000000001          5.3552832454442978E-002
  0.10979999999999999          2.1129384636878967E-002
  0.11009999999999999         -4.8341557383537292E-002
  0.11040000000000001        -0.15180107951164246     
  0.11070000000000001        -0.28498625755310059     
  0.11100000000000000        -0.44193062186241150     
  0.11130000000000000        -0.61670500040054321     
  0.11160000000000002        -0.80249369144439697     
  0.11190000000000001        -0.99155139923095703     
  0.11220000000000001         -1.1754690408706665     
  0.11250000000000000         -1.3453547954559326     
  0.11280000000000000         -1.4924120903015137     
  0.11309999999999999         -1.6070647239685059     
  0.11340000000000001         -1.6795858144760132     
  0.11369999999999998         -1.7017080783843994     
  0.11400000000000000         -1.6664915084838867     
  0.11430000000000000         -1.5694320201873779     
  0.11460000000000002         -1.4086176156997681     
  0.11489999999999999         -1.1854704618453979     
  0.11520000000000001        -0.90590322017669678     
  0.11550000000000001        -0.57958269119262695     
  0.11580000000000000        -0.21952234208583832     
  0.11609999999999999         0.15826773643493652     
  0.11640000000000002         0.53547894954681396     
  0.11670000000000001         0.89234834909439087     
  0.11700000000000001          1.2099291086196899     
  0.11730000000000000          1.4709849357604980     
  0.11760000000000000          1.6599998474121094     
  0.11789999999999999          1.7665936946868896     
  0.11820000000000001          1.7848454713821411     
  0.11850000000000001          1.7140862941741943     
  0.11880000000000000          1.5593866109848022     
  0.11910000000000000          1.3314154148101807     
  0.11940000000000002          1.0460054874420166     
  0.11970000000000001         0.72280108928680420     
  0.12000000000000001         0.38376396894454956     
  0.12030000000000000          5.2178964018821716E-002
  0.12060000000000000        -0.24898786842823029     
  0.12089999999999999        -0.49905207753181458     
  0.12119999999999999        -0.68142765760421753     
  0.12150000000000001        -0.78524291515350342     
  0.12180000000000001        -0.80454802513122559     
  0.12210000000000000        -0.74015051126480103     
  0.12239999999999999        -0.59975188970565796     
  0.12270000000000002        -0.39667001366615295     
  0.12300000000000001        -0.14880523085594177     
  0.12330000000000001         0.12258129566907883     
  0.12360000000000000         0.39483246207237244     
  0.12390000000000000         0.64511078596115112     
  0.12419999999999999         0.85168927907943726     
  0.12450000000000001         0.99694252014160156     
  0.12480000000000001          1.0678782463073730     
  0.12509999999999999          1.0556820631027222     
  0.12540000000000001         0.95789569616317749     
  0.12570000000000003         0.77741962671279907     
  0.12600000000000000         0.52264863252639771     
  0.12630000000000002         0.20720402896404266     
  0.12659999999999999        -0.15212959051132202     
  0.12690000000000001        -0.53507411479949951     
  0.12719999999999998        -0.91997194290161133     
  0.12750000000000000         -1.2845615148544312     
  0.12780000000000002         -1.6067837476730347     
  0.12809999999999999         -1.8677849769592285     
  0.12840000000000001         -2.0510876178741455     
  0.12869999999999998         -2.1440296173095703     
  0.12900000000000000         -2.1402618885040283     
  0.12930000000000003         -2.0372033119201660     
  0.12959999999999999         -1.8392702341079712     
  0.12990000000000002         -1.5559985637664795     
  0.13019999999999998         -1.2011660337448120     
  0.13050000000000000        -0.79356843233108521     
  0.13080000000000003        -0.35347414016723633     
  0.13109999999999999          9.6328519284725189E-002
  0.13140000000000002         0.53342461585998535     
  0.13169999999999998         0.93678909540176392     
  0.13200000000000001          1.2881548404693604     
  0.13229999999999997          1.5723277330398560     
  0.13260000000000000          1.7779884338378906     
  0.13290000000000002          1.8977293968200684     
  0.13319999999999999          1.9290741682052612     
  0.13350000000000001          1.8733059167861938     
  0.13380000000000003          1.7345819473266602     
  0.13410000000000000          1.5204472541809082     
  0.13440000000000002          1.2410305738449097     
  0.13469999999999999         0.90875756740570068     
  0.13500000000000001         0.53786569833755493     
  0.13529999999999998         0.14330323040485382     
  0.13560000000000000        -0.25818625092506409     
  0.13590000000000002        -0.64921617507934570     
  0.13619999999999999         -1.0127335786819458     
  0.13650000000000001         -1.3310307264328003     
  0.13680000000000003         -1.5889633893966675     
  0.13710000000000000         -1.7724596261978149     
  0.13740000000000002         -1.8698469400405884     
  0.13769999999999999         -1.8739480972290039     
  0.13800000000000001         -1.7813000679016113     
  0.13829999999999998         -1.5937055349349976     
  0.13860000000000000         -1.3170675039291382     
  0.13890000000000002        -0.96282035112380981     
  0.13919999999999999        -0.54581522941589355     
  0.13950000000000001         -8.5386969149112701E-002
  0.13979999999999998         0.39719432592391968     
  0.14010000000000000         0.88000625371932983     
  0.14040000000000002          1.3402584791183472     
  0.14069999999999999          1.7572886943817139     
  0.14100000000000001          2.1123659610748291     
  0.14130000000000004          2.3903405666351318     
  0.14160000000000000          2.5801990032196045     
  0.14189999999999997          2.6750190258026123     
  0.14219999999999999          2.6722624301910400     
  0.14250000000000002          2.5737981796264648     
  0.14279999999999998          2.3848373889923096     
  0.14310000000000000          2.1142349243164062     
  0.14339999999999997          1.7732111215591431     
  0.14369999999999999          1.3746261596679688     
  0.14400000000000002         0.93343305587768555     
  0.14429999999999998         0.46505901217460632     
  0.14460000000000001         -1.5161570161581039E-002
  0.14490000000000003        -0.49072498083114624     
  0.14520000000000000        -0.94597291946411133     
  0.14550000000000002         -1.3658087253570557     
  0.14579999999999999         -1.7355314493179321     
  0.14610000000000001         -2.0426051616668701     
  0.14640000000000003         -2.2748346328735352     
  0.14670000000000000         -2.4229433536529541     
  0.14699999999999996         -2.4807622432708740     
  0.14729999999999999         -2.4447267055511475     
  0.14760000000000001         -2.3151185512542725     
  0.14789999999999998         -2.0959692001342773     
  0.14820000000000000         -1.7950526475906372     