  -1.4999999999999999E-002     0.0000000000000000     
  -1.4700000000000000E-002     0.0000000000000000     
  -1.4400000000000000E-002     0.0000000000000000     
  -1.4100000000000000E-002     0.0000000000000000     
  -1.3800000000000000E-002     0.0000000000000000     
  -1.3500000000000000E-002     0.0000000000000000     
  -1.3200000000000000E-002     0.0000000000000000     
  -1.2899999999999998E-002     0.0000000000000000     
  -1.2600000000000000E-002     0.0000000000000000     
  -1.2299999999999998E-002     0.0000000000000000     
  -1.2000000000000000E-002     0.0000000000000000     
  -1.1699999999999999E-002     0.0000000000000000     
  -1.1399999999999999E-002     0.0000000000000000     
  -1.1099999999999999E-002     0.0000000000000000     
  -1.0799999999999999E-002     0.0000000000000000     
  -1.0499999999999999E-002     0.0000000000000000     
  -1.0199999999999999E-002     0.0000000000000000     
  -9.8999999999999991E-003     0.0000000000000000     
  -9.5999999999999992E-003     0.0000000000000000     
  -9.2999999999999992E-003     0.0000000000000000     
  -8.9999999999999993E-003     0.0000000000000000     
  -8.6999999999999994E-003     0.0000000000000000     
  -8.3999999999999995E-003     0.0000000000000000     
  -8.0999999999999996E-003     0.0000000000000000     
  -7.7999999999999988E-003     0.0000000000000000     
  -7.4999999999999997E-003     0.0000000000000000     
  -7.1999999999999998E-003     0.0000000000000000     
  -6.8999999999999981E-003     0.0000000000000000     
  -6.5999999999999982E-003     0.0000000000000000     
  -6.3000000000000000E-003     0.0000000000000000     
  -6.0000000000000001E-003     0.0000000000000000     
  -5.6999999999999985E-003     0.0000000000000000     
  -5.3999999999999986E-003     0.0000000000000000     
  -5.1000000000000004E-003     0.0000000000000000     
  -4.7999999999999987E-003     0.0000000000000000     
  -4.5000000000000005E-003     0.0000000000000000     
  -4.1999999999999989E-003     0.0000000000000000     
  -3.8999999999999990E-003     0.0000000000000000     
  -3.5999999999999990E-003     0.0000000000000000     
  -3.2999999999999991E-003     0.0000000000000000     
  -2.9999999999999992E-003     0.0000000000000000     
  -2.6999999999999993E-003     0.0000000000000000     
  -2.3999999999999994E-003     0.0000000000000000     
  -2.0999999999999977E-003     0.0000000000000000     
  -1.7999999999999995E-003     0.0000000000000000     
  -1.4999999999999979E-003     0.0000000000000000     
  -1.1999999999999997E-003     0.0000000000000000     
  -8.9999999999999976E-004     0.0000000000000000     
  -5.9999999999999810E-004     0.0000000000000000     
  -2.9999999999999992E-004     0.0000000000000000     
   0.0000000000000000          0.0000000000000000     
   3.0000000000000165E-004     0.0000000000000000     
   5.9999999999999984E-004     0.0000000000000000     
   9.0000000000000149E-004     0.0000000000000000     
   1.2000000000000031E-003     0.0000000000000000     
   1.5000000000000013E-003     0.0000000000000000     
   1.8000000000000030E-003     0.0000000000000000     
   2.1000000000000012E-003     0.0000000000000000     
   2.3999999999999994E-003     0.0000000000000000     
   2.7000000000000010E-003     0.0000000000000000     
   2.9999999999999992E-003     0.0000000000000000     
   3.3000000000000008E-003     0.0000000000000000     
   3.6000000000000025E-003     0.0000000000000000     
   3.9000000000000007E-003     0.0000000000000000     
   4.2000000000000023E-003     0.0000000000000000     
   4.5000000000000005E-003     0.0000000000000000     
   4.7999999999999987E-003     0.0000000000000000     
   5.1000000000000004E-003     0.0000000000000000     
   5.4000000000000020E-003     0.0000000000000000     
   5.7000000000000037E-003     0.0000000000000000     
   5.9999999999999984E-003     0.0000000000000000     
   6.3000000000000000E-003     0.0000000000000000     
   6.6000000000000017E-003     0.0000000000000000     
   6.9000000000000034E-003     0.0000000000000000     
   7.2000000000000015E-003     0.0000000000000000     
   7.5000000000000032E-003     0.0000000000000000     
   7.8000000000000014E-003     0.0000000000000000     
   8.0999999999999996E-003     0.0000000000000000     
   8.4000000000000012E-003     0.0000000000000000     
   8.7000000000000029E-003     0.0000000000000000     
   9.0000000000000011E-003     0.0000000000000000     
   9.2999999999999992E-003     0.0000000000000000     
   9.6000000000000009E-003     0.0000000000000000     
   9.8999999999999991E-003     0.0000000000000000     
   1.0200000000000001E-002     0.0000000000000000     
   1.0500000000000002E-002     0.0000000000000000     
   1.0800000000000004E-002     0.0000000000000000     
   1.1099999999999999E-002     0.0000000000000000     
   1.1400000000000000E-002     0.0000000000000000     
   1.1700000000000002E-002     0.0000000000000000     
   1.2000000000000004E-002     0.0000000000000000     
   1.2300000000000002E-002     0.0000000000000000     
   1.2600000000000000E-002     0.0000000000000000     
   1.2900000000000002E-002     0.0000000000000000     
   1.3200000000000000E-002     0.0000000000000000     
   1.3500000000000002E-002     0.0000000000000000     
   1.3800000000000003E-002     0.0000000000000000     
   1.4100000000000001E-002     0.0000000000000000     
   1.4400000000000000E-002     0.0000000000000000     
   1.4700000000000001E-002     0.0000000000000000     
   1.4999999999999999E-002     0.0000000000000000     
   1.5300000000000001E-002     0.0000000000000000     
   1.5600000000000003E-002     0.0000000000000000     
   1.5899999999999997E-002     0.0000000000000000     
   1.6199999999999999E-002     0.0000000000000000     
   1.6500000000000001E-002     0.0000000000000000     
   1.6800000000000002E-002     0.0000000000000000     
   1.7100000000000004E-002     0.0000000000000000     
   1.7400000000000006E-002     0.0000000000000000     
   1.7700000000000000E-002     0.0000000000000000     
   1.8000000000000002E-002     0.0000000000000000     
   1.8300000000000004E-002     0.0000000000000000     
   1.8600000000000005E-002     0.0000000000000000     
   1.8900000000000000E-002     0.0000000000000000     
   1.9200000000000002E-002     0.0000000000000000     
   1.9500000000000003E-002     0.0000000000000000     
   1.9799999999999998E-002     0.0000000000000000     
   2.0100000000000000E-002     0.0000000000000000     
   2.0400000000000001E-002     0.0000000000000000     
   2.0700000000000003E-002     0.0000000000000000     
   2.0999999999999998E-002     0.0000000000000000     
   2.1299999999999999E-002     0.0000000000000000     
   2.1600000000000001E-002     0.0000000000000000     
   2.1900000000000003E-002     0.0000000000000000     
   2.2200000000000004E-002     0.0000000000000000     
   2.2500000000000006E-002     0.0000000000000000     
   2.2800000000000001E-002     0.0000000000000000     
   2.3100000000000002E-002     0.0000000000000000     
   2.3400000000000004E-002     0.0000000000000000     
   2.3699999999999999E-002     0.0000000000000000     
   2.4000000000000000E-002     0.0000000000000000     
   2.4300000000000002E-002     0.0000000000000000     
   2.4599999999999997E-002     0.0000000000000000     
   2.4900000000000005E-002     0.0000000000000000     
   2.5200000000000000E-002     0.0000000000000000     
   2.5499999999999995E-002     0.0000000000000000     
   2.5800000000000003E-002     0.0000000000000000     
   2.6099999999999998E-002     0.0000000000000000     
   2.6400000000000007E-002     0.0000000000000000     
   2.6700000000000002E-002     0.0000000000000000     
   2.6999999999999996E-002    -8.0419021618263047E-060
   2.7300000000000005E-002     4.7883749595936301E-058
   2.7600000000000000E-002    -7.7374326581070877E-058
   2.7900000000000008E-002    -2.1669817023502469E-044
   2.8200000000000003E-002    -7.7715737048051167E-044
   2.8499999999999998E-002    -1.7964974561627323E-036
   2.8800000000000006E-002     2.1137942407573116E-035
   2.9100000000000001E-002    -6.3334847727705839E-035
   2.9400000000000003E-002    -3.7194391436097019E-034
   2.9700000000000004E-002     4.7670302375034964E-033
   3.0000000000000006E-002    -1.2991322481664448E-032
   3.0300000000000001E-002     2.1414159909128573E-032
   3.0600000000000002E-002    -1.2562717220240172E-032
   3.0900000000000004E-002    -9.9599872790050498E-032
   3.1199999999999999E-002     6.5318567950738110E-031
   3.1500000000000007E-002    -2.7292747058700366E-030
   3.1800000000000002E-002     9.3190587838872430E-030
   3.2099999999999997E-002    -2.7613963252327581E-029
   3.2400000000000005E-002     7.1915019799804460E-029
   3.2700000000000000E-002    -1.6182597903807463E-028
   3.3000000000000002E-002     2.9471472762386079E-028
   3.3300000000000003E-002    -3.3210161499580159E-028
   3.3599999999999998E-002    -3.3384619689286118E-028
   3.3900000000000000E-002     3.5406883100955237E-027
   3.4200000000000001E-002    -1.3620435296084965E-026
   3.4500000000000003E-002     3.8311288196769183E-026
   3.4799999999999998E-002    -8.5538178816775882E-026
   3.5099999999999999E-002     1.4623678602586095E-025
   3.5400000000000001E-002    -1.4619719718127517E-025
   3.5699999999999996E-002    -1.4629034845201513E-025
   3.6000000000000004E-002     1.2254725520113315E-024
   3.6299999999999999E-002    -3.8107767940250416E-024
   3.6600000000000008E-002     8.3244603686756494E-024
   3.6900000000000002E-002    -1.3477154684103154E-023
   3.7199999999999997E-002     1.4008674373186828E-023
   3.7500000000000006E-002     1.2670358089066136E-024
   3.7800000000000000E-002    -4.9862603864109239E-023
   3.8100000000000009E-002     1.5919873625314579E-022
   3.8400000000000004E-002    -3.9395038102351200E-022
   3.8699999999999998E-002     9.2642787420608103E-022
   3.9000000000000007E-002    -2.0201631642961950E-021
   3.9300000000000002E-002     3.2285313595642104E-021
   3.9600000000000003E-002    -1.4418843082954106E-022
   3.9900000000000005E-002    -2.2201779819480226E-020
   4.0200000000000000E-002     9.0461821267525892E-020
   4.0500000000000001E-002    -2.0147735470393445E-019
   4.0800000000000003E-002     1.7068221766408891E-019
   4.1100000000000005E-002     6.1712099622673050E-019
   4.1399999999999999E-002    -3.1099395186424409E-018
   4.1700000000000008E-002     6.8450354646423380E-018
   4.2000000000000003E-002    -5.1018605777183828E-018
   4.2299999999999997E-002    -2.0516471671698055E-017
   4.2600000000000006E-002     9.1485142469087310E-017
   4.2900000000000001E-002    -1.8027901689382752E-016
   4.3200000000000002E-002     9.7776779138097720E-017
   4.3500000000000004E-002     5.9702621749492590E-016
   4.3799999999999999E-002    -2.3346731208353626E-015
   4.4100000000000000E-002     4.2472254833871291E-015
   4.4400000000000002E-002    -1.3251463913979466E-015
   4.4700000000000004E-002    -1.7729376447411448E-014
   4.4999999999999998E-002     6.0610983373683347E-014
   4.5300000000000000E-002    -8.7165842924287913E-014
   4.5600000000000002E-002    -6.3591859424804106E-014
   4.5899999999999996E-002     6.1894901153973422E-013
   4.6200000000000005E-002    -1.3091899120924465E-012
   4.6500000000000000E-002     2.5757053600020375E-013
   4.6799999999999994E-002     5.6009501716697648E-012
   4.7100000000000003E-002    -1.3739293085398721E-011
   4.7399999999999998E-002     3.9302176281608486E-012
   4.7700000000000006E-002     5.1733769281952780E-011
   4.8000000000000001E-002    -1.1150317915781476E-010
   4.8300000000000010E-002    -2.0404632728516274E-011
   4.8600000000000004E-002     4.7113415897473158E-010
   4.8899999999999999E-002    -6.0426297821435588E-010
   4.9200000000000008E-002    -9.3259977773251877E-010
   4.9500000000000002E-002     3.2801253897012202E-009
   4.9800000000000011E-002    -4.4338716728789399E-010
   5.0100000000000006E-002    -1.0329536659832871E-008
   5.0400000000000000E-002     1.0554464255407913E-008
   5.0700000000000009E-002     2.4266673937571955E-008
   5.1000000000000004E-002    -5.0839240942708243E-008
   5.1299999999999998E-002    -4.9804078796052395E-008
   5.1600000000000007E-002     2.1610898898724395E-007
   5.1900000000000002E-002     4.0357311061711232E-008
   5.2200000000000010E-002    -1.0172524222028864E-006
   5.2500000000000005E-002     7.4988392555924200E-007
   5.2800000000000000E-002     9.6708324212546177E-006
   5.3099999999999994E-002     2.0416987505828400E-005
   5.3400000000000003E-002     2.4800233406676585E-005
   5.3699999999999998E-002     2.7543052952616681E-005
   5.4000000000000006E-002     3.9615208668000176E-005
   5.4300000000000001E-002     6.5254605579163850E-005
   5.4599999999999996E-002     1.0276719341110526E-004
   5.4900000000000004E-002     1.5027753603371715E-004
   5.5199999999999999E-002     2.1355336500102060E-004
   5.5499999999999994E-002     3.0755867607218964E-004
   5.5800000000000002E-002     4.4663376982205299E-004
   5.6099999999999997E-002     6.3703335032542813E-004
   5.6400000000000006E-002     8.8367474267318313E-004
   5.6700000000000000E-002     1.1969386423823542E-003
   5.6999999999999995E-002     1.5879996974609569E-003
   5.7300000000000004E-002     2.0666845831878115E-003
   5.7599999999999998E-002     2.6335624540782003E-003
   5.7900000000000007E-002     3.2698990587722533E-003
   5.8200000000000002E-002     3.9424568926042227E-003
   5.8499999999999996E-002     4.5984814228447364E-003
   5.8800000000000005E-002     5.1495133061915787E-003
   5.9100000000000000E-002     5.4673471472391965E-003
   5.9400000000000008E-002     5.3855388437713024E-003
   5.9700000000000003E-002     4.6971326942331177E-003
   6.0000000000000012E-002     3.1587301132863397E-003
   6.0300000000000006E-002     4.9375938870355488E-004
   6.0600000000000001E-002    -3.5912146486492789E-003
   6.0900000000000010E-002    -9.3572173766066410E-003
   6.1200000000000004E-002    -1.6995233828776931E-002
   6.1500000000000013E-002    -2.6600762284000906E-002
   6.1800000000000008E-002    -3.8105479057215376E-002
   6.2100000000000002E-002    -5.1194178034089266E-002
   6.2399999999999997E-002    -6.5269833036573383E-002
   6.2700000000000006E-002    -7.9430152707723273E-002
   6.3000000000000000E-002    -9.2420530098625497E-002
   6.3300000000000009E-002   -0.10265980305074564     
   6.3600000000000004E-002   -0.10831766944770001     
   6.3899999999999998E-002   -0.10739413275674281     
   6.4199999999999993E-002    -9.7875807752495950E-002
   6.4500000000000002E-002    -7.7969779331810901E-002
   6.4800000000000010E-002    -4.6303490409586756E-002
   6.5100000000000005E-002    -2.1630633996561656E-003
   6.5400000000000000E-002     5.4231656725116220E-002
   6.5700000000000008E-002    0.12155299959880932     
   6.5999999999999989E-002    0.19729275319204143     
   6.6299999999999998E-002    0.27772622338117331     
   6.6600000000000006E-002    0.35797323534313563     
   6.6900000000000001E-002    0.43226642894729200     
   6.7199999999999996E-002    0.49435417124291026     
   6.7500000000000004E-002    0.53797469649402296     
   6.7800000000000013E-002    0.55738161050507040     
   6.8099999999999994E-002    0.54793767207568500     
   6.8400000000000002E-002    0.50669310704521775     
   6.8700000000000011E-002    0.43283678563725719     
   6.8999999999999992E-002    0.32796390690642208     
   6.9300000000000000E-002    0.19621454973285798     
   6.9600000000000009E-002     4.4146510037810095E-002
   6.9900000000000004E-002   -0.11962120575404264     
   7.0199999999999999E-002   -0.28498898954152035     
   7.0500000000000007E-002   -0.44111351629464868     
   7.0800000000000016E-002   -0.57730738301196127     
   7.1099999999999997E-002   -0.68387488127725582     
   7.1400000000000005E-002   -0.75298294776539620     
   7.1700000000000000E-002   -0.77933231251020352     
   7.1999999999999995E-002   -0.76070306020431389     
   7.2300000000000003E-002   -0.69817761116240984     
   7.2600000000000012E-002   -0.59606168556517591     
   7.2900000000000006E-002   -0.46156890549155033     
   7.3200000000000001E-002   -0.30429532039962204     
   7.3499999999999996E-002   -0.13544114929407894     
   7.3800000000000004E-002     3.3182132039543642E-002
   7.4099999999999999E-002    0.18998956036131762     
   7.4400000000000008E-002    0.32446046546756729     
   7.4700000000000003E-002    0.42800290889875992     
   7.5000000000000011E-002    0.49446506568390464     
   7.5299999999999992E-002    0.52049462171194338     
   7.5600000000000001E-002    0.50562171358235941     
   7.5900000000000009E-002    0.45218412479208270     
   7.6200000000000004E-002    0.36490880153667671     
   7.6499999999999999E-002    0.25046007931621228     
   7.6800000000000007E-002    0.11678941862913440     
   7.7099999999999988E-002    -2.7483913331172418E-002
   7.7399999999999997E-002   -0.17368196859409099     
   7.7700000000000005E-002   -0.31369026423397012     
   7.8000000000000014E-002   -0.44042916569367296     
   7.8299999999999995E-002   -0.54818765413227266     
   7.8600000000000003E-002   -0.63271824310376323     
   7.8900000000000012E-002   -0.69140127876636381     
   7.9199999999999993E-002   -0.72320327623040914     
   7.9500000000000001E-002   -0.72838852248477415     
   7.9800000000000010E-002   -0.70837209135041912     
   8.0100000000000018E-002   -0.66544554292508484     
   8.0399999999999999E-002   -0.60244069379031662     
   8.0700000000000008E-002   -0.52249429787269441     
   8.1000000000000003E-002   -0.42885686454849564     
   8.1299999999999997E-002   -0.32460822530905603     
   8.1600000000000006E-002   -0.21251263486668229     
   8.1900000000000014E-002    -9.5175956040082527E-002
   8.2199999999999995E-002     2.5244698673839570E-002
   8.2500000000000004E-002    0.14693369923485372     
   8.2799999999999999E-002    0.26809342735182873     
   8.3100000000000007E-002    0.38698692735832718     
   8.3400000000000002E-002    0.50199918168230495     
   8.3700000000000011E-002    0.61132732869957784     
   8.4000000000000005E-002    0.71264759198839356     
   8.4300000000000000E-002    0.80355814284443738     
   8.4599999999999995E-002    0.88146355673074017     
   8.4900000000000003E-002    0.94329568466311187     
   8.5199999999999998E-002    0.98603501499590751     
   8.5500000000000007E-002     1.0068754803647404     
   8.5800000000000001E-002     1.0034870757116450     
   8.6100000000000010E-002    0.97399022821502090     
   8.6399999999999991E-002    0.91750749789662833     
   8.6699999999999999E-002    0.83439526092793981     
   8.7000000000000008E-002    0.72617546231097618     
   8.7300000000000003E-002    0.59586946133517327     
   8.7599999999999997E-002    0.44757397448593550     
   8.7900000000000006E-002    0.28664584987083958     
   8.8200000000000014E-002    0.11947387817090002     
   8.8499999999999995E-002    -4.7381972873348770E-002
   8.8800000000000004E-002   -0.20707473914315266     
   8.9100000000000013E-002   -0.35296325641520282     
   8.9399999999999993E-002   -0.47927631261861497     
   8.9700000000000002E-002   -0.58154873027639942     
   9.0000000000000011E-002   -0.65646419645815857     
   9.0299999999999991E-002   -0.70231429309583238     
   9.0600000000000000E-002   -0.71945372739669389     
   9.0900000000000009E-002   -0.70950809680679683     
   9.1200000000000017E-002   -0.67567876666900040     
   9.1499999999999998E-002   -0.62256024163378054     
   9.1800000000000007E-002   -0.55535117904977593     
   9.2100000000000001E-002   -0.47988913840049463     
   9.2399999999999996E-002   -0.40204249478135468     
   9.2700000000000005E-002   -0.32723676079013314     
   9.3000000000000013E-002   -0.26014723519392757     
   9.3300000000000008E-002   -0.20425588712047890     
   9.3600000000000003E-002   -0.16181599558114113     
   9.3899999999999997E-002   -0.13340647067820713     
   9.4200000000000006E-002   -0.11813245302054248     
   9.4500000000000001E-002   -0.11361383982036895     
   9.4800000000000009E-002   -0.11611068564210567     
   9.5100000000000004E-002   -0.12101959726237953     
   9.5399999999999999E-002   -0.12305388130501804     
   9.5699999999999993E-002   -0.11696140763014401     
   9.6000000000000002E-002    -9.8104718958777717E-002
   9.6300000000000011E-002    -6.2609163349288774E-002
   9.6600000000000005E-002    -8.3925829755431610E-003
   9.6900000000000000E-002     6.4832402219781565E-002
   9.7200000000000009E-002    0.15502158768824983     
   9.7499999999999989E-002    0.25773873028834038     
   9.7799999999999998E-002    0.36666284705191338     
   9.8100000000000007E-002    0.47316975714425291     
   9.8400000000000015E-002    0.56761250875963554     
   9.8699999999999996E-002    0.63971940401907246     
   9.9000000000000005E-002    0.67918745262004465     
   9.9300000000000013E-002    0.67716828571927901     
   9.9599999999999994E-002    0.62681374713901394     
   9.9900000000000003E-002    0.52416948605747360     
  0.10020000000000001         0.36866299986701512     
  0.10049999999999999         0.16368425792201841     
  0.10080000000000000         -8.3259915006988441E-002
  0.10110000000000001        -0.36132376127046817     
  0.10140000000000000        -0.65619871703549515     
  0.10170000000000000        -0.95130893232929015     
  0.10200000000000001         -1.2287742660115155     
  0.10230000000000002         -1.4704267461969731     
  0.10260000000000000         -1.6593202961253757     
  0.10290000000000001         -1.7804271548678343     
  0.10320000000000000         -1.8218725278655474     
  0.10350000000000001         -1.7759068579155317     
  0.10380000000000000         -1.6391467470978709     
  0.10410000000000001         -1.4129448631587156     
  0.10440000000000001         -1.1035725681614659     
  0.10470000000000000        -0.72185036975187966     
  0.10500000000000000        -0.28268148498373841     
  0.10530000000000000         0.19559478073506584     
  0.10560000000000000         0.69225940654879681     
  0.10590000000000001          1.1849000037099031     
  0.10620000000000000          1.6505762950012033     
  0.10650000000000001          2.0675305593082589     
  0.10679999999999999          2.4154962644305722     
  0.10710000000000000          2.6771368039602663     
  0.10740000000000001          2.8395310835055625     
  0.10770000000000000          2.8944596228450967     
  0.10800000000000000          2.8388987976196431     
  0.10830000000000001          2.6756309525571238     
  0.10859999999999999          2.4135088076208469     
  0.10890000000000000          2.0660051578187160     
  0.10920000000000001          1.6514144561053008     
  0.10950000000000001          1.1916752641010524     
  0.10979999999999999         0.71021530585481030     
  0.11009999999999999         0.23131933070655214     
  0.11040000000000001        -0.22158839440030725     
  0.11070000000000001        -0.62796274517114381     
  0.11100000000000000        -0.97079726534237831     
  0.11130000000000000         -1.2378438267330669     
  0.11160000000000002         -1.4222878901282394     
  0.11190000000000001         -1.5227052621960167     
  0.11220000000000001         -1.5427923844691520     
  0.11250000000000000         -1.4910598462889784     
  0.11280000000000000         -1.3791752564349253     
  0.11309999999999999         -1.2209287450212147     
  0.11340000000000001         -1.0316558713562920     
  0.11369999999999998        -0.82619401918130808     
  0.11400000000000000        -0.61785791195130657     
  0.11430000000000000        -0.41849850228843538     
  0.11460000000000002        -0.23728812516722092     
  0.11489999999999999         -8.1070064128167946E-002
  0.11520000000000001          4.5493696346023106E-002
  0.11550000000000001         0.13976595628326466     
  0.11580000000000000         0.19996230913461449     
  0.11609999999999999         0.22531529296526842     
  0.11640000000000002         0.21557696740434706     
  0.11670000000000001         0.17062825724896949     
  0.11700000000000001          9.0815845398758061E-002
  0.11730000000000000         -2.2632844639092826E-002
  0.11760000000000000        -0.16709120018612400     
  0.11789999999999999        -0.33821516041655958     
  0.11820000000000001        -0.52915541433196278     
  0.11850000000000001        -0.73037687312093058     
  0.11880000000000000        -0.92978527793556709     
  0.11910000000000000         -1.1130345661893317     
  0.11940000000000002         -1.2648109938676770     
  0.11970000000000001         -1.3695458878621136     
  0.12000000000000001         -1.4131088947329780     
  0.12030000000000000         -1.3846902356892052     
  0.12060000000000000         -1.2776633049614021     
  0.12089999999999999         -1.0907348009625524     
  0.12119999999999999        -0.82893231567988779     
  0.12150000000000001        -0.50334094177119371     
  0.12180000000000001        -0.13050445444376096     
  0.12210000000000000         0.26862319380575678     
  0.12239999999999999         0.67032793823919656     
  0.12270000000000002          1.0498396986432514     
  0.12300000000000001          1.3836057898632441     
  0.12330000000000001          1.6511334801048279     
  0.12360000000000000          1.8360694011506313     
  0.12390000000000000          1.9277563620622471     
  0.12419999999999999          1.9218830398273388     
  0.12450000000000001          1.8203753796745088     
  0.12480000000000001          1.6309133205703750     
  0.12509999999999999          1.3663707500691273     
  0.12540000000000001          1.0434186099031906     
  0.12570000000000003         0.68139824902827428     
  0.12600000000000000         0.30119424015259960     
  0.12630000000000002         -7.6638457676228525E-002
  0.12659999999999999        -0.43234138221886886     
  0.12690000000000001        -0.74787256571619487     
  0.12719999999999998         -1.0083431856612695     
  0.12750000000000000         -1.2018823218163970     
  0.12780000000000002         -1.3200782093355252     
  0.12809999999999999         -1.3584845802533161     
  0.12840000000000001         -1.3168276108489132     
  0.12869999999999998         -1.1986388762016857     
  0.12900000000000000         -1.0113489294598934     
  0.12930000000000003        -0.76616499314363951     
  0.12959999999999999        -0.47760285415290044     
  0.12990000000000002        -0.16286883801873978     
  0.13019999999999998         0.15899539847691635     
  0.13050000000000000         0.46798865319431193     
  0.13080000000000003         0.74402717151874898     
  0.13109999999999999         0.96860435263181199     
  0.13140000000000002          1.1258424137660070     
  0.13169999999999998          1.2034238170680065     
  0.13200000000000001          1.1938570337622676     
  0.13229999999999997          1.0952247017010797     
  0.13260000000000000         0.91116151200385798     
  0.13290000000000002         0.65136412674720356     
  0.13319999999999999         0.33061562979938708     
  0.13350000000000001         -3.1751890934519460E-002
  0.13380000000000003        -0.41305120225658187     
  0.13410000000000000        -0.78918573406107906     
  0.13440000000000002         -1.1356770591300787     
  0.13469999999999999         -1.4297935462078830     
  0.13500000000000001         -1.6521527191380914     
  0.13529999999999998         -1.7877195452226955     
  0.13560000000000000         -1.8274096808444582     
  0.13590000000000002         -1.7680762392655749     
  0.13619999999999999         -1.6130241787341284     
  0.13650000000000001         -1.3715661286339269     
  0.13680000000000003         -1.0582012759561965     
  0.13710000000000000        -0.69152465989528555     
  0.13740000000000002        -0.29260252818474553     
  0.13769999999999999         0.11607947631126339     
  0.13800000000000001         0.51230357397685977     
  0.13829999999999998         0.87579181830160147     
  0.13860000000000000          1.1886788203419427     
  0.13890000000000002          1.4369555220581667     
  0.13919999999999999          1.6106649082795497     
  0.13950000000000001          1.7042545681714021     
  0.13979999999999998          1.7167869206981807     
  0.14010000000000000          1.6512123957190346     
  0.14040000000000002          1.5145253596509822     
  0.14069999999999999          1.3171230080267948     
  0.14100000000000001          1.0720048750331059     
  0.14130000000000004         0.79398259519638414     
  0.14160000000000000         0.49931035461294848     
  0.14189999999999997         0.20474076829650587     
  0.14219999999999999         -7.4177376276713905E-002
  0.14250000000000002        -0.32311969024916315     
  0.14279999999999998        -0.53031711028550710     
  0.14310000000000000        -0.68763355051727282     
  0.14339999999999997        -0.79066315505129381     
  0.14369999999999999        -0.83981189116321442     
  0.14400000000000002        -0.83960339362819758     
  0.14429999999999998        -0.79830285951533031     
  0.14460000000000001        -0.72774824771642344     
  0.14490000000000003        -0.64143345332024349     
  0.14520000000000000        -0.55324063600563567     
  0.14550000000000002        -0.47621874218208432     
  0.14579999999999999        -0.42136718276926344     
  0.14610000000000001        -0.39591361669594516     
  0.14640000000000003        -0.40291999400435990     
  0.14670000000000000        -0.44157157878577696     
  0.14699999999999996        -0.50635318322087863     
  0.14729999999999999        -0.58871189866431517     
  0.14760000000000001        -0.67766151652527917     
  0.14789999999999998        -0.76087913459771483     
  0.14820000000000000        -0.82643649295023047     