  -1.4999999999999999E-002     0.0000000000000000     
  -1.4700000000000000E-002     0.0000000000000000     
  -1.4400000000000000E-002     0.0000000000000000     
  -1.4100000000000000E-002     0.0000000000000000     
  -1.3800000000000000E-002     0.0000000000000000     
  -1.3500000000000000E-002     0.0000000000000000     
  -1.3200000000000000E-002     0.0000000000000000     
  -1.2899999999999998E-002     0.0000000000000000     
  -1.2600000000000000E-002     0.0000000000000000     
  -1.2299999999999998E-002     0.0000000000000000     
  -1.2000000000000000E-002     0.0000000000000000     
  -1.1699999999999999E-002     0.0000000000000000     
  -1.1399999999999999E-002     0.0000000000000000     
  -1.1099999999999999E-002     0.0000000000000000     
  -1.0799999999999999E-002     0.0000000000000000     
  -1.0499999999999999E-002     0.0000000000000000     
  -1.0199999999999999E-002     0.0000000000000000     
  -9.8999999999999991E-003     0.0000000000000000     
  -9.5999999999999992E-003     0.0000000000000000     
  -9.2999999999999992E-003     0.0000000000000000     
  -8.9999999999999993E-003     0.0000000000000000     
  -8.6999999999999994E-003     0.0000000000000000     
  -8.3999999999999995E-003     0.0000000000000000     
  -8.0999999999999996E-003     0.0000000000000000     
  -7.7999999999999988E-003     0.0000000000000000     
  -7.4999999999999997E-003     0.0000000000000000     
  -7.1999999999999998E-003     0.0000000000000000     
  -6.8999999999999981E-003     0.0000000000000000     
  -6.5999999999999982E-003     0.0000000000000000     
  -6.3000000000000000E-003     0.0000000000000000     
  -6.0000000000000001E-003     0.0000000000000000     
  -5.6999999999999985E-003     0.0000000000000000     
  -5.3999999999999986E-003     0.0000000000000000     
  -5.1000000000000004E-003     0.0000000000000000     
  -4.7999999999999987E-003     0.0000000000000000     
  -4.5000000000000005E-003     0.0000000000000000     
  -4.1999999999999989E-003     0.0000000000000000     
  -3.8999999999999990E-003     0.0000000000000000     
  -3.5999999999999990E-003     0.0000000000000000     
  -3.2999999999999991E-003     0.0000000000000000     
  -2.9999999999999992E-003     0.0000000000000000     
  -2.6999999999999993E-003     0.0000000000000000     
  -2.3999999999999994E-003     0.0000000000000000     
  -2.0999999999999977E-003     0.0000000000000000     
  -1.7999999999999995E-003     0.0000000000000000     
  -1.4999999999999979E-003     0.0000000000000000     
  -1.1999999999999997E-003     0.0000000000000000     
  -8.9999999999999976E-004     0.0000000000000000     
  -5.9999999999999810E-004     0.0000000000000000     
  -2.9999999999999992E-004     0.0000000000000000     
   0.0000000000000000         -3.2285381198116883E-045
   3.0000000000000165E-004    -1.8586301900025393E-036
   5.9999999999999984E-004    -3.2365779597803456E-035
   9.0000000000000149E-004     1.5890904676290103E-034
   1.2000000000000031E-003    -8.1434773616780250E-034
   1.5000000000000013E-003     3.8900008393549753E-033
   1.8000000000000030E-003    -1.0936833297166193E-032
   2.1000000000000012E-003     1.5176279617305907E-032
   2.3999999999999994E-003     1.7915579751692259E-032
   2.7000000000000010E-003    -1.4997639654370700E-031
   2.9999999999999992E-003     3.9550372843795277E-031
   3.3000000000000008E-003    -4.5865210951331259E-031
   3.6000000000000025E-003    -6.0751774776160137E-031
   3.9000000000000007E-003     3.9959292294103008E-030
   4.2000000000000023E-003    -8.4129613249233482E-030
   4.5000000000000005E-003     4.9574608348746803E-030
   4.7999999999999987E-003     2.3087548569370419E-029
   5.1000000000000004E-003    -7.8388043217322456E-029
   5.4000000000000020E-003     9.8853421102571022E-029
   5.7000000000000037E-003     6.5618378152417419E-029
   5.9999999999999984E-003    -5.0624479709445989E-028
   6.3000000000000000E-003     8.7118631734001288E-028
   6.6000000000000017E-003    -1.4122474243209325E-028
   6.9000000000000034E-003    -2.4774509988936749E-027
   7.2000000000000015E-003     5.2373371202571662E-027
   7.5000000000000032E-003    -2.7320300738283030E-027
   7.8000000000000014E-003    -8.9855311901364428E-027
   8.0999999999999996E-003     2.1612752793080260E-026
   8.4000000000000012E-003    -1.3815680559766947E-026
   8.7000000000000029E-003    -2.0697529665769348E-026
   9.0000000000000011E-003     3.8338472810000101E-026
   9.2999999999999992E-003     1.4252752663798061E-026
   9.6000000000000009E-003    -5.3018809780433755E-026
   9.8999999999999991E-003    -1.9333015637238148E-025
   1.0200000000000001E-002     7.8569557753502702E-025
   1.0500000000000002E-002    -8.6668902924063306E-025
   1.0800000000000004E-002    -1.2254722796934425E-024
   1.1099999999999999E-002     5.9034597548212948E-024
   1.1400000000000000E-002    -9.5319322118236565E-024
   1.1700000000000002E-002     4.5175849656848689E-024
   1.2000000000000004E-002     1.5983382782141714E-023
   1.2300000000000002E-002    -5.1670519812769137E-023
   1.2600000000000000E-002     8.7293197851635981E-023
   1.2900000000000002E-002    -7.5337277131426892E-023
   1.3200000000000000E-002    -8.0636956731492707E-023
   1.3500000000000002E-002     4.6860408492636911E-022
   1.3800000000000003E-002    -9.4680110011295921E-022
   1.4100000000000001E-002     8.6928742247921547E-022
   1.4400000000000000E-002     7.6336477472985155E-022
   1.4700000000000001E-002    -4.2343646394000143E-021
   1.4999999999999999E-002     7.5060985139286463E-021
   1.5300000000000001E-002    -5.7638185181099751E-021
   1.5600000000000003E-002    -6.0854449917286121E-021
   1.5899999999999997E-002     2.8014536767291587E-020
   1.6199999999999999E-002    -4.8817431031869809E-020
   1.6500000000000001E-002     4.2492163854281665E-020
   1.6800000000000002E-002     2.7097420120158815E-020
   1.7100000000000004E-002    -1.7883374322221115E-019
   1.7400000000000006E-002     3.4891727732102368E-019
   1.7700000000000000E-002    -3.1769867116679285E-019
   1.8000000000000002E-002    -2.3657130368176830E-019
   1.8300000000000004E-002     1.3758219816114143E-018
   1.8600000000000005E-002    -2.3064061228025584E-018
   1.8900000000000000E-002     1.2421979711783926E-018
   1.9200000000000002E-002     3.2160207573883445E-018
   1.9500000000000003E-002    -9.1969703067748994E-018
   1.9799999999999998E-002     9.9144349078593022E-018
   2.0100000000000000E-002     2.2669311227641454E-018
   2.0400000000000001E-002    -2.5365469909288449E-017
   2.0700000000000003E-002     3.9784474458350382E-017
   2.0999999999999998E-002    -1.7456986104633558E-017
   2.1299999999999999E-002    -4.8319769737666777E-017
   2.1600000000000001E-002     1.1500891778935999E-016
   2.1900000000000003E-002    -1.0224895194958473E-016
   2.2200000000000004E-002    -4.5381467590700766E-017
   2.2500000000000006E-002     2.8467099447041994E-016
   2.2800000000000001E-002    -4.4243199433821035E-016
   2.3100000000000002E-002     2.1135231528745593E-016
   2.3400000000000004E-002     8.1960299080660998E-016
   2.3699999999999999E-002    -2.6365717029201779E-015
   2.4000000000000000E-002     3.0344983987818526E-015
   2.4300000000000002E-002     3.4519393856362814E-015
   2.4599999999999997E-002    -1.8517798684086411E-014
   2.4900000000000005E-002     2.3872578989158444E-014
   2.5200000000000000E-002     1.4136269860566350E-014
   2.5499999999999995E-002    -8.7291676135671253E-014
   2.5800000000000003E-002     1.1345755965520784E-013
   2.6099999999999998E-002    -4.0237771674429182E-014
   2.6400000000000007E-002    -1.5916534198767263E-013
   2.6700000000000002E-002     7.0237258981053209E-013
   2.6999999999999996E-002    -9.3653329031118071E-013
   2.7300000000000005E-002    -2.2362319086748220E-012
   2.7600000000000000E-002     6.3012016290517366E-012
   2.7900000000000008E-002     9.1811436273615662E-012
   2.8200000000000003E-002    -3.8572275329998882E-011
   2.8499999999999998E-002    -2.9025786522985808E-011
   2.8800000000000006E-002     2.0652637040774301E-010
   2.9100000000000001E-002     2.8507904384572457E-011
   2.9400000000000003E-002    -9.2350300677504947E-010
   2.9700000000000004E-002     3.1609544397252525E-010
   3.0000000000000006E-002     3.7180413962925675E-009
   3.0300000000000001E-002    -3.7351321212955332E-009
   3.0600000000000002E-002    -1.1156724130493274E-008
   3.0900000000000004E-002     2.3112841520515602E-008
   3.1199999999999999E-002     1.1587503388685312E-008
   3.1500000000000007E-002    -7.9348941235977439E-008
   3.1800000000000002E-002     6.6306778972842355E-008
   3.2099999999999997E-002     1.1303580297418023E-007
   3.2400000000000005E-002    -3.5176968792293267E-007
   3.2700000000000000E-002     2.4052823628169955E-007
   3.3000000000000002E-002     1.7460002465017331E-006
   3.3300000000000003E-002     3.6289273634779523E-006
   3.3599999999999998E-002     1.2079211374489944E-005
   3.3900000000000000E-002     2.7445892726036191E-005
   3.4200000000000001E-002     4.2870933056137197E-005
   3.4500000000000003E-002     6.5708965963335119E-005
   3.4799999999999998E-002     1.0153540062939429E-004
   3.5099999999999999E-002     1.4533683774773368E-004
   3.5400000000000001E-002     2.1152210248478464E-004
   3.5699999999999996E-002     3.2151704023322474E-004
   3.6000000000000004E-002     4.8144572287834431E-004
   3.6299999999999999E-002     7.0307900479573391E-004
   3.6600000000000008E-002     1.0167520391877918E-003
   3.6900000000000002E-002     1.4569540859556982E-003
   3.7199999999999997E-002     2.0563631570595388E-003
   3.7500000000000006E-002     2.8540779174495478E-003
   3.7800000000000000E-002     3.8926652786395320E-003
   3.8100000000000009E-002     5.2197563345148437E-003
   3.8400000000000004E-002     6.8747015555608278E-003
   3.8699999999999998E-002     8.8668181259434781E-003
   3.9000000000000007E-002     1.1190588892026006E-002
   3.9300000000000002E-002     1.3817050653294279E-002
   3.9600000000000003E-002     1.6662155277555320E-002
   3.9900000000000005E-002     1.9566147425302650E-002
   4.0200000000000000E-002     2.2261510289002723E-002
   4.0500000000000001E-002     2.4379196143877721E-002
   4.0800000000000003E-002     2.5474360650543402E-002
   4.1100000000000005E-002     2.4990087840345988E-002
   4.1399999999999999E-002     2.2239439809086679E-002
   4.1700000000000008E-002     1.6483987694431223E-002
   4.2000000000000003E-002     7.0270738431572801E-003
   4.2299999999999997E-002    -6.7474996508945992E-003
   4.2600000000000006E-002    -2.5306523275190063E-002
   4.2900000000000001E-002    -4.8795101269411202E-002
   4.3200000000000002E-002    -7.6889719199007195E-002
   4.3500000000000004E-002   -0.10873919111900594     
   4.3799999999999999E-002   -0.14285009293631401     
   4.4100000000000000E-002   -0.17700540021024452     
   4.4400000000000002E-002   -0.20827254968289335     
   4.4700000000000004E-002   -0.23313093360573928     
   4.4999999999999998E-002   -0.24763073120589804     
   4.5300000000000000E-002   -0.24766670261064272     
   4.5600000000000002E-002   -0.22937302488888672     
   4.5899999999999996E-002   -0.18955874866178474     
   4.6200000000000005E-002   -0.12612160332780867     
   4.6500000000000000E-002    -3.8518847651485097E-002
   4.6799999999999994E-002     7.1850556455231279E-002
   4.7100000000000003E-002    0.20147091490039365     
   4.7399999999999998E-002    0.34462005917396998     
   4.7700000000000006E-002    0.49355301432848103     
   4.8000000000000001E-002    0.63893696011966117     
   4.8300000000000010E-002    0.77047003894565014     
   4.8600000000000004E-002    0.87769843117487345     
   4.8899999999999999E-002    0.95095241623171567     
   4.9200000000000008E-002    0.98223418373314164     
   4.9500000000000002E-002    0.96608204117743313     
   4.9800000000000011E-002    0.90024251589843718     
   5.0100000000000006E-002    0.78607352083624882     
   5.0400000000000000E-002    0.62854357968988050     
   5.0700000000000009E-002    0.43586472192533970     
   5.1000000000000004E-002    0.21893574561530812     
   5.1299999999999998E-002    -9.7231167772312554E-003
   5.1600000000000007E-002   -0.23701745382705047     
   5.1900000000000002E-002   -0.45048225305849166     
   5.2200000000000010E-002   -0.63951679362858826     
   5.2500000000000005E-002   -0.79622401195457226     
   5.2800000000000000E-002   -0.91594452376874724     
   5.3099999999999994E-002   -0.99755347026451036     
   5.3400000000000003E-002    -1.0435138344426051     
   5.3699999999999998E-002    -1.0592312208492793     
   5.4000000000000006E-002    -1.0522199270481889     
   5.4300000000000001E-002    -1.0311231028440819     
   5.4599999999999996E-002    -1.0043894677156595     
   5.4900000000000004E-002   -0.97957462517047222     
   5.5199999999999999E-002   -0.96214670502068178     
   5.5499999999999994E-002   -0.95489949601091850     
   5.5800000000000002E-002   -0.95744437586557340     
   5.6099999999999997E-002   -0.96625692211184167     
   5.6400000000000006E-002   -0.97503424193459998     
   5.6700000000000000E-002   -0.97532207262045789     
   5.6999999999999995E-002   -0.95732182835198831     
   5.7300000000000004E-002   -0.91089398476878580     
   5.7599999999999998E-002   -0.82677627864385839     
   5.7900000000000007E-002   -0.69754888584273822     
   5.8200000000000002E-002   -0.51856890284418977     
   5.8499999999999996E-002   -0.28849099328141742     
   5.8800000000000005E-002    -9.8472489362270640E-003
   5.9100000000000000E-002    0.31080277139326323     
   5.9400000000000008E-002    0.66323586674705848     
   5.9700000000000003E-002     1.0339694644655295     
   6.0000000000000012E-002     1.4073220900246668     
   6.0300000000000006E-002     1.7659754956974456     
   6.0600000000000001E-002     2.0922297256084965     
   6.0900000000000010E-002     2.3689402198999492     
   6.1200000000000004E-002     2.5806139441414082     
   6.1500000000000013E-002     2.7143026244591422     
   6.1800000000000008E-002     2.7600963932170139     
   6.2100000000000002E-002     2.7119964008944812     
   6.2399999999999997E-002     2.5678471052772758     
   6.2700000000000006E-002     2.3296447850052577     
   6.3000000000000000E-002     2.0032278339384564     
   6.3300000000000009E-002     1.5984498529612796     
   6.3600000000000004E-002     1.1281675632343326     
   6.3899999999999998E-002    0.60841544777323087     
   6.4199999999999993E-002     5.7544531435933043E-002
   6.4500000000000002E-002   -0.50457838507198538     
   6.4800000000000010E-002    -1.0572219506846257     
   6.5100000000000005E-002    -1.5796602085835538     
   6.5400000000000000E-002    -2.0518714232925803     
   6.5700000000000008E-002    -2.4553528835867051     
   6.5999999999999989E-002    -2.7740770205979284     
   6.6299999999999998E-002    -2.9953914379028967     
   6.6600000000000006E-002    -3.1104803706843089     
   6.6900000000000001E-002    -3.1146538873829055     
   6.7199999999999996E-002    -3.0079546649006366     
   6.7500000000000004E-002    -2.7948859531272858     
   6.7800000000000013E-002    -2.4842933192550616     
   6.8099999999999994E-002    -2.0889488458546492     
   6.8400000000000002E-002    -1.6252347493853045     
   6.8700000000000011E-002    -1.1119114715054810     
   6.8999999999999992E-002   -0.56972840115479828     
   6.9300000000000000E-002    -2.0397856996643132E-002
   6.9600000000000009E-002    0.51419660559986391     
   6.9900000000000004E-002     1.0130605126994718     
   7.0199999999999999E-002     1.4563093555671456     
   7.0500000000000007E-002     1.8268735569801806     
   7.0800000000000016E-002     2.1101762058322291     
   7.1099999999999997E-002     2.2952285903610932     
   7.1400000000000005E-002     2.3755179497958725     
   7.1700000000000000E-002     2.3489590753968472     
   7.1999999999999995E-002     2.2185004895766935     
   7.2300000000000003E-002     1.9922489003721888     
   7.2600000000000012E-002     1.6829465879203356     
   7.2900000000000006E-002     1.3077944980106559     
   7.3200000000000001E-002    0.88858545842469527     
   7.3499999999999996E-002    0.44951594366037878     
   7.3800000000000004E-002     1.6776151265702151E-002
   7.4099999999999999E-002   -0.38327554683171750     
   7.4400000000000008E-002   -0.72605784638353632     
   7.4700000000000003E-002   -0.98963481630787498     
   7.5000000000000011E-002    -1.1567621780262194     
   7.5299999999999992E-002    -1.2156258147105974     
   7.5600000000000001E-002    -1.1621367286684883     
   7.5900000000000009E-002   -0.99957007583436341     
   7.6200000000000004E-002   -0.73901291560324944     
   7.6499999999999999E-002   -0.39863777925574839     
   7.6800000000000007E-002    -2.7594433327442318E-003
   7.7099999999999988E-002    0.41943446482803887     
   7.7399999999999997E-002    0.83592595043966611     
   7.7700000000000005E-002     1.2142622996326007     
   7.8000000000000014E-002     1.5235706923018379     
   7.8299999999999995E-002     1.7375189302617664     
   7.8600000000000003E-002     1.8361348094876033     
   7.8900000000000012E-002     1.8071462111750540     
   7.9199999999999993E-002     1.6477105899057576     
   7.9500000000000001E-002     1.3638467032241501     
   7.9800000000000010E-002    0.97124231388699167     
   8.0100000000000018E-002    0.49295768289708541     
   8.0399999999999999E-002    -4.1300515829561568E-002
   8.0700000000000008E-002   -0.59828588229994817     
   8.1000000000000003E-002    -1.1433860645376734     
   8.1299999999999997E-002    -1.6434506484445388     
   8.1600000000000006E-002    -2.0693279575460357     
   8.1900000000000014E-002    -2.3974453097807071     
   8.2199999999999995E-002    -2.6122339728066359     
   8.2500000000000004E-002    -2.7059441511260380     
   8.2799999999999999E-002    -2.6792367410291065     
   8.3100000000000007E-002    -2.5409976024198553     
   8.3400000000000002E-002    -2.3059035439758144     
   8.3700000000000011E-002    -1.9947309555737220     
   8.4000000000000005E-002    -1.6307642714384032     
   8.4300000000000000E-002    -1.2392644153604138     
   8.4599999999999995E-002   -0.84434772339687347     
   8.4900000000000003E-002   -0.46922567347095295     
   8.5199999999999998E-002   -0.13394284466829967     
   8.5500000000000007E-002    0.14583675252890496     
   8.5800000000000001E-002    0.35822264789886482     
   8.6100000000000010E-002    0.49723014803172338     
   8.6399999999999991E-002    0.56087115517560737     
   8.6699999999999999E-002    0.55273327265822136     
   8.7000000000000008E-002    0.48058027334599279     
   8.7300000000000003E-002    0.35654569540162884     
   8.7599999999999997E-002    0.19684590550101680     
   8.7900000000000006E-002     1.9818730016592581E-002
   8.8200000000000014E-002   -0.15398506340499812     
   8.8499999999999995E-002   -0.30462373974783347     
   8.8800000000000004E-002   -0.41223214123205904     
   8.9100000000000013E-002   -0.46025878903256462     
   8.9399999999999993E-002   -0.43648190052598768     
   8.9700000000000002E-002   -0.33413015007620395     
   9.0000000000000011E-002   -0.15331720383219821     
   9.0299999999999991E-002     9.9105123803430395E-002
   9.0600000000000000E-002    0.40887118445070592     
   9.0900000000000009E-002    0.75505461536902652     
   9.1200000000000017E-002     1.1127045781890661     
   9.1499999999999998E-002     1.4527323688036045     
   9.1800000000000007E-002     1.7461757938609987     
   9.2100000000000001E-002     1.9656019363625066     
   9.2399999999999996E-002     2.0873318987431912     
   9.2700000000000005E-002     2.0943528474500464     
   9.3000000000000013E-002     1.9781994930185993     
   9.3300000000000008E-002     1.7397848594536396     
   9.3600000000000003E-002     1.3894260335198969     
   9.3899999999999997E-002    0.94727284110933585     
   9.4200000000000006E-002    0.44158524352841289     
   9.4500000000000001E-002    -9.2571691289048325E-002
   9.4800000000000009E-002   -0.61639604205849341     
   9.5100000000000004E-002    -1.0893954700652717     
   9.5399999999999999E-002    -1.4727640605658163     
   9.5699999999999993E-002    -1.7328708483116084     
   9.6000000000000002E-002    -1.8428277027299822     
   9.6300000000000011E-002    -1.7859097999018632     
   9.6600000000000005E-002    -1.5568137572909362     
   9.6900000000000000E-002    -1.1619796180246629     
   9.7200000000000009E-002   -0.62004772041140366     
   9.7499999999999989E-002     3.8991003411830261E-002
   9.7799999999999998E-002    0.77669925604495527     
   9.8100000000000007E-002     1.5479090500019810     
   9.8400000000000015E-002     2.3051112764572284     
   9.8699999999999996E-002     3.0023472998505256     
   9.9000000000000005E-002     3.5973756685024303     
   9.9300000000000013E-002     4.0565898549720352     
   9.9599999999999994E-002     4.3572323301503531     
   9.9900000000000003E-002     4.4878785532385930     
  0.10020000000000001          4.4518377738709249     
  0.10049999999999999          4.2629854757551220     
  0.10080000000000000          3.9455313951275008     
  0.10110000000000001          3.5303473981422853     
  0.10140000000000000          3.0518923584566231     
  0.10170000000000000          2.5448416338265667     
  0.10200000000000001          2.0387326620435959     
  0.10230000000000002          1.5564200082438819     
  0.10260000000000000          1.1109326510454665     
  0.10290000000000001         0.70552971259650443     
  0.10320000000000000         0.33438778996571356     
  0.10350000000000001         -1.6995100910665712E-002
  0.10380000000000000        -0.36798073418295091     
  0.10410000000000001        -0.73955252496580037     
  0.10440000000000001         -1.1510546864466709     
  0.10470000000000000         -1.6167983223957247     
  0.10500000000000000         -2.1419803019355523     
  0.10530000000000000         -2.7231496352317017     
  0.10560000000000000         -3.3459163315018308     
  0.10590000000000001         -3.9860508656420990     
  0.10620000000000000         -4.6122166936192919     
  0.10650000000000001         -5.1866824089564920     
  0.10679999999999999         -5.6718970876947505     
  0.10710000000000000         -6.0305796960146667     
  0.10740000000000001         -6.2321864315733180     
  0.10770000000000000         -6.2548538354771548     
  0.10800000000000000         -6.0873500095140756     
  0.10830000000000001         -5.7314626162650235     
  0.10859999999999999         -5.2002860802814883     
  0.10890000000000000         -4.5192243762676334     
  0.10920000000000001         -3.7228877737117649     
  0.10950000000000001         -2.8543487320159744     
  0.10979999999999999         -1.9602394192475681     
  0.11009999999999999         -1.0887205043921238     
  0.11040000000000001        -0.28504365196711440     
  0.11070000000000001         0.41047104242164478     
  0.11100000000000000         0.96528582248881090     
  0.11130000000000000          1.3569735480207752     
  0.11160000000000002          1.5744249869560172     
  0.11190000000000001          1.6192865390305942     
  0.11220000000000001          1.5053621625150753     
  0.11250000000000000          1.2556844020221400     
  0.11280000000000000         0.90311627648918169     
  0.11309999999999999         0.48776294746305154     
  0.11340000000000001          5.1801471297946836E-002
  0.11369999999999998        -0.36156231998718807     
  0.11400000000000000        -0.71294904841429818     
  0.11430000000000000        -0.96905236346462453     
  0.11460000000000002         -1.1044178352689344     
  0.11489999999999999         -1.1048336313989837     
  0.11520000000000001        -0.96571997018411904     
  0.11550000000000001        -0.69493947879994855     
  0.11580000000000000        -0.30858108966953440     
  0.11609999999999999         0.16897138560218142     
  0.11640000000000002         0.70869069531823725     
  0.11670000000000001          1.2775547060925927     
  0.11700000000000001          1.8434340129467699     
  0.11730000000000000          2.3754230731563619     
  0.11760000000000000          2.8478687648065741     
  0.11789999999999999          3.2392077982708534     
  0.11820000000000001          3.5352008637340453     
  0.11850000000000001          3.7264137389652014     
  0.11880000000000000          3.8092961332734281     
  0.11910000000000000          3.7873349186264322     
  0.11940000000000002          3.6676490351402848     
  0.11970000000000001          3.4624905748131969     
  0.12000000000000001          3.1873717645575819     
  0.12030000000000000          2.8606281838570911     
  0.12060000000000000          2.5034099432047143     
  0.12089999999999999          2.1381541365977150     
  0.12119999999999999          1.7885096204413438     
  0.12150000000000001          1.4763681061564766     
  0.12180000000000001          1.2211839522212620     
  0.12210000000000000          1.0370915644177896     
  0.12239999999999999         0.93368687225094538     
  0.12270000000000002         0.90883751976630756     
  0.12300000000000001         0.95460428762298999     
  0.12330000000000001          1.0493975406661908     
  0.12360000000000000          1.1635493666109822     
  0.12390000000000000          1.2588679130853111     
  0.12419999999999999          1.2916831245379310     
  0.12450000000000001          1.2178773148380166     
  0.12480000000000001         0.99809938097082274     
  0.12509999999999999         0.60256309615356840     
  0.12540000000000001          1.8338343860597905E-002
  0.12570000000000003        -0.74798527701820561     
  0.12600000000000000         -1.6643565104766329     
  0.12630000000000002         -2.6744209337110014     
  0.12659999999999999         -3.6972237018944503     
  0.12690000000000001         -4.6342017458037192     
  0.12719999999999998         -5.3748113444470471     
  0.12750000000000000         -5.8078476421044503     
  0.12780000000000002         -5.8336278371993666     
  0.12809999999999999         -5.3767329854129224     
  0.12840000000000001         -4.3966815223717699     
  0.12869999999999998         -2.8997078554221023     
  0.12900000000000000        -0.94202303592073600     
  0.12930000000000003          1.3672225925102186     
  0.12959999999999999          3.8702144768624325     
  0.12990000000000002          6.3710785935879599     
  0.13019999999999998          8.6504101392248849     
  0.13050000000000000          10.482535690466012     
  0.13080000000000003          11.659050242417191     
  0.13109999999999999          12.007580987735707     
  0.13140000000000002          11.411206509113189     
  0.13169999999999998          9.8242963543529420     
  0.13200000000000001          7.2811842276298497     
  0.13229999999999997          3.8984301044849219     
  0.13260000000000000        -0.13039001878772327     
  0.13290000000000002         -4.5472085198347116     
  0.13319999999999999         -9.0476269104168736     
  0.13350000000000001         -13.306086696596555     
  0.13380000000000003         -16.999382904137157     
  0.13410000000000000         -19.835472818576910     
  0.13440000000000002         -21.574656137397103     
  0.13469999999999999         -22.050499536119666     
  0.13500000000000001         -21.180901197914114     
  0.13529999999999998         -18.979346076927957     
  0.13560000000000000         -15.549437530090403     
  0.13590000000000002         -11.078649797017901     
  0.13619999999999999         -5.8254395689919614     
  0.13650000000000001         -9.9108888982679708E-002
  0.13680000000000003          5.7600690324251049     
  0.13710000000000000          11.403869903901928     
  0.13740000000000002          16.497208562265591     
  0.13769999999999999          20.740633674777168     
  0.13800000000000001          23.887291427656077     
  0.13829999999999998          25.754175545598429     
  0.13860000000000000          26.233570427925592     
  0.13890000000000002          25.297008898091292     
  0.13919999999999999          22.996593995690773     
  0.13950000000000001          19.458580748528579     
  0.13979999999999998          14.876204542618646     
  0.14010000000000000          9.4965108795844095     
  0.14040000000000002          3.6057992093242621     
  0.14069999999999999         -2.4867075501704892     
  0.14100000000000001         -8.4677653132833193     
  0.14130000000000004         -14.038441783540504     
  0.14160000000000000         -18.930071663677662     
  0.14189999999999997         -22.920807432521176     
  0.14219999999999999         -25.843370810953211     
  0.14250000000000002         -27.595955163778353     
  0.14279999999999998         -28.139972923349241     
  0.14310000000000000         -27.501787460186527     
  0.14339999999999997         -25.765056987670814     
  0.14369999999999999         -23.061478199206352     
  0.14400000000000002         -19.558548719710803     
  0.14429999999999998         -15.445611036673505     
  0.14460000000000001         -10.920985526588744     
  0.14490000000000003         -6.1785565507813560     
  0.14520000000000000         -1.4025240275205564     
  0.14550000000000002          3.2469387556207092     
  0.14579999999999999          7.6346626579290300     
  0.14610000000000001          11.650990756019532     
  0.14640000000000003          15.216074049529855     
  0.14670000000000000          18.273125528256084     
  0.14699999999999996          20.787342757291505     
  0.14729999999999999          22.740168189254899     
  0.14760000000000001          24.125504030749028     
  0.14789999999999998          24.946651901824804     
  0.14820000000000000          25.213653992369117     