  -1.4999999999999999E-002     0.0000000000000000     
  -1.4700000000000000E-002     0.0000000000000000     
  -1.4400000000000000E-002     0.0000000000000000     
  -1.4100000000000000E-002     0.0000000000000000     
  -1.3800000000000000E-002     0.0000000000000000     
  -1.3500000000000000E-002     0.0000000000000000     
  -1.3200000000000000E-002     0.0000000000000000     
  -1.2899999999999998E-002     0.0000000000000000     
  -1.2600000000000000E-002     0.0000000000000000     
  -1.2299999999999998E-002     0.0000000000000000     
  -1.2000000000000000E-002     0.0000000000000000     
  -1.1699999999999999E-002     0.0000000000000000     
  -1.1399999999999999E-002     0.0000000000000000     
  -1.1099999999999999E-002     0.0000000000000000     
  -1.0799999999999999E-002     0.0000000000000000     
  -1.0499999999999999E-002     0.0000000000000000     
  -1.0199999999999999E-002     0.0000000000000000     
  -9.8999999999999991E-003    -1.2444350165746060E-064
  -9.5999999999999992E-003    -3.0965217936687959E-063
  -9.2999999999999992E-003     5.6629914455569384E-063
  -8.9999999999999993E-003     6.8316025821891843E-035
  -8.6999999999999994E-003     3.6098439233555424E-034
  -8.3999999999999995E-003    -4.8647974487382155E-034
  -8.0999999999999996E-003    -2.4899128481951971E-034
  -7.7999999999999988E-003     3.3693539086773072E-033
  -7.4999999999999997E-003     1.3943720120551013E-032
  -7.1999999999999998E-003    -3.9232001905446055E-032
  -6.8999999999999981E-003    -9.2073175725998389E-032
  -6.5999999999999982E-003     1.5443818034316284E-031
  -6.3000000000000000E-003     5.5256707956360821E-031
  -6.0000000000000001E-003     6.9920638149300347E-031
  -5.6999999999999985E-003    -5.4528881013213681E-030
  -5.3999999999999986E-003    -6.7437499642786005E-030
  -5.1000000000000004E-003     3.3222340440511889E-029
  -4.7999999999999987E-003     5.9515388995781885E-030
  -4.5000000000000005E-003     6.8260082029270628E-030
  -4.1999999999999989E-003    -1.8249257947910657E-028
  -3.8999999999999990E-003    -7.8781277883568249E-028
  -3.5999999999999990E-003     3.3672300992891342E-027
  -3.2999999999999991E-003    -3.3409043695180981E-027
  -2.9999999999999992E-003     3.1219332276907113E-027
  -2.6999999999999993E-003    -4.6370545237145505E-027
  -2.3999999999999994E-003    -4.2388157341169033E-026
  -2.0999999999999977E-003     1.6025725992704257E-025
  -1.7999999999999995E-003    -2.3450863525269741E-025
  -1.4999999999999979E-003     3.6294999653905322E-025
  -1.1999999999999997E-003    -5.4629833375165656E-025
  -8.9999999999999976E-004    -8.4666483048881412E-025
  -5.9999999999999810E-004     5.6526167046095466E-024
  -2.9999999999999992E-004    -1.4526631621372996E-023
   0.0000000000000000          3.0104546439053622E-023
   3.0000000000000165E-004    -3.3055924879012859E-023
   5.9999999999999984E-004    -6.0962849716993607E-023
   9.0000000000000149E-004     3.4398529310299617E-022
   1.2000000000000031E-003    -7.5009246380677296E-022
   1.5000000000000013E-003     7.8633253830354578E-022
   1.8000000000000030E-003     9.0692635258316641E-022
   2.1000000000000012E-003    -5.7460571122092900E-021
   2.3999999999999994E-003     1.1282729492661665E-020
   2.7000000000000010E-003    -7.6436247082406263E-021
   2.9999999999999992E-003    -1.8804870789021610E-020
   3.3000000000000008E-003     6.9600970636844853E-020
   3.6000000000000025E-003    -1.0361466692230247E-019
   3.9000000000000007E-003     2.4936357550002330E-020
   4.2000000000000023E-003     2.3824357606440705E-019
   4.5000000000000005E-003    -5.8445214461012417E-019
   4.7999999999999987E-003     6.5847925062541418E-019
   5.1000000000000004E-003     5.1752507448426741E-020
   5.4000000000000020E-003    -1.7904948369441946E-018
   5.7000000000000037E-003     3.8285119673100413E-018
   5.9999999999999984E-003    -4.2011615012819675E-018
   6.3000000000000000E-003     2.5294790090321512E-019
   6.6000000000000017E-003     1.0133707913040121E-017
   6.9000000000000034E-003    -2.5064803234645480E-017
   7.2000000000000015E-003     3.3009671585880497E-017
   7.5000000000000032E-003    -1.1173715607931495E-017
   7.8000000000000014E-003    -6.3633942390224067E-017
   8.0999999999999996E-003     1.7992739297062921E-016
   8.4000000000000012E-003    -2.3783996341207515E-016
   8.7000000000000029E-003     5.3179562089019974E-017
   9.0000000000000011E-003     4.8365032301151893E-016
   9.2999999999999992E-003    -1.1381127312910480E-015
   9.6000000000000009E-003     1.1941894305910419E-015
   9.8999999999999991E-003     1.8570916320730308E-016
   1.0200000000000001E-002    -2.9726957807840626E-015
   1.0500000000000002E-002     5.3742216822461446E-015
   1.0800000000000004E-002    -4.2640406322572494E-015
   1.1099999999999999E-002    -2.5988850872942627E-015
   1.1400000000000000E-002     1.3354526560516231E-014
   1.1700000000000002E-002    -2.0242444363747530E-014
   1.2000000000000004E-002     1.2828944095711421E-014
   1.2300000000000002E-002     1.3311002798577064E-014
   1.2600000000000000E-002    -4.7848701207336292E-014
   1.2900000000000002E-002     6.4892127272779459E-014
   1.3200000000000000E-002    -3.7000852294291924E-014
   1.3500000000000002E-002    -4.0404535800729975E-014
   1.3800000000000003E-002     1.3593725902979061E-013
   1.4100000000000001E-002    -1.9327046847081774E-013
   1.4400000000000000E-002     1.5274913321060575E-013
   1.4700000000000001E-002     3.0031325296041651E-014
   1.4999999999999999E-002    -3.6168137221718172E-013
   1.5300000000000001E-002     7.4282773354547253E-013
   1.5600000000000003E-002    -8.3526615603017861E-013
   1.5899999999999997E-002     7.9673517038258082E-014
   1.6199999999999999E-002     1.7326381852582623E-012
   1.6500000000000001E-002    -3.4347393472973247E-012
   1.6800000000000002E-002     2.3610090815153888E-012
   1.7100000000000004E-002     2.9303228092582816E-012
   1.7400000000000006E-002    -8.2337153063663094E-012
   1.7700000000000000E-002     5.2104877279255159E-012
   1.8000000000000002E-002     5.8635467829291831E-012
   1.8300000000000004E-002    -9.6589578971946701E-012
   1.8600000000000005E-002     2.4193897792516794E-012
   1.8900000000000000E-002    -5.9622963494920041E-012
   1.9200000000000002E-002    -3.0942197219325511E-011
   1.9500000000000003E-002     2.2629659378938831E-010
   1.9799999999999998E-002    -1.0134912013208395E-010
   2.0100000000000000E-002    -1.6142142538877026E-009
   2.0400000000000001E-002     2.9244870710463364E-009
   2.0700000000000003E-002     5.5531334060048487E-009
   2.0999999999999998E-002    -2.1004801034908317E-008
   2.1299999999999999E-002    -8.1231968816291566E-009
   2.1600000000000001E-002     9.5297297713583279E-008
   2.1900000000000003E-002    -2.2906526528425586E-008
   2.2200000000000004E-002    -4.0204426290585432E-007
   2.2500000000000006E-002     2.9741162392867011E-007
   2.2800000000000001E-002     3.8333944800855943E-006
   2.3100000000000002E-002     1.0174031084810540E-005
   2.3400000000000004E-002     1.7171531537572629E-005
   2.3699999999999999E-002     2.3361985501569990E-005
   2.4000000000000000E-002     3.1693290248220311E-005
   2.4300000000000002E-002     4.7130166325089719E-005
   2.4599999999999997E-002     7.1414734170477617E-005
   2.4900000000000005E-002     1.0766608826174841E-004
   2.5200000000000000E-002     1.6151326954573435E-004
   2.5499999999999995E-002     2.3461622893565723E-004
   2.5800000000000003E-002     3.3729568140712424E-004
   2.6099999999999998E-002     4.9117302284729168E-004
   2.6400000000000007E-002     7.0476638887122494E-004
   2.6700000000000002E-002     9.7659279586951469E-004
   2.6999999999999996E-002     1.3174618741134049E-003
   2.7300000000000005E-002     1.7511364332730018E-003
   2.7600000000000000E-002     2.2897699997380164E-003
   2.7900000000000008E-002     2.9218807643244154E-003
   2.8200000000000003E-002     3.6356096132034981E-003
   2.8499999999999998E-002     4.4199536660600057E-003
   2.8800000000000006E-002     5.2248678379493013E-003
   2.9100000000000001E-002     5.9539383534724221E-003
   2.9400000000000003E-002     6.4904751444814701E-003
   2.9700000000000004E-002     6.6517932281866931E-003
   3.0000000000000006E-002     6.1722593780422419E-003
   3.0300000000000001E-002     4.7723962551181817E-003
   3.0600000000000002E-002     2.1347483467628030E-003
   3.0900000000000004E-002    -2.1542898316358368E-003
   3.1199999999999999E-002    -8.5512200178545425E-003
   3.1500000000000007E-002    -1.7468429060606749E-002
   3.1800000000000002E-002    -2.9293152739051496E-002
   3.2099999999999997E-002    -4.4387159581016439E-002
   3.2400000000000005E-002    -6.3017258598004930E-002
   3.2700000000000000E-002    -8.5297274160580069E-002
   3.3000000000000002E-002   -0.11111612926868100     
   3.3300000000000003E-002   -0.14009881382607139     
   3.3599999999999998E-002   -0.17163408216855452     
   3.3900000000000000E-002   -0.20490053755274359     
   3.4200000000000001E-002   -0.23883514600755762     
   3.4500000000000003E-002   -0.27218860904667480     
   3.4799999999999998E-002   -0.30363810585702078     
   3.5099999999999999E-002   -0.33188671386175067     
   3.5400000000000001E-002   -0.35568905360664022     
   3.5699999999999996E-002   -0.37405002556347594     
   3.6000000000000004E-002   -0.38630572343045605     
   3.6299999999999999E-002   -0.39212864953363780     
   3.6600000000000008E-002   -0.39165812980256881     
   3.6900000000000002E-002   -0.38551053595063606     
   3.7199999999999997E-002   -0.37467193750640648     
   3.7500000000000006E-002   -0.36041221152077424     
   3.7800000000000000E-002   -0.34418746973903558     
   3.8100000000000009E-002   -0.32749274572975962     
   3.8400000000000004E-002   -0.31166717708424402     
   3.8699999999999998E-002   -0.29773220859753535     
   3.9000000000000007E-002   -0.28619623805738376     
   3.9300000000000002E-002   -0.27692393303988200     
   3.9600000000000003E-002   -0.26903302545831065     
   3.9900000000000005E-002   -0.26088173502612949     
   4.0200000000000000E-002   -0.24999502337722621     
   4.0500000000000001E-002   -0.23323320073184137     
   4.0800000000000003E-002   -0.20690243293011309     
   4.1100000000000005E-002   -0.16687339937069928     
   4.1399999999999999E-002   -0.10898904096542848     
   4.1700000000000008E-002    -2.9348498060020933E-002
   4.2000000000000003E-002     7.5472534930416280E-002
   4.2299999999999997E-002    0.20794168661549126     
   4.2600000000000006E-002    0.36922373976470002     
   4.2900000000000001E-002    0.55904645008328147     
   4.3200000000000002E-002    0.77529455286564752     
   4.3500000000000004E-002     1.0140783977792411     
   4.3799999999999999E-002     1.2697327418840192     
   4.4100000000000000E-002     1.5348626749908789     
   4.4400000000000002E-002     1.8007386196895472     
   4.4700000000000004E-002     2.0575979308594166     
   4.4999999999999998E-002     2.2950039540374969     
   4.5300000000000000E-002     2.5027006369161513     
   4.5600000000000002E-002     2.6705005916718605     
   4.5899999999999996E-002     2.7894380874502289     
   4.6200000000000005E-002     2.8515687785499968     
   4.6500000000000000E-002     2.8507185773166563     
   4.6799999999999994E-002     2.7826612759939593     
   4.7100000000000003E-002     2.6448920489293624     
   4.7399999999999998E-002     2.4375250987761286     
   4.7700000000000006E-002     2.1624665821644777     
   4.8000000000000001E-002     1.8239163617677749     
   4.8300000000000010E-002     1.4281076532205592     
   4.8600000000000004E-002    0.98271330305737914     
   4.8899999999999999E-002    0.49744809392765416     
   4.9200000000000008E-002    -1.7504505471519070E-002
   4.9500000000000002E-002   -0.55054577353910139     
   4.9800000000000011E-002    -1.0902209638709790     
   5.0100000000000006E-002    -1.6250670449777680     
   5.0400000000000000E-002    -2.1439417029985490     
   5.0700000000000009E-002    -2.6370783591062885     
   5.1000000000000004E-002    -3.0951882251124161     
   5.1299999999999998E-002    -3.5107980705633772     
   5.1600000000000007E-002    -3.8769646693694666     
   5.1900000000000002E-002    -4.1880007846442835     
   5.2200000000000010E-002    -4.4387861389076537     
   5.2500000000000005E-002    -4.6240636023340684     
   5.2800000000000000E-002    -4.7391029503864228     
   5.3099999999999994E-002    -4.7778745770170854     
   5.3400000000000003E-002    -4.7348648142821288     
   5.3699999999999998E-002    -4.6039005282581913     
   5.4000000000000006E-002    -4.3794690046640561     
   5.4300000000000001E-002    -4.0571933553496740     
   5.4599999999999996E-002    -3.6346522013367912     
   5.4900000000000004E-002    -3.1131096382565655     
   5.5199999999999999E-002    -2.4976096498443008     
   5.5499999999999994E-002    -1.7984795756835530     
   5.5800000000000002E-002    -1.0315729404703344     
   5.6099999999999997E-002   -0.21796113402814082     
   5.6400000000000006E-002    0.61621501913159549     
   5.6700000000000000E-002     1.4409606879598393     
   5.6999999999999995E-002     2.2244840210653090     
   5.7300000000000004E-002     2.9342582864183497     
   5.7599999999999998E-002     3.5408757442428196     
   5.7900000000000007E-002     4.0178352154172767     
   5.8200000000000002E-002     4.3461371235241382     
   5.8499999999999996E-002     4.5138440888025073     
   5.8800000000000005E-002     4.5181966549283832     
   5.9100000000000000E-002     4.3659921362141354     
   5.9400000000000008E-002     4.0719638475670212     
   5.9700000000000003E-002     3.6601310312095103     
   6.0000000000000012E-002     3.1593912115724070     
   6.0300000000000006E-002     2.6032817772142871     
   6.0600000000000001E-002     2.0270438557639392     
   6.0900000000000010E-002     1.4643533565302869     
   6.1200000000000004E-002    0.94621524519761491     
   6.1500000000000013E-002    0.49700504965769277     
   6.1800000000000008E-002    0.13473964454742510     
   6.2100000000000002E-002   -0.13165113692914251     
   6.2399999999999997E-002   -0.30195818751381809     
   6.2700000000000006E-002   -0.38420418887364571     
   6.3000000000000000E-002   -0.39437515249763982     
   6.3300000000000009E-002   -0.35332790666483765     
   6.3600000000000004E-002   -0.28603140425571555     
   6.3899999999999998E-002   -0.21757015622861284     
   6.4199999999999993E-002   -0.17121460600117361     
   6.4500000000000002E-002   -0.16551720589985949     
   6.4800000000000010E-002   -0.21142364804649882     
   6.5100000000000005E-002   -0.31180648816978940     
   6.5400000000000000E-002   -0.45920063062125094     
   6.5700000000000008E-002   -0.63692808341825313     
   6.5999999999999989E-002   -0.81994988726886120     
   6.6299999999999998E-002   -0.97699675829316368     
   6.6600000000000006E-002    -1.0735473535562008     
   6.6900000000000001E-002    -1.0756454419708326     
   6.7199999999999996E-002   -0.95356004684494655     
   6.7500000000000004E-002   -0.68619469977348135     
   6.7800000000000013E-002   -0.26367744109550045     
   6.8099999999999994E-002    0.30970767445550079     
   6.8400000000000002E-002     1.0142204514256874     
   6.8700000000000011E-002     1.8156167382215118     
   6.8999999999999992E-002     2.6654301182373561     
   6.9300000000000000E-002     3.5061088475733788     
   6.9600000000000009E-002     4.2732611913807661     
   6.9900000000000004E-002     4.9024678777439199     
   7.0199999999999999E-002     5.3341790961325959     
   7.0500000000000007E-002     5.5187823227477626     
   7.0800000000000016E-002     5.4221755936721898     
   7.1099999999999997E-002     5.0279957644971205     
   7.1400000000000005E-002     4.3413049390198530     
   7.1700000000000000E-002     3.3864160910760961     
   7.1999999999999995E-002     2.2074042345648550     
   7.2300000000000003E-002    0.86351084506782327     
   7.2600000000000012E-002   -0.57570503753280466     
   7.2900000000000006E-002    -2.0348756620218604     
   7.3200000000000001E-002    -3.4401999260589839     
   7.3499999999999996E-002    -4.7232352442401027     
   7.3800000000000004E-002    -5.8279944953127707     
   7.4099999999999999E-002    -6.7122079710358893     
   7.4400000000000008E-002    -7.3512770720208351     
   7.4700000000000003E-002    -7.7378828242949815     
   7.5000000000000011E-002    -7.8803341150911681     
   7.5299999999999992E-002    -7.8019816605842172     
   7.5600000000000001E-002    -7.5344121081712521     
   7.5900000000000009E-002    -7.1169831211648278     
   7.6200000000000004E-002    -6.5899965002230179     
   7.6499999999999999E-002    -5.9930669241413481     
   7.6800000000000007E-002    -5.3605590944976740     
   7.7099999999999988E-002    -4.7204438035278882     
   7.7399999999999997E-002    -4.0933824067911839     
   7.7700000000000005E-002    -3.4919593533433466     
   7.8000000000000014E-002    -2.9237935488536633     
   7.8299999999999995E-002    -2.3893158165615045     
   7.8600000000000003E-002    -1.8881893915976560     
   7.8900000000000012E-002    -1.4161472969919584     
   7.9199999999999993E-002   -0.97066825700689319     
   7.9500000000000001E-002   -0.54831671941568871     
   7.9800000000000010E-002   -0.14715493677832728     
   8.0100000000000018E-002    0.23320744232610560     
   8.0399999999999999E-002    0.59450241113000002     
   8.0700000000000008E-002    0.93697959518111895     
   8.1000000000000003E-002     1.2630338515305783     
   8.1299999999999997E-002     1.5746633679477522     
   8.1600000000000006E-002     1.8755534419056137     
   8.1900000000000014E-002     2.1689471637914268     
   8.2199999999999995E-002     2.4557690025125369     
   8.2500000000000004E-002     2.7362882528398291     
   8.2799999999999999E-002     3.0040540227206387     
   8.3100000000000007E-002     3.2513231916979457     
   8.3400000000000002E-002     3.4627807020707744     
   8.3700000000000011E-002     3.6222868065547922     
   8.4000000000000005E-002     3.7101395449564416     
   8.4300000000000000E-002     3.7100856821035273     
   8.4599999999999995E-002     3.6104386523451910     
   8.4900000000000003E-002     3.4090390970700781     
   8.5199999999999998E-002     3.1159678297086120     
   8.5500000000000007E-002     2.7568462647279208     
   8.5800000000000001E-002     2.3713265123536726     
   8.6100000000000010E-002     2.0126760537439075     
   8.6399999999999991E-002     1.7432475493639765     
   8.6699999999999999E-002     1.6264598676384117     
   8.7000000000000008E-002     1.7223975939761422     
   8.7300000000000003E-002     2.0737431403608122     
   8.7599999999999997E-002     2.7021430090647485     
   8.7900000000000006E-002     3.5976553845143457     
   8.8200000000000014E-002     4.7151852988586915     
   8.8499999999999995E-002     5.9762980441746816     
   8.8800000000000004E-002     7.2662670719266655     
   8.9100000000000013E-002     8.4507382624354097     
   8.9399999999999993E-002     9.3772939482597213     
   8.9700000000000002E-002     9.8989147364226575     
   9.0000000000000011E-002     9.8816837647745182     
   9.0299999999999991E-002     9.2265152201403282     
   9.0600000000000000E-002     7.8782824317017592     
   9.0900000000000009E-002     5.8372123725664595     
   9.1200000000000017E-002     3.1647493272485678     
   9.1499999999999998E-002    -2.0077669951158755E-002
   9.1800000000000007E-002    -3.5425451798471852     
   9.2100000000000001E-002    -7.1894180981837517     
   9.2399999999999996E-002    -10.719020306565627     
   9.2700000000000005E-002    -13.884148205044809     
   9.3000000000000013E-002    -16.449524606283102     
   9.3300000000000008E-002    -18.210879137165112     
   9.3600000000000003E-002    -19.012858243783146     
   9.3899999999999997E-002    -18.758503760079076     
   9.4200000000000006E-002    -17.421610621694903     
   9.4500000000000001E-002    -15.043801945076140     
   9.4800000000000009E-002    -11.738569747590796     
   9.5100000000000004E-002    -7.6763342065704290     
   9.5399999999999999E-002    -3.0796609836633171     
   9.5699999999999993E-002     1.7957629105374187     
   9.6000000000000002E-002     6.6762117148829274     
   9.6300000000000011E-002     11.285042377814095     
   9.6600000000000005E-002     15.363558569443661     
   9.6900000000000000E-002     18.680266328269703     
   9.7200000000000009E-002     21.049515774069437     
   9.7499999999999989E-002     22.335021118301515     
   9.7799999999999998E-002     22.463496301779511     
   9.8100000000000007E-002     21.420027765220770     
   9.8400000000000015E-002     19.253472247283778     
   9.8699999999999996E-002     16.070746181794682     
   9.9000000000000005E-002     12.027635137445237     
   9.9300000000000013E-002     7.3253028942114975     
   9.9599999999999994E-002     2.1902862137550412     
   9.9900000000000003E-002    -3.1276752439668352     
  0.10020000000000001         -8.3799881371269382     
  0.10049999999999999         -13.324549354528557     
  0.10080000000000000         -17.740994315692518     
  0.10110000000000001         -21.445126541565408     
  0.10140000000000000         -24.288844219253900     
  0.10170000000000000         -26.177321602484760     
  0.10200000000000001         -27.059367360147210     
  0.10230000000000002         -26.939065128509945     
  0.10260000000000000         -25.862696725957267     
  0.10290000000000001         -23.917532894810218     
  0.10320000000000000         -21.226067386369259     
  0.10350000000000001         -17.928370168587694     
  0.10380000000000000         -14.185144909038168     
  0.10410000000000001         -10.155127842683756     
  0.10440000000000001         -5.9991175262575522     
  0.10470000000000000         -1.8640607527205360     
  0.10500000000000000          2.1187194937871552     
  0.10530000000000000          5.8358133326973860     
  0.10560000000000000          9.1982454519700241     
  0.10590000000000001          12.136013532199771     
  0.10620000000000000          14.604428871617495     
  0.10650000000000001          16.577130004348103     
  0.10679999999999999          18.048536982698067     
  0.10710000000000000          19.028752079562899     
  0.10740000000000001          19.541729687377842     
  0.10770000000000000          19.625059834940675     
  0.10800000000000000          19.319954605047087     
  0.10830000000000001          18.679093062269278     
  0.10859999999999999          17.751269000305687     
  0.10890000000000000          16.589516250369435     
  0.10920000000000001          15.240296873128216     
  0.10950000000000001          13.744546386237255     
  0.10979999999999999          12.139527708450254     
  0.11009999999999999          10.448851908647365     
  0.11040000000000001          8.6955235206738912     
  0.11070000000000001          6.8896696117512901     
  0.11100000000000000          5.0417744014306702     
  0.11130000000000000          3.1578694031381778     
  0.11160000000000002          1.2430284020819400     
  0.11190000000000001        -0.68886208909957891     
  0.11220000000000001         -2.6264857125657719     
  0.11250000000000000         -4.5422088590573129     
  0.11280000000000000         -6.4087112034801557     
  0.11309999999999999         -8.1858132534257688     
  0.11340000000000001         -9.8275855754251769     
  0.11369999999999998         -11.288448735413475     
  0.11400000000000000         -12.514669858567025     
  0.11430000000000000         -13.463888638691365     
  0.11460000000000002         -14.093557847340577     
  0.11489999999999999         -14.377872010613673     
  0.11520000000000001         -14.300723568299688     
  0.11550000000000001         -13.864588258741342     
  0.11580000000000000         -13.089538065788744     
  0.11609999999999999         -12.010989593401135     
  0.11640000000000002         -10.682516452038803     
  0.11670000000000001         -9.1665957552436304     
  0.11700000000000001         -7.5381128746948791     
  0.11730000000000000         -5.8698431764493666     
  0.11760000000000000         -4.2380171901263815     
  0.11789999999999999         -2.7060339942421412     
  0.11820000000000001         -1.3298908440531854     
  0.11850000000000001        -0.14629974665295836     
  0.11880000000000000         0.82388647765154199     
  0.11910000000000000          1.5784989496215105     
  0.11940000000000002          2.1345590429400541     
  0.11970000000000001          2.5202051571089914     
  0.12000000000000001          2.7802545039299718     
  0.12030000000000000          2.9602834184204823     
  0.12060000000000000          3.1120687892750825     
  0.12089999999999999          3.2805024525235855     
  0.12119999999999999          3.5028642540438684     
  0.12150000000000001          3.8064159295578999     
  0.12180000000000001          4.1998440218016952     
  0.12210000000000000          4.6807891412434026     
  0.12239999999999999          5.2285386729652608     
  0.12270000000000002          5.8107373076588269     
  0.12300000000000001          6.3851096151399922     
  0.12330000000000001          6.9026791721092859     
  0.12360000000000000          7.3141519821186582     
  0.12390000000000000          7.5726187108585945     
  0.12419999999999999          7.6400220295755972     
  0.12450000000000001          7.4900481555398324     
  0.12480000000000001          7.1083976948872429     
  0.12509999999999999          6.5006668091577389     
  0.12540000000000001          5.6832005221278497     
  0.12570000000000003          4.6916900968540620     
  0.12600000000000000          3.5703171198144599     
  0.12630000000000002          2.3729177001094119     
  0.12659999999999999          1.1598218737029264     
  0.12690000000000001         -1.3022130458814864E-002
  0.12719999999999998         -1.0877559911741965     
  0.12750000000000000         -2.0202046488413425     
  0.12780000000000002         -2.7730368482021541     
  0.12809999999999999         -3.3245054760757755     
  0.12840000000000001         -3.6679565081893997     
  0.12869999999999998         -3.8088480606019397     
  0.12900000000000000         -3.7702519006264343     
  0.12930000000000003         -3.5824695995682414     
  0.12959999999999999         -3.2894943943155135     
  0.12990000000000002         -2.9365011233715519     
  0.13019999999999998         -2.5729068079764010     
  0.13050000000000000         -2.2440062117193831     
  0.13080000000000003         -1.9884095562967397     
  0.13109999999999999         -1.8360145333241757     
  0.13140000000000002         -1.8022202418423729     
  0.13169999999999998         -1.8908718976371801     
  0.13200000000000001         -2.0894305903123684     
  0.13229999999999997         -2.3745208081948777     
  0.13260000000000000         -2.7106600240676353     
  0.13290000000000002         -3.0561688539722263     
  0.13319999999999999         -3.3667727274430042     
  0.13350000000000001         -3.5992892693415341     
  0.13380000000000003         -3.7172123020745715     
  0.13410000000000000         -3.6924766191338536     
  0.13440000000000002         -3.5112656248131340     
  0.13469999999999999         -3.1710957118832708     
  0.13500000000000001         -2.6852701606473670     
  0.13529999999999998         -2.0781617878451732     
  0.13560000000000000         -1.3828822859070313     
  0.13590000000000002        -0.64181395684213094     
  0.13619999999999999         0.10514058582510834     
  0.13650000000000001         0.81410321624826310     
  0.13680000000000003          1.4516221827171087     
  0.13710000000000000          1.9875912219387821     
  0.13740000000000002          2.4038239426129007     
  0.13769999999999999          2.6926358752639583     
  0.13800000000000001          2.8542266947077795     
  0.13829999999999998          2.9009555442751829     
  0.13860000000000000          2.8489702759332731     
  0.13890000000000002          2.7216022946155012     
  0.13919999999999999          2.5442207688402045     
  0.13950000000000001          2.3401380295350998     
  0.13979999999999998          2.1351838705901778     
  0.14010000000000000          1.9448962693099292     
  0.14040000000000002          1.7861677797697750     
  0.14069999999999999          1.6641261892240640     
  0.14100000000000001          1.5825435188666626     
  0.14130000000000004          1.5357899904185695     
  0.14160000000000000          1.5154550306189851     
  0.14189999999999997          1.5084100008302601     
  0.14219999999999999          1.4996968761777274     
  0.14250000000000002          1.4734561712528611     
  0.14279999999999998          1.4156279842839272     
  0.14310000000000000          1.3130305086451310     
  0.14339999999999997          1.1599873555812388     
  0.14369999999999999         0.95142932815380798     
  0.14400000000000002         0.69101841679219089     
  0.14429999999999998         0.38592202047453650     
  0.14460000000000001          4.8823806841640165E-002
  0.14490000000000003        -0.30362777439089417     
  0.14520000000000000        -0.65248015170295182     
  0.14550000000000002        -0.97817996851064026     
  0.14579999999999999         -1.2600241166282984     
  0.14610000000000001         -1.4829921061624656     
  0.14640000000000003         -1.6315872051277789     
  0.14670000000000000         -1.6993804567459687     
  0.14699999999999996         -1.6820355033072585     
  0.14729999999999999         -1.5843647049866525     
  0.14760000000000001         -1.4153063746191195     
  0.14789999999999998         -1.1892512196498399     
  0.14820000000000000        -0.92566260136639089     