  -1.4999999999999999E-002     0.0000000000000000     
  -1.4700000000000000E-002     0.0000000000000000     
  -1.4400000000000000E-002     0.0000000000000000     
  -1.4100000000000000E-002     0.0000000000000000     
  -1.3800000000000000E-002     0.0000000000000000     
  -1.3500000000000000E-002     0.0000000000000000     
  -1.3200000000000000E-002     0.0000000000000000     
  -1.2899999999999998E-002     0.0000000000000000     
  -1.2600000000000000E-002     0.0000000000000000     
  -1.2299999999999998E-002     0.0000000000000000     
  -1.2000000000000000E-002     0.0000000000000000     
  -1.1699999999999999E-002     0.0000000000000000     
  -1.1399999999999999E-002     0.0000000000000000     
  -1.1099999999999999E-002     0.0000000000000000     
  -1.0799999999999999E-002     0.0000000000000000     
  -1.0499999999999999E-002     0.0000000000000000     
  -1.0199999999999999E-002     0.0000000000000000     
  -9.8999999999999991E-003     0.0000000000000000     
  -9.5999999999999992E-003     0.0000000000000000     
  -9.2999999999999992E-003     0.0000000000000000     
  -8.9999999999999993E-003     0.0000000000000000     
  -8.6999999999999994E-003     0.0000000000000000     
  -8.3999999999999995E-003     0.0000000000000000     
  -8.0999999999999996E-003     0.0000000000000000     
  -7.7999999999999988E-003     0.0000000000000000     
  -7.4999999999999997E-003     0.0000000000000000     
  -7.1999999999999998E-003     0.0000000000000000     
  -6.8999999999999981E-003     0.0000000000000000     
  -6.5999999999999982E-003     0.0000000000000000     
  -6.3000000000000000E-003     0.0000000000000000     
  -6.0000000000000001E-003     0.0000000000000000     
  -5.6999999999999985E-003     0.0000000000000000     
  -5.3999999999999986E-003     0.0000000000000000     
  -5.1000000000000004E-003     0.0000000000000000     
  -4.7999999999999987E-003     0.0000000000000000     
  -4.5000000000000005E-003     0.0000000000000000     
  -4.1999999999999989E-003     0.0000000000000000     
  -3.8999999999999990E-003     0.0000000000000000     
  -3.5999999999999990E-003     0.0000000000000000     
  -3.2999999999999991E-003     0.0000000000000000     
  -2.9999999999999992E-003     0.0000000000000000     
  -2.6999999999999993E-003     0.0000000000000000     
  -2.3999999999999994E-003     0.0000000000000000     
  -2.0999999999999977E-003     0.0000000000000000     
  -1.7999999999999995E-003     0.0000000000000000     
  -1.4999999999999979E-003     0.0000000000000000     
  -1.1999999999999997E-003     0.0000000000000000     
  -8.9999999999999976E-004     0.0000000000000000     
  -5.9999999999999810E-004     0.0000000000000000     
  -2.9999999999999992E-004     0.0000000000000000     
   0.0000000000000000          0.0000000000000000     
   3.0000000000000165E-004     0.0000000000000000     
   5.9999999999999984E-004     0.0000000000000000     
   9.0000000000000149E-004     0.0000000000000000     
   1.2000000000000031E-003     0.0000000000000000     
   1.5000000000000013E-003     0.0000000000000000     
   1.8000000000000030E-003     0.0000000000000000     
   2.1000000000000012E-003     0.0000000000000000     
   2.3999999999999994E-003     0.0000000000000000     
   2.7000000000000010E-003     0.0000000000000000     
   2.9999999999999992E-003     0.0000000000000000     
   3.3000000000000008E-003     0.0000000000000000     
   3.6000000000000025E-003     0.0000000000000000     
   3.9000000000000007E-003     0.0000000000000000     
   4.2000000000000023E-003     0.0000000000000000     
   4.5000000000000005E-003     0.0000000000000000     
   4.7999999999999987E-003     0.0000000000000000     
   5.1000000000000004E-003     0.0000000000000000     
   5.4000000000000020E-003     0.0000000000000000     
   5.7000000000000037E-003     0.0000000000000000     
   5.9999999999999984E-003     0.0000000000000000     
   6.3000000000000000E-003     0.0000000000000000     
   6.6000000000000017E-003     0.0000000000000000     
   6.9000000000000034E-003     0.0000000000000000     
   7.2000000000000015E-003     0.0000000000000000     
   7.5000000000000032E-003     0.0000000000000000     
   7.8000000000000014E-003     0.0000000000000000     
   8.0999999999999996E-003     0.0000000000000000     
   8.4000000000000012E-003     0.0000000000000000     
   8.7000000000000029E-003    -2.5335836008943727E-038
   9.0000000000000011E-003    -3.6904430124639744E-037
   9.2999999999999992E-003     2.7829025321154029E-036
   9.6000000000000009E-003    -6.2344137820755342E-036
   9.8999999999999991E-003     1.0706770724783149E-035
   1.0200000000000001E-002     4.2330635120039256E-036
   1.0500000000000002E-002     1.1524784507390791E-035
   1.0800000000000004E-002     5.5271048838178400E-035
   1.1099999999999999E-002    -6.9222100894960393E-034
   1.1400000000000000E-002     1.1130591695604931E-033
   1.1700000000000002E-002    -1.2964890745147968E-034
   1.2000000000000004E-002    -1.8010904734420800E-033
   1.2300000000000002E-002     5.0552736859060098E-033
   1.2600000000000000E-002    -9.0676627261860768E-033
   1.2900000000000002E-002     5.7589567021972062E-033
   1.3200000000000000E-002     7.7934584075551999E-033
   1.3500000000000002E-002    -3.7724255975560642E-032
   1.3800000000000003E-002     8.2041011109651916E-032
   1.4100000000000001E-002    -9.1993272199673885E-032
   1.4400000000000000E-002    -3.0425483769898112E-032
   1.4700000000000001E-002     3.3729962115993524E-031
   1.4999999999999999E-002    -7.0045499612593777E-031
   1.5300000000000001E-002     7.8282106612632815E-031
   1.5600000000000003E-002    -2.1776178821612751E-031
   1.5899999999999997E-002    -1.1997121394456782E-030
   1.6199999999999999E-002     3.7816188368684353E-030
   1.6500000000000001E-002    -8.2638600997375726E-030
   1.6800000000000002E-002     1.3700775298991375E-029
   1.7100000000000004E-002    -1.0900188169050032E-029
   1.7400000000000006E-002    -2.3241410730925228E-029
   1.7700000000000000E-002     1.1297401953779125E-028
   1.8000000000000002E-002    -2.3122195327747255E-028
   1.8300000000000004E-002     2.1440618704371043E-028
   1.8600000000000005E-002     2.6301273532174350E-028
   1.8900000000000000E-002    -1.4389962975758659E-027
   1.9200000000000002E-002     2.7410083316213382E-027
   1.9500000000000003E-002    -1.9283438563540996E-027
   1.9799999999999998E-002    -4.3566457671903787E-027
   2.0100000000000000E-002     1.6385920845775832E-026
   2.0400000000000001E-002    -2.3977955476908085E-026
   2.0700000000000003E-002     4.2502723185351666E-027
   2.0999999999999998E-002     6.0632261017436777E-026
   2.1299999999999999E-002    -1.4164455830498217E-025
   2.1600000000000001E-002     1.3129278267343735E-025
   2.1900000000000003E-002     1.0461185257716721E-025
   2.2200000000000004E-002    -5.4992464103074436E-025
   2.2500000000000006E-002     8.4269468232686514E-025
   2.2800000000000001E-002    -3.4165464530692578E-025
   2.3100000000000002E-002    -1.3131600132694973E-024
   2.3400000000000004E-002     3.3575696799035185E-024
   2.3699999999999999E-002    -3.5994766063216748E-024
   2.4000000000000000E-002    -3.9395338527329017E-025
   2.4300000000000002E-002     8.5517764760332588E-024
   2.4599999999999997E-002    -1.5690561580536696E-023
   2.4900000000000005E-002     1.2433758913405763E-023
   2.5200000000000000E-002     7.2973451872431031E-024
   2.5499999999999995E-002    -3.5264615606501135E-023
   2.5800000000000003E-002     5.0789584672092547E-023
   2.6099999999999998E-002    -5.5476524895452650E-023
   2.6400000000000007E-002     1.0358130868851841E-022
   2.6700000000000002E-002    -1.5570500760261026E-022
   2.6999999999999996E-002    -3.6542064167009083E-022
   2.7300000000000005E-002     2.5131123140095355E-021
   2.7600000000000000E-002    -4.8018795864857116E-021
   2.7900000000000008E-002    -2.9711809019199994E-021
   2.8200000000000003E-002     3.4884419470673945E-020
   2.8499999999999998E-002    -6.3738655759683489E-020
   2.8800000000000006E-002    -4.1983955850703249E-020
   2.9100000000000001E-002     4.0846053380472940E-019
   2.9400000000000003E-002    -6.7185716961752001E-019
   2.9700000000000004E-002    -3.2869653940378475E-019
   3.0000000000000006E-002     3.1442200634068701E-018
   3.0300000000000001E-002    -4.9499410751544712E-018
   3.0600000000000002E-002     2.3606022019071795E-019
   3.0900000000000004E-002     1.5599357079966261E-017
   3.1199999999999999E-002    -4.8315671352961816E-017
   3.1500000000000007E-002     5.2738715446842672E-017
   3.1800000000000002E-002     2.9171302329962507E-016
   3.2099999999999997E-002    -1.3537236830612938E-015
   3.2400000000000005E-002     7.0039051883179958E-016
   3.2700000000000000E-002     1.0395238192360918E-014
   3.3000000000000002E-002    -3.0652576333207359E-014
   3.3300000000000003E-002    -6.6052640288403694E-015
   3.3599999999999998E-002     2.2377795245178649E-013
   3.3900000000000000E-002    -4.4154017934373533E-013
   3.4200000000000001E-002    -3.6813324237842067E-013
   3.4500000000000003E-002     3.0829531328383171E-012
   3.4799999999999998E-002    -4.1652785882023828E-012
   3.5099999999999999E-002    -6.2257925537456379E-012
   3.5400000000000001E-002     2.8696858839636586E-011
   3.5699999999999996E-002    -2.5137604723811771E-011
   3.6000000000000004E-002    -6.2685838747551134E-011
   3.6299999999999999E-002     1.8396865116467570E-010
   3.6600000000000008E-002    -7.8428304195910229E-011
   3.6900000000000002E-002    -4.3123552433561274E-010
   3.7199999999999997E-002     7.8522232361088811E-010
   3.7500000000000006E-002     1.7005565114822822E-010
   3.7800000000000000E-002    -2.0738426978428308E-009
   3.8100000000000009E-002     1.3799319009299863E-009
   3.8400000000000004E-002     3.5501672014861031E-009
   3.8699999999999998E-002    -3.1058498518409127E-009
   3.9000000000000007E-002    -9.9997938969992541E-009
   3.9300000000000002E-002    -4.8974622775591335E-009
   3.9600000000000003E-002     5.9557578090112038E-008
   3.9900000000000005E-002     4.9830820622610880E-008
   4.0200000000000000E-002    -4.8405486317591679E-007
   4.0500000000000001E-002     4.6484003629951551E-007
   4.0800000000000003E-002     1.1115219170704354E-005
   4.1100000000000005E-002     3.7238596837413257E-005
   4.1399999999999999E-002     6.6629163019287023E-005
   4.1700000000000008E-002     8.2976956301928690E-005
   4.2000000000000003E-002     9.7977649607916626E-005
   4.2299999999999997E-002     1.4255868285605600E-004
   4.2600000000000006E-002     2.3254618663102252E-004
   4.2900000000000001E-002     3.6544550712019506E-004
   4.3200000000000002E-002     5.4081770558179359E-004
   4.3500000000000004E-002     7.8032220599398442E-004
   4.3799999999999999E-002     1.1286780131570574E-003
   4.4100000000000000E-002     1.6247794166491085E-003
   4.4400000000000002E-002     2.2906477573180419E-003
   4.4700000000000004E-002     3.1586213876279856E-003
   4.4999999999999998E-002     4.2805515154037002E-003
   4.5300000000000000E-002     5.7050673491619202E-003
   4.5600000000000002E-002     7.4563500365837062E-003
   4.5899999999999996E-002     9.5257959178246931E-003
   4.6200000000000005E-002     1.1881280664273301E-002
   4.6500000000000000E-002     1.4462614798894206E-002
   4.6799999999999994E-002     1.7129745011982583E-002
   4.7100000000000003E-002     1.9628885312567883E-002
   4.7399999999999998E-002     2.1613433293341852E-002
   4.7700000000000006E-002     2.2642669648403196E-002
   4.8000000000000001E-002     2.2141655194052930E-002
   4.8300000000000010E-002     1.9395261052258493E-002
   4.8600000000000004E-002     1.3605719511075530E-002
   4.8899999999999999E-002     3.9840365038164632E-003
   4.9200000000000008E-002    -1.0190611712396377E-002
   4.9500000000000002E-002    -2.9519011753127388E-002
   4.9800000000000011E-002    -5.4345890300426782E-002
   5.0100000000000006E-002    -8.4566710606330669E-002
   5.0400000000000000E-002   -0.11948217038923081     
   5.0700000000000009E-002   -0.15771536486866369     
   5.1000000000000004E-002   -0.19711992610946896     
   5.1299999999999998E-002   -0.23473966041918579     
   5.1600000000000007E-002   -0.26688574597205261     
   5.1900000000000002E-002   -0.28928750724229274     
   5.2200000000000010E-002   -0.29735835369736519     
   5.2500000000000005E-002   -0.28659641793756707     
   5.2800000000000000E-002   -0.25304259486622316     
   5.3099999999999994E-002   -0.19378321520966349     
   5.3400000000000003E-002   -0.10748230856568418     
   5.3699999999999998E-002     5.1539618534398660E-003
   5.4000000000000006E-002    0.14102969839506813     
   5.4300000000000001E-002    0.29456379930943843     
   5.4599999999999996E-002    0.45778277753342966     
   5.4900000000000004E-002    0.62062272142176633     
   5.5199999999999999E-002    0.77155558921154244     
   5.5499999999999994E-002    0.89854234723538684     
   5.5800000000000002E-002    0.98998154081044709     
   5.6099999999999997E-002     1.0358156105027312     
   5.6400000000000006E-002     1.0285878736535352     
   5.6700000000000000E-002    0.96435975698471266     
   5.6999999999999995E-002    0.84333630743824761     
   5.7300000000000004E-002    0.67016357487955791     
   5.7599999999999998E-002    0.45371101939203640     
   5.7900000000000007E-002    0.20653361691872565     
   5.8200000000000002E-002    -5.5971799727494859E-002
   5.8499999999999996E-002   -0.31688456820176503     
   5.8800000000000005E-002   -0.55913789965405591     
   5.9100000000000000E-002   -0.76697852078224804     
   5.9400000000000008E-002   -0.92728315289041618     
   5.9700000000000003E-002    -1.0306413474852056     
   6.0000000000000012E-002    -1.0720720785017537     
   6.0300000000000006E-002    -1.0514561694652800     
   6.0600000000000001E-002   -0.97338756177457375     
   6.0900000000000010E-002   -0.84662403516964013     
   6.1200000000000004E-002   -0.68331183096551329     
   6.1500000000000013E-002   -0.49791193633008413     
   6.1800000000000008E-002   -0.30587201592098290     
   6.2100000000000002E-002   -0.12250826857037164     
   6.2399999999999997E-002     3.8253282100167318E-002
   6.2700000000000006E-002    0.16490855473381949     
   6.3000000000000000E-002    0.24895285989339802     
   6.3300000000000009E-002    0.28555578888927280     
   6.3600000000000004E-002    0.27367116861867813     
   6.3899999999999998E-002    0.21589475674787700     
   6.4199999999999993E-002    0.11827630449647392     
   6.4500000000000002E-002    -1.0391436269710192E-002
   6.4800000000000010E-002   -0.15916282347597430     
   6.5100000000000005E-002   -0.31560557658586241     
   6.5400000000000000E-002   -0.46680623373283264     
   6.5700000000000008E-002   -0.60015692050553515     
   6.5999999999999989E-002   -0.70413158944568921     
   6.6299999999999998E-002   -0.76893119660151921     
   6.6600000000000006E-002   -0.78717665792262725     
   6.6900000000000001E-002   -0.75438108728930797     
   6.7199999999999996E-002   -0.66923985318436974     
   6.7500000000000004E-002   -0.53373755845108084     
   6.7800000000000013E-002   -0.35303298005413802     
   6.8099999999999994E-002   -0.13543789543024720     
   6.8400000000000002E-002    0.10829250304360888     
   6.8700000000000011E-002    0.36528436216568766     
   6.8999999999999992E-002    0.62156487918571579     
   6.9300000000000000E-002    0.86266997850845129     
   6.9600000000000009E-002     1.0744776216878338     
   6.9900000000000004E-002     1.2441574160035282     
   7.0199999999999999E-002     1.3609020917401342     
   7.0500000000000007E-002     1.4167477950169167     
   7.0800000000000016E-002     1.4068946540086671     
   7.1099999999999997E-002     1.3299524989738110     
   7.1400000000000005E-002     1.1881918305638213     
   7.1700000000000000E-002    0.98755901680444813     
   7.1999999999999995E-002    0.73706415239358447     
   7.2300000000000003E-002    0.44821967852332145     
   7.2600000000000012E-002    0.13483520775273428     
   7.2900000000000006E-002   -0.18827178419598448     
   7.3200000000000001E-002   -0.50569140374048682     
   7.3499999999999996E-002   -0.80229145131010826     
   7.3800000000000004E-002    -1.0643761366854978     
   7.4099999999999999E-002    -1.2797548318362402     
   7.4400000000000008E-002    -1.4388415436947057     
   7.4700000000000003E-002    -1.5347264910143026     
   7.5000000000000011E-002    -1.5636110278852573     
   7.5299999999999992E-002    -1.5249762373604090     
   7.5600000000000001E-002    -1.4211935022536726     
   7.5900000000000009E-002    -1.2575140702030545     
   7.6200000000000004E-002    -1.0417262111423247     
   7.6499999999999999E-002   -0.78342831280049319     
   7.6800000000000007E-002   -0.49374329349004731     
   7.7099999999999988E-002   -0.18474953592516818     
   7.7399999999999997E-002    0.13162466634407421     
   7.7700000000000005E-002    0.44320855413963844     
   7.8000000000000014E-002    0.73908872361538580     
   7.8299999999999995E-002     1.0091353388583917     
   7.8600000000000003E-002     1.2446018231668137     
   7.8900000000000012E-002     1.4385176329269513     
   7.9199999999999993E-002     1.5854143196354744     
   7.9500000000000001E-002     1.6814313796995859     
   7.9800000000000010E-002     1.7244164980745846     
   8.0100000000000018E-002     1.7138678949568553     
   8.0399999999999999E-002     1.6502712621271023     
   8.0700000000000008E-002     1.5363217853268163     
   8.1000000000000003E-002     1.3754026099871328     
   8.1299999999999997E-002     1.1721995727884282     
   8.1600000000000006E-002    0.93273642586809213     
   8.1900000000000014E-002    0.66422784289666337     
   8.2199999999999995E-002    0.37500438971368477     
   8.2500000000000004E-002     7.4074022271575196E-002
   8.2799999999999999E-002   -0.22849013439667143     
   8.3100000000000007E-002   -0.52212083325222236     
   8.3400000000000002E-002   -0.79565452547009707     
   8.3700000000000011E-002    -1.0385605397796338     
   8.4000000000000005E-002    -1.2406582035664184     
   8.4300000000000000E-002    -1.3928622805618689     
   8.4599999999999995E-002    -1.4882899598930726     
   8.4900000000000003E-002    -1.5220907291460628     
   8.5199999999999998E-002    -1.4926112763626493     
   8.5500000000000007E-002    -1.4019676607141798     
   8.5800000000000001E-002    -1.2552546420260899     
   8.6100000000000010E-002    -1.0613380808810242     
   8.6399999999999991E-002   -0.83239457402325523     
   8.6699999999999999E-002   -0.58270309127621944     
   8.7000000000000008E-002   -0.32823510884865936     
   8.7300000000000003E-002    -8.5147026307516194E-002
   8.7599999999999997E-002    0.13131861759267174     
   8.7900000000000006E-002    0.30848384248073751     
   8.8200000000000014E-002    0.43628476784160453     
   8.8499999999999995E-002    0.50920010127398907     
   8.8800000000000004E-002    0.52631848097459144     
   8.9100000000000013E-002    0.49075484143963366     
   8.9399999999999993E-002    0.41013522035370742     
   8.9700000000000002E-002    0.29525097525376909     
   9.0000000000000011E-002    0.15911299771413817     
   9.0299999999999991E-002     1.6003935543826703E-002
   9.0600000000000000E-002   -0.12040421708280000     
   9.0900000000000009E-002   -0.23745050580289484     
   9.1200000000000017E-002   -0.32460204774630624     
   9.1499999999999998E-002   -0.37455025691378990     
   9.1800000000000007E-002   -0.38277506997984301     
   9.2100000000000001E-002   -0.34801523589132649     
   9.2399999999999996E-002   -0.27193504356022741     
   9.2700000000000005E-002   -0.15835830341134499     
   9.3000000000000013E-002    -1.2953316937612536E-002
   9.3300000000000008E-002    0.15696093505748054     
   9.3600000000000003E-002    0.34344098824030278     
   9.3899999999999997E-002    0.53834607931447942     
   9.4200000000000006E-002    0.73279988567597976     
   9.4500000000000001E-002    0.91783968629549739     
   9.4800000000000009E-002     1.0848789950150883     
   9.5100000000000004E-002     1.2249630932753450     
   9.5399999999999999E-002     1.3295329384345458     
   9.5699999999999993E-002     1.3906302478619579     
   9.6000000000000002E-002     1.4010054362093416     
   9.6300000000000011E-002     1.3549046222554257     
   9.6600000000000005E-002     1.2488675402602434     
   9.6900000000000000E-002     1.0816939487751112     
   9.7200000000000009E-002    0.85543990196172104     
   9.7499999999999989E-002    0.57573076448235350     
   9.7799999999999998E-002    0.25160337083569040     
   9.8100000000000007E-002   -0.10452364030905395     
   9.8400000000000015E-002   -0.47718130432249328     
   9.8699999999999996E-002   -0.84944449694013202     
   9.9000000000000005E-002    -1.2029255055779622     
   9.9300000000000013E-002    -1.5193860612436016     
   9.9599999999999994E-002    -1.7826299411964543     
   9.9900000000000003E-002    -1.9784589620119197     
  0.10020000000000001         -2.0965880095493175     
  0.10049999999999999         -2.1308496010782312     
  0.10080000000000000         -2.0799688180040117     
  0.10110000000000001         -1.9469937892237552     
  0.10140000000000000         -1.7400237064879960     
  0.10170000000000000         -1.4706194301522273     
  0.10200000000000001         -1.1534415236717059     
  0.10230000000000002        -0.80533313766340531     
  0.10260000000000000        -0.44403183355409936     
  0.10290000000000001         -8.7355582889920569E-002
  0.10320000000000000         0.24825355331560872     
  0.10350000000000001         0.54801153995025986     
  0.10380000000000000         0.79996145515133021     
  0.10410000000000001         0.99536469987246656     
  0.10440000000000001          1.1291123971839312     
  0.10470000000000000          1.1994568229413358     
  0.10500000000000000          1.2086567832411084     
  0.10530000000000000          1.1619867878344972     
  0.10560000000000000          1.0677407238630454     
  0.10590000000000001         0.93625169623588977     
  0.10620000000000000         0.77932119434053693     
  0.10650000000000001         0.60961070030779163     
  0.10679999999999999         0.43978812981245829     
  0.10710000000000000         0.28151185649443278     
  0.10740000000000001         0.14443948454369540     
  0.10770000000000000          3.6932949388490913E-002
  0.10800000000000000         -3.5859561671343937E-002
  0.10830000000000001         -7.0481128967328915E-002
  0.10859999999999999         -6.6828272900487942E-002
  0.10890000000000000         -2.6755960170858101E-002
  0.10920000000000001          4.6169557558455449E-002
  0.10950000000000001         0.14658769004944047     
  0.10979999999999999         0.26832319735855098     
  0.11009999999999999         0.40386896945999401     
  0.11040000000000001         0.54572904524078236     
  0.11070000000000001         0.68538290964778381     
  0.11100000000000000         0.81408373642857645     
  0.11130000000000000         0.92217304956958457     
  0.11160000000000002         0.99962965942345716     
  0.11190000000000001          1.0357390954150107     
  0.11220000000000001          1.0200387411654068     
  0.11250000000000000         0.94274599566868278     
  0.11280000000000000         0.79547793146202439     
  0.11309999999999999         0.57280150365308957     
  0.11340000000000001         0.27349839964090628     
  0.11369999999999998         -9.8234788662759587E-002
  0.11400000000000000        -0.53208386816622311     
  0.11430000000000000         -1.0105974589158673     
  0.11460000000000002         -1.5097535645019728     
  0.11489999999999999         -1.9994581655564234     
  0.11520000000000001         -2.4451817392116890     
  0.11550000000000001         -2.8106596197011782     
  0.11580000000000000         -3.0598084925928877     
  0.11609999999999999         -3.1606671705843326     
  0.11640000000000002         -3.0884783486158027     
  0.11670000000000001         -2.8276422110066126     
  0.11700000000000001         -2.3754157623111056     
  0.11730000000000000         -1.7414628645201926     
  0.11760000000000000        -0.94957083197393777     
  0.11789999999999999         -3.6099708689752319E-002
  0.11820000000000001         0.95159917904412272     
  0.11850000000000001          1.9587600164434766     
  0.11880000000000000          2.9260190498751384     
  0.11910000000000000          3.7936591861918334     
  0.11940000000000002          4.5055385850244338     
  0.11970000000000001          5.0134533286345135     
  0.12000000000000001          5.2801538994695827     
  0.12030000000000000          5.2813131174333359     
  0.12060000000000000          5.0076696398719713     
  0.12089999999999999          4.4655186713782422     
  0.12119999999999999          3.6768263550789344     
  0.12150000000000001          2.6771698833269575     
  0.12180000000000001          1.5151317429525744     
  0.12210000000000000         0.24828859859166053     
  0.12239999999999999         -1.0586218265346437     
  0.12270000000000002         -2.3370984590001012     
  0.12300000000000001         -3.5191514576364002     
  0.12330000000000001         -4.5401079601826702     
  0.12360000000000000         -5.3424570280581856     
  0.12390000000000000         -5.8793263195454468     
  0.12419999999999999         -6.1176058600774326     
  0.12450000000000001         -6.0400358267087046     
  0.12480000000000001         -5.6468994119002280     
  0.12509999999999999         -4.9574061385551298     
  0.12540000000000001         -4.0091841338872563     
  0.12570000000000003         -2.8566847987383333     
  0.12600000000000000         -1.5687405709919022     
  0.12630000000000002        -0.22353788023879373     
  0.12659999999999999          1.0946510129994675     
  0.12690000000000001          2.3017786930194526     
  0.12719999999999998          3.3206496923713300     
  0.12750000000000000          4.0856083424024794     
  0.12780000000000002          4.5488933289287932     
  0.12809999999999999          4.6829100602120324     
  0.12840000000000001          4.4850381156264838     
  0.12869999999999998          3.9767777567451303     
  0.12900000000000000          3.2031717901016896     
  0.12930000000000003          2.2298687772150378     
  0.12959999999999999          1.1379758995977156     
  0.12990000000000002          1.8926089061510165E-002
  0.13019999999999998         -1.0339825194573837     
  0.13050000000000000         -1.9314778989386636     
  0.13080000000000003         -2.5970491471283368     
  0.13109999999999999         -2.9711710660267716     
  0.13140000000000002         -3.0177595913715423     
  0.13169999999999998         -2.7262741207596233     
  0.13200000000000001         -2.1138073569982225     
  0.13229999999999997         -1.2228753023699979     
  0.13260000000000000        -0.11857527423683623     
  0.13290000000000002          1.1159228738973026     
  0.13319999999999999          2.3860924689060097     
  0.13350000000000001          3.5927228596930836     
  0.13380000000000003          4.6405762787130893     
  0.13410000000000000          5.4443609916816147     
  0.13440000000000002          5.9353629483066612     
  0.13469999999999999          6.0663342089518535     
  0.13500000000000001          5.8145977427816939     
  0.13529999999999998          5.1840526600562615     
  0.13560000000000000          4.2033373082478471     
  0.13590000000000002          2.9239215369513407     
  0.13619999999999999          1.4154506556128972     
  0.13650000000000001        -0.23758656527787192     
  0.13680000000000003         -1.9438379768638812     
  0.13710000000000000         -3.6098465005105842     
  0.13740000000000002         -5.1467049544429111     
  0.13769999999999999         -6.4747012407809574     
  0.13800000000000001         -7.5267601379768365     
  0.13829999999999998         -8.2527329572232553     
  0.13860000000000000         -8.6209995076055268     
  0.13890000000000002         -8.6194957058959112     
  0.13919999999999999         -8.2546690766449284     
  0.13950000000000001         -7.5513442119183232     
  0.13979999999999998         -6.5502814825675513     
  0.14010000000000000         -5.3070211596676531     
  0.14040000000000002         -3.8878887232642292     
  0.14069999999999999         -2.3680866359364399     
  0.14100000000000001        -0.82710230797461026     
  0.14130000000000004         0.65372368399515279     
  0.14160000000000000          1.9952958788790838     
  0.14189999999999997          3.1246616391857436     
  0.14219999999999999          3.9791983209572361     
  0.14250000000000002          4.5107586018834773     
  0.14279999999999998          4.6876858485336506     
  0.14310000000000000          4.4987822668131336     
  0.14339999999999997          3.9537457916136218     
  0.14369999999999999          3.0854052838765118     
  0.14400000000000002          1.9475885087202882     
  0.14429999999999998         0.61287027714346953     
  0.14460000000000001        -0.83090446540722773     
  0.14490000000000003         -2.2857620817521695     
  0.14520000000000000         -3.6490555712315431     
  0.14550000000000002         -4.8208743807197916     
  0.14579999999999999         -5.7101642970575188     
  0.14610000000000001         -6.2410805196786088     
  0.14640000000000003         -6.3579250949877189     
  0.14670000000000000         -6.0295370854444990     
  0.14699999999999996         -5.2513971263320940     
  0.14729999999999999         -4.0465594818535200     
  0.14760000000000001         -2.4642663736159633     
  0.14789999999999998        -0.57658868082814629     
  0.14820000000000000          1.5248686317168172     