  -1.4999999999999999E-002     0.0000000000000000     
  -1.4700000000000000E-002     0.0000000000000000     
  -1.4400000000000000E-002     0.0000000000000000     
  -1.4100000000000000E-002     0.0000000000000000     
  -1.3800000000000000E-002     0.0000000000000000     
  -1.3500000000000000E-002     4.1822140304342772E-036
  -1.3200000000000000E-002     4.5620316325885993E-034
  -1.2899999999999998E-002    -1.7462072520414184E-032
  -1.2600000000000000E-002    -1.8642080733111991E-031
  -1.2299999999999998E-002     5.4941797563383599E-030
  -1.2000000000000000E-002    -1.4463431104680797E-029
  -1.1699999999999999E-002    -1.9214356387068405E-028
  -1.1399999999999999E-002     7.4695881827967417E-028
  -1.1099999999999999E-002     2.8896427118346814E-027
  -1.0799999999999999E-002    -1.2051844225545710E-026
  -1.0499999999999999E-002    -3.0498007849893235E-026
  -1.0199999999999999E-002     8.9355758987944100E-026
  -9.8999999999999991E-003     3.3511801435923395E-025
  -9.5999999999999992E-003    -2.8171057534582183E-025
  -9.2999999999999992E-003    -3.2494231058445401E-024
  -8.9999999999999993E-003    -1.0655989665369478E-024
  -8.6999999999999994E-003     2.3829471170190754E-023
  -8.3999999999999995E-003     1.1657589557614183E-023
  -8.0999999999999996E-003    -7.8075567957538777E-023
  -7.7999999999999988E-003    -1.5831119212638221E-022
  -7.4999999999999997E-003     3.7763066301379072E-025
  -7.1999999999999998E-003     1.5526388665875669E-021
  -6.8999999999999981E-003    -3.8142820538907695E-023
  -6.5999999999999982E-003    -4.9669776187540975E-021
  -6.3000000000000000E-003    -8.8724417911386523E-022
  -6.0000000000000001E-003    -4.5715563627265440E-021
  -5.6999999999999985E-003     4.4045940938121354E-020
  -5.3999999999999986E-003     3.1235444181506066E-020
  -5.1000000000000004E-003    -2.1187994075469770E-019
  -4.7999999999999987E-003     1.1681113181643036E-019
  -4.5000000000000005E-003    -1.5831207676335093E-019
  -4.1999999999999989E-003     2.6148828180934851E-019
  -3.8999999999999990E-003     2.5068693710444175E-018
  -3.5999999999999990E-003    -6.1843184370588126E-018
  -3.2999999999999991E-003     4.0238300530041644E-018
  -2.9999999999999992E-003    -1.6180778634473490E-018
  -2.6999999999999993E-003    -1.0567000358033143E-017
  -2.3999999999999994E-003     6.4643852071563625E-017
  -2.0999999999999977E-003    -1.1008976783014292E-016
  -1.7999999999999995E-003     9.3726706036200302E-017
  -1.4999999999999979E-003    -6.9705460465818649E-017
  -1.1999999999999997E-003    -2.3605736888324089E-016
  -8.9999999999999976E-004     1.2053085703767729E-015
  -5.9999999999999810E-004    -2.3535007065475581E-015
  -2.9999999999999992E-004     2.8976162621883102E-015
   0.0000000000000000         -2.2245571928060703E-016
   3.0000000000000165E-004    -1.2269538426785885E-014
   5.9999999999999984E-004     3.2643758864407355E-014
   9.0000000000000149E-004    -3.5564138957834307E-014
   1.2000000000000031E-003    -1.7598388970850556E-014
   1.5000000000000013E-003     1.4558333318772902E-013
   1.8000000000000030E-003    -2.6103961460470295E-013
   2.1000000000000012E-003     1.1201371597406342E-013
   2.3999999999999994E-003     4.5115525854320185E-013
   2.7000000000000010E-003    -1.0304887043378648E-012
   2.9999999999999992E-003     7.5709775557064661E-013
   3.3000000000000008E-003     8.7953675332435553E-013
   3.6000000000000025E-003    -2.8490992181786846E-012
   3.9000000000000007E-003     2.5519717853324523E-012
   4.2000000000000023E-003     1.1869220895234828E-012
   4.5000000000000005E-003    -5.2955528404297510E-012
   4.7999999999999987E-003     5.2472844620473969E-012
   5.1000000000000004E-003    -1.2430761585656497E-013
   5.4000000000000020E-003    -6.0456922343585461E-012
   5.7000000000000037E-003     7.3077440525308787E-012
   5.9999999999999984E-003    -3.0726973051183045E-012
   6.3000000000000000E-003    -8.5917601998065119E-013
   6.6000000000000017E-003     3.3542534241279664E-012
   6.9000000000000034E-003    -7.1205525188720798E-012
   7.2000000000000015E-003     9.0563957677668517E-012
   7.5000000000000032E-003    -7.8161764182041077E-012
   7.8000000000000014E-003     1.4960919978116298E-012
   8.0999999999999996E-003     1.5811626716951678E-011
   8.4000000000000012E-003    -2.7484380463100129E-011
   8.7000000000000029E-003     1.5470896285162761E-011
   9.0000000000000011E-003     2.2739589735249083E-012
   9.2999999999999992E-003    -1.8995856121401316E-011
   9.6000000000000009E-003     3.4604427182891512E-011
   9.8999999999999991E-003    -2.3100486781893701E-011
   1.0200000000000001E-002     9.3286904038955701E-012
   1.0500000000000002E-002    -1.6600456876156042E-011
   1.0800000000000004E-002    -1.2008104770833725E-011
   1.1099999999999999E-002     6.4749509684424907E-011
   1.1400000000000000E-002    -8.8084408178781007E-011
   1.1700000000000002E-002     7.2262837873482377E-011
   1.2000000000000004E-002     4.8606212532553417E-012
   1.2300000000000002E-002     1.5425359913288959E-011
   1.2600000000000000E-002    -1.3805853067546049E-011
   1.2900000000000002E-002    -6.8984972041646605E-010
   1.3200000000000000E-002     8.6809514929910633E-010
   1.3500000000000002E-002     1.6902597795369817E-009
   1.3800000000000003E-002    -1.7611547807710788E-009
   1.4100000000000001E-002    -6.1902428313527004E-009
   1.4400000000000000E-002     3.6294519086031837E-009
   1.4700000000000001E-002     1.3285122640812137E-008
   1.4999999999999999E-002    -1.5515554302012319E-008
   1.5300000000000001E-002     5.0745079868817295E-008
   1.5600000000000003E-002     1.8225003791096940E-008
   1.5899999999999997E-002    -5.8737694769729001E-007
   1.6199999999999999E-002     4.4435533470846164E-007
   1.6500000000000001E-002     7.6134826885026877E-006
   1.6800000000000002E-002     2.1244852830324131E-005
   1.7100000000000004E-002     3.7128838334666743E-005
   1.7400000000000006E-002     5.1523697988796780E-005
   1.7700000000000000E-002     6.1437491195148061E-005
   1.8000000000000002E-002     6.9192976022614290E-005
   1.8300000000000004E-002     9.0006535098146272E-005
   1.8600000000000005E-002     1.4100144955349279E-004
   1.8900000000000000E-002     2.1894648852475412E-004
   1.9200000000000002E-002     3.0237825681979130E-004
   1.9500000000000003E-002     3.8096158445929398E-004
   1.9799999999999998E-002     4.6967991760848776E-004
   2.0100000000000000E-002     5.8718670379850251E-004
   2.0400000000000001E-002     7.3008921816087279E-004
   2.0700000000000003E-002     8.5572744186448231E-004
   2.0999999999999998E-002     8.7004257752633374E-004
   2.1299999999999999E-002     6.6232504942123161E-004
   2.1600000000000001E-002     1.2404446892878658E-004
   2.1900000000000003E-002    -9.1665032421878851E-004
   2.2200000000000004E-002    -2.7191585508568503E-003
   2.2500000000000006E-002    -5.6413441905967844E-003
   2.2800000000000001E-002    -1.0188323704647784E-002
   2.3100000000000002E-002    -1.6966145794397383E-002
   2.3400000000000004E-002    -2.6625407970899580E-002
   2.3699999999999999E-002    -3.9893153365292866E-002
   2.4000000000000000E-002    -5.7572204272587482E-002
   2.4300000000000002E-002    -8.0447925898182310E-002
   2.4599999999999997E-002   -0.10915953289470534     
   2.4900000000000005E-002   -0.14406389470079720     
   2.5200000000000000E-002   -0.18509440907237357     
   2.5499999999999995E-002   -0.23158373116578673     
   2.5800000000000003E-002   -0.28203373803944393     
   2.6099999999999998E-002   -0.33394061868313257     
   2.6400000000000007E-002   -0.38366498147554035     
   2.6700000000000002E-002   -0.42632683034202923     
   2.6999999999999996E-002   -0.45580342919789119     
   2.7300000000000005E-002   -0.46494433194857165     
   2.7600000000000000E-002   -0.44589882719718732     
   2.7900000000000008E-002   -0.39056635845599974     
   2.8200000000000003E-002   -0.29125489748123184     
   2.8499999999999998E-002   -0.14162447642616335     
   2.8800000000000006E-002     6.2359331033214810E-002
   2.9100000000000001E-002    0.32156076302852854     
   2.9400000000000003E-002    0.63270092899680019     
   2.9700000000000004E-002    0.98761288833683003     
   3.0000000000000006E-002     1.3728724681261932     
   3.0300000000000001E-002     1.7697516282887600     
   3.0600000000000002E-002     2.1545914601321079     
   3.0900000000000004E-002     2.4999353868109058     
   3.1199999999999999E-002     2.7761319553065333     
   3.1500000000000007E-002     2.9533785479232919     
   3.1800000000000002E-002     3.0040616968098290     
   3.2099999999999997E-002     2.9053685194343792     
   3.2400000000000005E-002     2.6417795984139083     
   3.2700000000000000E-002     2.2075479207150357     
   3.3000000000000002E-002     1.6080604298685961     
   3.3300000000000003E-002    0.86110770550584825     
   3.3599999999999998E-002    -3.3967639011226042E-003
   3.3900000000000000E-002   -0.94458762069165914     
   3.4200000000000001E-002    -1.9123459532524003     
   3.4500000000000003E-002    -2.8507070533326910     
   3.4799999999999998E-002    -3.7014560257664453     
   3.5099999999999999E-002    -4.4084263992416579     
   3.5400000000000001E-002    -4.9217987775131702     
   3.5699999999999996E-002    -5.2022241238473637     
   3.6000000000000004E-002    -5.2243297445301611     
   3.6299999999999999E-002    -4.9788733994570613     
   3.6600000000000008E-002    -4.4743918405510152     
   3.6900000000000002E-002    -3.7369261992746861     
   3.7199999999999997E-002    -2.8088459690244152     
   3.7500000000000006E-002    -1.7461170819004170     
   3.7800000000000000E-002   -0.61426497272416714     
   3.8100000000000009E-002    0.51576970317938742     
   3.8400000000000004E-002     1.5726057847915416     
   3.8699999999999998E-002     2.4895408679895130     
   3.9000000000000007E-002     3.2093540815122195     
   3.9300000000000002E-002     3.6879637229416220     
   3.9600000000000003E-002     3.8974121062744187     
   3.9900000000000005E-002     3.8278175005511237     
   4.0200000000000000E-002     3.4877367340897742     
   4.0500000000000001E-002     2.9032424897207858     
   4.0800000000000003E-002     2.1161360730922523     
   4.1100000000000005E-002     1.1804563055448130     
   4.1399999999999999E-002    0.15906564935355294     
   4.1700000000000008E-002   -0.88168580973367772     
   4.2000000000000003E-002    -1.8760559793912284     
   4.2299999999999997E-002    -2.7637262157694806     
   4.2600000000000006E-002    -3.4940088602526966     
   4.2900000000000001E-002    -4.0286862451220911     
   4.3200000000000002E-002    -4.3448104631154649     
   4.3500000000000004E-002    -4.4351107380583672     
   4.3799999999999999E-002    -4.3084443176249323     
   4.4100000000000000E-002    -3.9876561322449451     
   4.4400000000000002E-002    -3.5072671432876352     
   4.4700000000000004E-002    -2.9098381154349333     
   4.4999999999999998E-002    -2.2417059385365015     
   4.5300000000000000E-002    -1.5490483282295833     
   4.5600000000000002E-002   -0.87365068239146315     
   4.5899999999999996E-002   -0.24997983740366658     
   4.6200000000000005E-002    0.29729541876865395     
   4.6500000000000000E-002    0.75480004066236261     
   4.6799999999999994E-002     1.1201026729824222     
   4.7100000000000003E-002     1.4008382740337075     
   4.7399999999999998E-002     1.6123816577805199     
   4.7700000000000006E-002     1.7753818205053600     
   4.8000000000000001E-002     1.9124776615292003     
   4.8300000000000010E-002     2.0458272128435171     
   4.8600000000000004E-002     2.1948394539379983     
   4.8899999999999999E-002     2.3741837481233752     
   4.9200000000000008E-002     2.5927343806856666     
   4.9500000000000002E-002     2.8540529917664230     
   4.9800000000000011E-002     3.1560516814704336     
   5.0100000000000006E-002     3.4931300721796932     
   5.0400000000000000E-002     3.8567936591515064     
   5.0700000000000009E-002     4.2366659227149732     
   5.1000000000000004E-002     4.6214490591412209     
   5.1299999999999998E-002     4.9988597910274599     
   5.1600000000000007E-002     5.3559706442938282     
   5.1900000000000002E-002     5.6782931841501707     
   5.2200000000000010E-002     5.9494834523874980     
   5.2500000000000005E-002     6.1513314158033801     
   5.2800000000000000E-002     6.2627891681700785     
   5.3099999999999994E-002     6.2616939180950979     
   5.3400000000000003E-002     6.1254589090650278     
   5.3699999999999998E-002     5.8337204484788430     
   5.4000000000000006E-002     5.3714731739976251     
   5.4300000000000001E-002     4.7317082330288676     
   5.4599999999999996E-002     3.9175818232467723     
   5.4900000000000004E-002     2.9451424792013587     
   5.5199999999999999E-002     1.8437071251490522     
   5.5499999999999994E-002    0.65524777035684156     
   5.5800000000000002E-002   -0.56748072018917672     
   5.6099999999999997E-002    -1.7649410154104750     
   5.6400000000000006E-002    -2.8759586621192552     
   5.6700000000000000E-002    -3.8423623916941576     
   5.6999999999999995E-002    -4.6157762879371287     
   5.7300000000000004E-002    -5.1635185599022924     
   5.7599999999999998E-002    -5.4721392039517713     
   5.7900000000000007E-002    -5.5501983823099472     
   5.8200000000000002E-002    -5.4293922026090105     
   5.8499999999999996E-002    -5.1616217342962258     
   5.8800000000000005E-002    -4.8165668993438437     
   5.9100000000000000E-002    -4.4756665291160100     
   5.9400000000000008E-002    -4.2233169534518069     
   5.9700000000000003E-002    -4.1397758892231398     
   6.0000000000000012E-002    -4.2898085279656648     
   6.0300000000000006E-002    -4.7160427220003607     
   6.0600000000000001E-002    -5.4300985202047336     
   6.0900000000000010E-002    -6.4077517728188056     
   6.1200000000000004E-002    -7.5864080857560054     
   6.1500000000000013E-002    -8.8647453731883452     
   6.1800000000000008E-002    -10.108629167113582     
   6.2100000000000002E-002    -11.158256324235889     
   6.2399999999999997E-002    -11.842072882710527     
   6.2700000000000006E-002    -11.991258091981335     
   6.3000000000000000E-002    -11.458037801594308     
   6.3300000000000009E-002    -10.133363621933199     
   6.3600000000000004E-002    -7.9628381497776175     
   6.3899999999999998E-002    -4.9616837976305916     
   6.4199999999999993E-002    -1.2217096724183119     
   6.4500000000000002E-002     3.0853763427578591     
   6.4800000000000010E-002     7.7156761042467021     
   6.5100000000000005E-002     12.366213692435547     
   6.5400000000000000E-002     16.695961762779518     
   6.5700000000000008E-002     20.353401769719042     
   6.5999999999999989E-002     23.005991679156338     
   6.6299999999999998E-002     24.371297055413578     
   6.6600000000000006E-002     24.246027939113514     
   6.6900000000000001E-002     22.526584481134407     
   6.7199999999999996E-002     19.225095480315730     
   6.7500000000000004E-002     14.472722434129281     
   6.7800000000000013E-002     8.5137615841176721     
   6.8099999999999994E-002     1.6892376265250135     
   6.8400000000000002E-002    -5.5885200113813021     
   6.8700000000000011E-002    -12.866855814471165     
   6.8999999999999992E-002    -19.688166944685086     
   6.9300000000000000E-002    -25.623889721749393     
   6.9600000000000009E-002    -30.305358188481780     
   6.9900000000000004E-002    -33.447838695475156     
   7.0199999999999999E-002    -34.869375966904386     
   7.0500000000000007E-002    -34.497433167676775     
   7.0800000000000016E-002    -32.369059007130481     
   7.1099999999999997E-002    -28.620743531428872     
   7.1400000000000005E-002    -23.472769661234157     
   7.1700000000000000E-002    -17.208742595895128     
   7.1999999999999995E-002    -10.153650185176389     
   7.2300000000000003E-002    -2.6516803256818164     
   7.2600000000000012E-002     4.9553276575772784     
   7.2900000000000006E-002     12.343618145217256     
   7.3200000000000001E-002     19.223533435645116     
   7.3499999999999996E-002     25.345735286410054     
   7.3800000000000004E-002     30.511244218710427     
   7.4099999999999999E-002     34.569473094660538     
   7.4400000000000008E-002     37.422184070685816     
   7.4700000000000003E-002     39.018876099125016     
   7.5000000000000011E-002     39.353929841146730     
   7.5299999999999992E-002     38.465285292526595     
   7.5600000000000001E-002     36.429155334699395     
   7.5900000000000009E-002     33.357359735676134     
   7.6200000000000004E-002     29.392256994161720     
   7.6499999999999999E-002     24.699906359477424     
   7.6800000000000007E-002     19.466294586625352     
   7.7099999999999988E-002     13.886840396970499     
   7.7399999999999997E-002     8.1617376120940008     
   7.7700000000000005E-002     2.4869318072731197     
   7.8000000000000014E-002    -2.9539046769927308     
   7.8299999999999995E-002    -7.9982623081970079     
   7.8600000000000003E-002    -12.509820884446182     
   7.8900000000000012E-002    -16.384052928262129     
   7.9199999999999993E-002    -19.552053153363946     
   7.9500000000000001E-002    -21.979857646551189     
   7.9800000000000010E-002    -23.667200638346856     
   8.0100000000000018E-002    -24.645535894296948     
   8.0399999999999999E-002    -24.972831583275653     
   8.0700000000000008E-002    -24.728147619504647     
   8.1000000000000003E-002    -24.003619515686680     
   8.1299999999999997E-002    -22.897916555764247     
   8.1600000000000006E-002    -21.509816931610342     
   8.1900000000000014E-002    -19.930997655270136     
   8.2199999999999995E-002    -18.242435998727117     
   8.2500000000000004E-002    -16.507553695946086     
   8.2799999999999999E-002    -14.774544189679208     
   8.3100000000000007E-002    -13.071144469648580     
   8.3400000000000002E-002    -11.407903048814495     
   8.3700000000000011E-002    -9.7804156879051227     
   8.4000000000000005E-002    -8.1719427913064244     
   8.4300000000000000E-002    -6.5582878265387929     
   8.4599999999999995E-002    -4.9132188535308243     
   8.4900000000000003E-002    -3.2146232349060879     
   8.5199999999999998E-002    -1.4492436387581256     
   8.5500000000000007E-002    0.38583361742934019     
   8.5800000000000001E-002     2.2797627633362789     
   8.6100000000000010E-002     4.2081362701850651     
   8.6399999999999991E-002     6.1328813787170500     
   8.6699999999999999E-002     8.0044521820380812     
   8.7000000000000008E-002     9.7635706080380427     
   8.7300000000000003E-002     11.348279274921694     
   8.7599999999999997E-002     12.698317772048531     
   8.7900000000000006E-002     13.760653744659635     
   8.8200000000000014E-002     14.492948487941433     
   8.8499999999999995E-002     14.866410015390613     
   8.8800000000000004E-002     14.869415665081700     
   8.9100000000000013E-002     14.507147779878974     
   8.9399999999999993E-002     13.802971731155957     
   8.9700000000000002E-002     12.797092246452266     
   9.0000000000000011E-002     11.543387196626041     
   9.0299999999999991E-002     10.105996188781152     
   9.0600000000000000E-002     8.5553306772697955     
   9.0900000000000009E-002     6.9633358586590415     
   9.1200000000000017E-002     5.3989855733198056     
   9.1499999999999998E-002     3.9224699232463456     
   9.1800000000000007E-002     2.5839808017355743     
   9.2100000000000001E-002     1.4179047410967469     
   9.2399999999999996E-002    0.44385657698402703     
   9.2700000000000005E-002   -0.33563281749118368     
   9.3000000000000013E-002   -0.93262025017172512     
   9.3300000000000008E-002    -1.3732289651460348     
   9.3600000000000003E-002    -1.6929208095464821     
   9.3899999999999997E-002    -1.9350589875053883     
   9.4200000000000006E-002    -2.1421473684118930     
   9.4500000000000001E-002    -2.3535183222372482     
   9.4800000000000009E-002    -2.6010796250621286     
   9.5100000000000004E-002    -2.9063647416807044     
   9.5399999999999999E-002    -3.2785411559631705     
   9.5699999999999993E-002    -3.7146410409315447     
   9.6000000000000002E-002    -4.1986257896946118     
   9.6300000000000011E-002    -4.7031680679940271     
   9.6600000000000005E-002    -5.1932091054349341     
   9.6900000000000000E-002    -5.6288440966103241     
   9.7200000000000009E-002    -5.9697497095231009     
   9.7499999999999989E-002    -6.1794224142610306     
   9.7799999999999998E-002    -6.2283646448149783     
   9.8100000000000007E-002    -6.0963464030162076     
   9.8400000000000015E-002    -5.7758303575979815     
   9.8699999999999996E-002    -5.2704705259068154     
   9.9000000000000005E-002    -4.5975148646485753     
   9.9300000000000013E-002    -3.7864772290183151     
   9.9599999999999994E-002    -2.8763059314618902     
   9.9900000000000003E-002    -1.9151469366538563     
  0.10020000000000001        -0.95489908897342080     
  0.10049999999999999         -4.7373543881173430E-002
  0.10080000000000000         0.75809198006145007     
  0.10110000000000001          1.4203557400259013     
  0.10140000000000000          1.9067842546611526     
  0.10170000000000000          2.1965632282150516     
  0.10200000000000001          2.2818933432756183     
  0.10230000000000002          2.1703262545904871     
  0.10260000000000000          1.8842876134320314     
  0.10290000000000001          1.4604119668562723     
  0.10320000000000000         0.94570358885735151     
  0.10350000000000001         0.39389586449081826     
  0.10380000000000000        -0.13920030700762992     
  0.10410000000000001        -0.59752710055463409     
  0.10440000000000001        -0.93059220847524249     
  0.10470000000000000         -1.0961445170579387     
  0.10500000000000000         -1.0662693453076191     
  0.10530000000000000        -0.82993556763806187     
  0.10560000000000000        -0.39500982792113487     
  0.10590000000000001         0.21227660678738530     
  0.10620000000000000         0.94989722984292912     
  0.10650000000000001          1.7626786967797794     
  0.10679999999999999          2.5860765042329579     
  0.10710000000000000          3.3520052211938056     
  0.10740000000000001          3.9936312384885140     
  0.10770000000000000          4.4520469341285729     
  0.10800000000000000          4.6833834761858819     
  0.10830000000000001          4.6612066140413964     
  0.10859999999999999          4.3809726036459216     
  0.10890000000000000          3.8578963521160112     
  0.10920000000000001          3.1271837023114397     
  0.10950000000000001          2.2406482222007722     
  0.10979999999999999          1.2612720285046792     
  0.11009999999999999         0.25870061469586991     
  0.11040000000000001        -0.69773975172228786     
  0.11070000000000001         -1.5459322882401236     
  0.11100000000000000         -2.2352449333083428     
  0.11130000000000000         -2.7312108678377789     
  0.11160000000000002         -3.0166281203815366     
  0.11190000000000001         -3.0922055194230404     
  0.11220000000000001         -2.9766835610285849     
  0.11250000000000000         -2.7019665700302617     
  0.11280000000000000         -2.3105246831378494     
  0.11309999999999999         -1.8514390512023629     
  0.11340000000000001         -1.3738375986230638     
  0.11369999999999998        -0.92421363318799288     
  0.11400000000000000        -0.54257836925042680     
  0.11430000000000000        -0.25776537085442386     
  0.11460000000000002         -8.8096601411055353E-002
  0.11489999999999999         -3.7976139072005421E-002
  0.11520000000000001        -0.10047805305286112     
  0.11550000000000001        -0.25725052997922981     
  0.11580000000000000        -0.48210435494619530     
  0.11609999999999999        -0.74174214295480190     
  0.11640000000000002         -1.0022803157378490     
  0.11670000000000001         -1.2290876499187715     
  0.11700000000000001         -1.3927190880086855     
  0.11730000000000000         -1.4697848205129691     
  0.11760000000000000         -1.4452315958128836     
  0.11789999999999999         -1.3146557391098410     
  0.11820000000000001         -1.0830716491338257     
  0.11850000000000001        -0.76609838449126855     
  0.11880000000000000        -0.38695413131895307     
  0.11910000000000000          2.6259518719214087E-002
  0.11940000000000002         0.44257015863379134     
  0.11970000000000001         0.83162626216526903     
  0.12000000000000001          1.1651539245930231     
  0.12030000000000000          1.4196283313950413     
  0.12060000000000000          1.5783899386883560     
  0.12089999999999999          1.6332323226159238     
  0.12119999999999999          1.5856706701862677     
  0.12150000000000001          1.4459645125647809     
  0.12180000000000001          1.2311054985833310     
  0.12210000000000000         0.96220027459790591     
  0.12239999999999999         0.66433546112342778     
  0.12270000000000002         0.36360032687483923     
  0.12300000000000001          8.5036157787214711E-002
  0.12330000000000001        -0.14753209126739592     
  0.12360000000000000        -0.31742427080875113     
  0.12390000000000000        -0.41336437917549201     
  0.12419999999999999        -0.43231084133218234     
  0.12450000000000001        -0.37880381557856219     
  0.12480000000000001        -0.26216050362318544     
  0.12509999999999999         -9.8584254959258044E-002
  0.12540000000000001          9.3019804477815854E-002
  0.12570000000000003         0.29110353886153073     
  0.12600000000000000         0.47343615736038941     
  0.12630000000000002         0.62092216269699496     
  0.12659999999999999         0.71738817475548822     
  0.12690000000000001         0.75323035155297069     
  0.12719999999999998         0.72321988007425742     
  0.12750000000000000         0.62949873307716731     
  0.12780000000000002         0.47942656410661255     
  0.12809999999999999         0.28614646632485075     
  0.12840000000000001          6.6486250253844414E-002
  0.12869999999999998        -0.16075767212282441     
  0.12900000000000000        -0.37614267363189258     
  0.12930000000000003        -0.56204740244587281     
  0.12959999999999999        -0.70213385242145288     
  0.12990000000000002        -0.78527374832101393     
  0.13019999999999998        -0.80302419180652906     
  0.13050000000000000        -0.75356745277555981     
  0.13080000000000003        -0.64060102328523338     
  0.13109999999999999        -0.47217675888767563     
  0.13140000000000002        -0.26158820382287562     
  0.13169999999999998         -2.4223265974908009E-002
  0.13200000000000001         0.22222144474812155     
  0.13229999999999997         0.45976579588016320     
  0.13260000000000000         0.67085267094769863     
  0.13290000000000002         0.84006234679487268     
  0.13319999999999999         0.95526581770802554     
  0.13350000000000001          1.0082868282147304     
  0.13380000000000003         0.99662597531517472     
  0.13410000000000000         0.92248707451238476     
  0.13440000000000002         0.79335930124992604     
  0.13469999999999999         0.61943588098523472     
  0.13500000000000001         0.41483923656341537     
  0.13529999999999998         0.19345930155922109     
  0.13560000000000000         -2.8924142896575408E-002
  0.13590000000000002        -0.23763167494177956     
  0.13619999999999999        -0.41847595266273890     
  0.13650000000000001        -0.56163194802782546     
  0.13680000000000003        -0.66040597054247829     
  0.13710000000000000        -0.71257278596525653     
  0.13740000000000002        -0.71942486643900461     
  0.13769999999999999        -0.68541999165781997     
  0.13800000000000001        -0.61597517735020824     
  0.13829999999999998        -0.51988249371303463     
  0.13860000000000000        -0.40657616197724761     
  0.13890000000000002        -0.28724632423019575     
  0.13919999999999999        -0.17284144455683095     
  0.13950000000000001         -7.2147888660760648E-002
  0.13979999999999998          8.5528437203844423E-003
  0.14010000000000000          6.5276081074559178E-002
  0.14040000000000002          9.7070853904891632E-002
  0.14069999999999999         0.10351231433922517     
  0.14100000000000001          8.6704048335733558E-002
  0.14130000000000004          5.1548569499960784E-002
  0.14160000000000000          3.9071032098507152E-003
  0.14189999999999997         -4.8623378968036507E-002
  0.14219999999999999        -0.10023187155363183     
  0.14250000000000002        -0.14470624556022219     
  0.14279999999999998        -0.17874649787115204     
  0.14310000000000000        -0.19944229377404005     
  0.14339999999999997        -0.20548785002975384     
  0.14369999999999999        -0.19693227909575836     
  0.14400000000000002        -0.17477602414958926     
  0.14429999999999998        -0.14184530416935809     
  0.14460000000000001        -0.10145082074013204     
  0.14490000000000003         -5.6755570407873004E-002
  0.14520000000000000         -1.1195490213548320E-002
  0.14550000000000002          3.2026275661249826E-002
  0.14579999999999999          7.0521574134346857E-002
  0.14610000000000001         0.10107244917637558     
  0.14640000000000003         0.12198655635222869     
  0.14670000000000000         0.13177279544647152     
  0.14699999999999996         0.12887865297615012     
  0.14729999999999999         0.11421738414738020     
  0.14760000000000001          8.6629972342849249E-002
  0.14789999999999998          4.8866445540796083E-002
  0.14820000000000000          3.6524163361365547E-003