  -1.4999999999999999E-002     0.0000000000000000     
  -1.4700000000000000E-002     0.0000000000000000     
  -1.4400000000000000E-002     0.0000000000000000     
  -1.4100000000000000E-002     0.0000000000000000     
  -1.3800000000000000E-002     0.0000000000000000     
  -1.3500000000000000E-002     0.0000000000000000     
  -1.3200000000000000E-002     0.0000000000000000     
  -1.2899999999999998E-002     0.0000000000000000     
  -1.2600000000000000E-002     0.0000000000000000     
  -1.2299999999999998E-002     0.0000000000000000     
  -1.2000000000000000E-002     0.0000000000000000     
  -1.1699999999999999E-002     0.0000000000000000     
  -1.1399999999999999E-002     0.0000000000000000     
  -1.1099999999999999E-002     0.0000000000000000     
  -1.0799999999999999E-002     0.0000000000000000     
  -1.0499999999999999E-002     0.0000000000000000     
  -1.0199999999999999E-002     0.0000000000000000     
  -9.8999999999999991E-003     0.0000000000000000     
  -9.5999999999999992E-003     0.0000000000000000     
  -9.2999999999999992E-003     0.0000000000000000     
  -8.9999999999999993E-003     0.0000000000000000     
  -8.6999999999999994E-003     0.0000000000000000     
  -8.3999999999999995E-003     0.0000000000000000     
  -8.0999999999999996E-003     0.0000000000000000     
  -7.7999999999999988E-003     0.0000000000000000     
  -7.4999999999999997E-003     0.0000000000000000     
  -7.1999999999999998E-003     0.0000000000000000     
  -6.8999999999999981E-003     0.0000000000000000     
  -6.5999999999999982E-003     0.0000000000000000     
  -6.3000000000000000E-003     0.0000000000000000     
  -6.0000000000000001E-003     0.0000000000000000     
  -5.6999999999999985E-003     0.0000000000000000     
  -5.3999999999999986E-003     0.0000000000000000     
  -5.1000000000000004E-003     0.0000000000000000     
  -4.7999999999999987E-003     0.0000000000000000     
  -4.5000000000000005E-003     0.0000000000000000     
  -4.1999999999999989E-003     0.0000000000000000     
  -3.8999999999999990E-003     0.0000000000000000     
  -3.5999999999999990E-003     0.0000000000000000     
  -3.2999999999999991E-003     0.0000000000000000     
  -2.9999999999999992E-003     0.0000000000000000     
  -2.6999999999999993E-003     0.0000000000000000     
  -2.3999999999999994E-003     0.0000000000000000     
  -2.0999999999999977E-003     0.0000000000000000     
  -1.7999999999999995E-003     0.0000000000000000     
  -1.4999999999999979E-003     0.0000000000000000     
  -1.1999999999999997E-003     0.0000000000000000     
  -8.9999999999999976E-004     0.0000000000000000     
  -5.9999999999999810E-004     0.0000000000000000     
  -2.9999999999999992E-004     0.0000000000000000     
   0.0000000000000000          0.0000000000000000     
   3.0000000000000165E-004     0.0000000000000000     
   5.9999999999999984E-004     0.0000000000000000     
   9.0000000000000149E-004     0.0000000000000000     
   1.2000000000000031E-003     0.0000000000000000     
   1.5000000000000013E-003     0.0000000000000000     
   1.8000000000000030E-003     0.0000000000000000     
   2.1000000000000012E-003     0.0000000000000000     
   2.3999999999999994E-003     0.0000000000000000     
   2.7000000000000010E-003     0.0000000000000000     
   2.9999999999999992E-003     0.0000000000000000     
   3.3000000000000008E-003     0.0000000000000000     
   3.6000000000000025E-003     0.0000000000000000     
   3.9000000000000007E-003     0.0000000000000000     
   4.2000000000000023E-003     0.0000000000000000     
   4.5000000000000005E-003     0.0000000000000000     
   4.7999999999999987E-003     0.0000000000000000     
   5.1000000000000004E-003     0.0000000000000000     
   5.4000000000000020E-003     0.0000000000000000     
   5.7000000000000037E-003     0.0000000000000000     
   5.9999999999999984E-003     0.0000000000000000     
   6.3000000000000000E-003     0.0000000000000000     
   6.6000000000000017E-003     0.0000000000000000     
   6.9000000000000034E-003     0.0000000000000000     
   7.2000000000000015E-003     0.0000000000000000     
   7.5000000000000032E-003     0.0000000000000000     
   7.8000000000000014E-003     0.0000000000000000     
   8.0999999999999996E-003     0.0000000000000000     
   8.4000000000000012E-003     0.0000000000000000     
   8.7000000000000029E-003     0.0000000000000000     
   9.0000000000000011E-003     0.0000000000000000     
   9.2999999999999992E-003     0.0000000000000000     
   9.6000000000000009E-003     0.0000000000000000     
   9.8999999999999991E-003     0.0000000000000000     
   1.0200000000000001E-002     0.0000000000000000     
   1.0500000000000002E-002     0.0000000000000000     
   1.0800000000000004E-002     0.0000000000000000     
   1.1099999999999999E-002     0.0000000000000000     
   1.1400000000000000E-002     0.0000000000000000     
   1.1700000000000002E-002     0.0000000000000000     
   1.2000000000000004E-002     0.0000000000000000     
   1.2300000000000002E-002     0.0000000000000000     
   1.2600000000000000E-002     0.0000000000000000     
   1.2900000000000002E-002     0.0000000000000000     
   1.3200000000000000E-002     0.0000000000000000     
   1.3500000000000002E-002     0.0000000000000000     
   1.3800000000000003E-002     0.0000000000000000     
   1.4100000000000001E-002     0.0000000000000000     
   1.4400000000000000E-002     0.0000000000000000     
   1.4700000000000001E-002     0.0000000000000000     
   1.4999999999999999E-002     0.0000000000000000     
   1.5300000000000001E-002     0.0000000000000000     
   1.5600000000000003E-002     0.0000000000000000     
   1.5899999999999997E-002     0.0000000000000000     
   1.6199999999999999E-002     0.0000000000000000     
   1.6500000000000001E-002     0.0000000000000000     
   1.6800000000000002E-002     0.0000000000000000     
   1.7100000000000004E-002     0.0000000000000000     
   1.7400000000000006E-002     0.0000000000000000     
   1.7700000000000000E-002     0.0000000000000000     
   1.8000000000000002E-002     0.0000000000000000     
   1.8300000000000004E-002     0.0000000000000000     
   1.8600000000000005E-002     0.0000000000000000     
   1.8900000000000000E-002     0.0000000000000000     
   1.9200000000000002E-002     0.0000000000000000     
   1.9500000000000003E-002     0.0000000000000000     
   1.9799999999999998E-002     0.0000000000000000     
   2.0100000000000000E-002     0.0000000000000000     
   2.0400000000000001E-002     0.0000000000000000     
   2.0700000000000003E-002     0.0000000000000000     
   2.0999999999999998E-002     0.0000000000000000     
   2.1299999999999999E-002     0.0000000000000000     
   2.1600000000000001E-002     0.0000000000000000     
   2.1900000000000003E-002     0.0000000000000000     
   2.2200000000000004E-002     0.0000000000000000     
   2.2500000000000006E-002     0.0000000000000000     
   2.2800000000000001E-002     0.0000000000000000     
   2.3100000000000002E-002     0.0000000000000000     
   2.3400000000000004E-002     0.0000000000000000     
   2.3699999999999999E-002     0.0000000000000000     
   2.4000000000000000E-002     0.0000000000000000     
   2.4300000000000002E-002     0.0000000000000000     
   2.4599999999999997E-002     0.0000000000000000     
   2.4900000000000005E-002     0.0000000000000000     
   2.5200000000000000E-002     0.0000000000000000     
   2.5499999999999995E-002     0.0000000000000000     
   2.5800000000000003E-002     0.0000000000000000     
   2.6099999999999998E-002     0.0000000000000000     
   2.6400000000000007E-002     0.0000000000000000     
   2.6700000000000002E-002     0.0000000000000000     
   2.6999999999999996E-002     0.0000000000000000     
   2.7300000000000005E-002     0.0000000000000000     
   2.7600000000000000E-002     0.0000000000000000     
   2.7900000000000008E-002     0.0000000000000000     
   2.8200000000000003E-002     0.0000000000000000     
   2.8499999999999998E-002     0.0000000000000000     
   2.8800000000000006E-002     3.3001271648187337E-044
   2.9100000000000001E-002    -2.7247301910561243E-043
   2.9400000000000003E-002    -5.3643812701802441E-037
   2.9700000000000004E-002    -1.8710622820584767E-035
   3.0000000000000006E-002     4.6640071698710772E-035
   3.0300000000000001E-002     6.4858819273311351E-034
   3.0600000000000002E-002    -2.8536412461153013E-033
   3.0900000000000004E-002     5.0916994979546005E-033
   3.1199999999999999E-002     1.3816248611464803E-032
   3.1500000000000007E-002    -1.2558201598779003E-031
   3.1800000000000002E-002     5.4975034637848879E-031
   3.2099999999999997E-002    -1.9153990449923549E-030
   3.2400000000000005E-002     5.7668541252322616E-030
   3.2700000000000000E-002    -1.5162693589048224E-029
   3.3000000000000002E-002     3.4128731954904974E-029
   3.3300000000000003E-002    -6.1038243689421091E-029
   3.3599999999999998E-002     6.1841205295751834E-029
   3.3900000000000000E-002     1.0729749127827091E-028
   3.4200000000000001E-002    -8.7138787603570508E-028
   3.4500000000000003E-002     3.2006445778559605E-027
   3.4799999999999998E-002    -8.7080417050115310E-027
   3.5099999999999999E-002     1.8563528135291288E-026
   3.5400000000000001E-002    -2.8741022354506066E-026
   3.5699999999999996E-002     1.7732397588812119E-026
   3.6000000000000004E-002     7.4541242628356487E-026
   3.6299999999999999E-002    -3.6212191221264245E-025
   3.6600000000000008E-002     9.6827741384494697E-025
   3.6900000000000002E-002    -1.8113200566926129E-024
   3.7199999999999997E-002     2.1213440583870761E-024
   3.7500000000000006E-002     1.4594877480114130E-025
   3.7800000000000000E-002    -8.1334300347993082E-024
   3.8100000000000009E-002     2.3574570186117695E-023
   3.8400000000000004E-002    -4.1760531435697354E-023
   3.8699999999999998E-002     5.0781967690735772E-023
   3.9000000000000007E-002    -5.2087938106525691E-023
   3.9300000000000002E-002     1.0239905066579124E-022
   3.9600000000000003E-002    -2.5171131038409911E-022
   3.9900000000000005E-002    -3.1142714942287136E-023
   4.0200000000000000E-002     3.3870115602706708E-021
   4.0500000000000001E-002    -1.5587951681741125E-020
   4.0800000000000003E-002     3.8043415504870843E-020
   4.1100000000000005E-002    -3.4989418554634617E-020
   4.1399999999999999E-002    -1.2792768396745368E-019
   4.1700000000000008E-002     6.8088769625681106E-019
   4.2000000000000003E-002    -1.5747237672879325E-018
   4.2299999999999997E-002     1.3165587483491815E-018
   4.2600000000000006E-002     4.5673591671761488E-018
   4.2900000000000001E-002    -2.2051755588470416E-017
   4.3200000000000002E-002     4.6218871364650310E-017
   4.3500000000000004E-002    -3.0971134377930778E-017
   4.3799999999999999E-002    -1.4249067219424489E-016
   4.4100000000000000E-002     6.1163817038008950E-016
   4.4400000000000002E-002    -1.1909449345930090E-015
   4.4700000000000004E-002     5.3518176850673791E-016
   4.4999999999999998E-002     4.6654150366028503E-015
   4.5300000000000000E-002    -1.7276398426597252E-014
   4.5600000000000002E-002     2.7110318667165823E-014
   4.5899999999999996E-002     1.2787268490421855E-014
   4.6200000000000005E-002    -1.7932492790896589E-013
   4.6500000000000000E-002     4.2231639991401452E-013
   4.6799999999999994E-002    -1.9400209970771157E-013
   4.7100000000000003E-002    -1.6015248867800637E-012
   4.7399999999999998E-002     4.7444314021610015E-012
   4.7700000000000006E-002    -3.2972809390963778E-012
   4.8000000000000001E-002    -1.4233525610942113E-011
   4.8300000000000010E-002     4.3096973968182675E-011
   4.8600000000000004E-002    -2.2823407139491875E-011
   4.8899999999999999E-002    -1.3142188002651892E-010
   4.9200000000000008E-002     3.0645128338757580E-010
   4.9500000000000002E-002     2.2010588736752311E-012
   4.9800000000000011E-002    -1.0593890898590086E-009
   5.0100000000000006E-002     1.4054107801808405E-009
   5.0400000000000000E-002     1.4478974963625640E-009
   5.0700000000000009E-002    -5.3546995339550470E-009
   5.1000000000000004E-002     1.4918236398832732E-009
   5.1299999999999998E-002     9.4883829265873137E-009
   5.1600000000000007E-002    -4.5641244792972553E-009
   5.1900000000000002E-002    -1.5627904766006826E-008
   5.2200000000000010E-002    -2.1822521683915586E-008
   5.2500000000000005E-002     1.0114377900728558E-007
   5.2800000000000000E-002     9.3084792359975823E-008
   5.3099999999999994E-002    -6.5103344483964796E-007
   5.3400000000000003E-002    -3.2242176484647643E-009
   5.3699999999999998E-002     5.4045066523967736E-006
   5.4000000000000006E-002     1.3502253593938745E-005
   5.4300000000000001E-002     1.9393545864781567E-005
   5.4599999999999996E-002     2.2691497521096861E-005
   5.4900000000000004E-002     2.8455245977564788E-005
   5.5199999999999999E-002     4.3670987770128868E-005
   5.5499999999999994E-002     7.1780563901327943E-005
   5.5800000000000002E-002     1.1252607432527026E-004
   5.6099999999999997E-002     1.6455845087260746E-004
   5.6400000000000006E-002     2.3143434251658970E-004
   5.6700000000000000E-002     3.2878421659182937E-004
   5.6999999999999995E-002     4.7104919022394111E-004
   5.7300000000000004E-002     6.6190566014704116E-004
   5.7599999999999998E-002     9.0781965408244123E-004
   5.7900000000000007E-002     1.2188151716542835E-003
   5.8200000000000002E-002     1.5993275204556588E-003
   5.8499999999999996E-002     2.0527973557443436E-003
   5.8800000000000005E-002     2.5784444617112283E-003
   5.9100000000000000E-002     3.1542956781750574E-003
   5.9400000000000008E-002     3.7402384742044174E-003
   5.9700000000000003E-002     4.2793781166413384E-003
   6.0000000000000012E-002     4.6775208679814368E-003
   6.0300000000000006E-002     4.8065453738620799E-003
   6.0600000000000001E-002     4.5109091130916944E-003
   6.0900000000000010E-002     3.5907211452018322E-003
   6.1200000000000004E-002     1.8127823596525343E-003
   6.1500000000000013E-002    -1.0596835651149588E-003
   6.1800000000000008E-002    -5.2651966201653529E-003
   6.2100000000000002E-002    -1.1020674999597189E-002
   6.2399999999999997E-002    -1.8467671361547689E-002
   6.2700000000000006E-002    -2.7640994354818815E-002
   6.3000000000000000E-002    -3.8404295550827812E-002
   6.3300000000000009E-002    -5.0382725043365169E-002
   6.3600000000000004E-002    -6.2971997871500845E-002
   6.3899999999999998E-002    -7.5303022383711449E-002
   6.4199999999999993E-002    -8.6185184556435895E-002
   6.4500000000000002E-002    -9.4163318861732154E-002
   6.4800000000000010E-002    -9.7599765239042027E-002
   6.5100000000000005E-002    -9.4754075413582523E-002
   6.5400000000000000E-002    -8.3930981434410759E-002
   6.5700000000000008E-002    -6.3657935563748699E-002
   6.5999999999999989E-002    -3.2884834290062261E-002
   6.6299999999999998E-002     8.8088201352308215E-003
   6.6600000000000006E-002     6.1025935961130838E-002
   6.6900000000000001E-002    0.12240948484936123     
   6.7199999999999996E-002    0.19056401745144400     
   6.7500000000000004E-002    0.26207248869247929     
   6.7800000000000013E-002    0.33261104328826724     
   6.8099999999999994E-002    0.39715003241214680     
   6.8400000000000002E-002    0.45029514599231102     
   6.8700000000000011E-002    0.48672863613693551     
   6.8999999999999992E-002    0.50165292472378109     
   6.9300000000000000E-002    0.49125712897550050     
   6.9600000000000009E-002    0.45318150085884901     
   6.9900000000000004E-002    0.38692053337063370     
   7.0199999999999999E-002    0.29400016512459332     
   7.0500000000000007E-002    0.17804882905787328     
   7.0800000000000016E-002     4.4721896152469312E-002
   7.1099999999999997E-002    -9.8607285262131042E-002
   7.1400000000000005E-002   -0.24339868043976859     
   7.1700000000000000E-002   -0.38052525313423580     
   7.1999999999999995E-002   -0.50091609229573664     
   7.2300000000000003E-002   -0.59638473791766677     
   7.2600000000000012E-002   -0.66031131898895790     
   7.2900000000000006E-002   -0.68816427294497251     
   7.3200000000000001E-002   -0.67789236540410103     
   7.3499999999999996E-002   -0.63016281079233893     
   7.3800000000000004E-002   -0.54838129953623160     
   7.4099999999999999E-002   -0.43835278793825772     
   7.4400000000000008E-002   -0.30777768987246523     
   7.4700000000000003E-002   -0.16576167332040506     
   7.5000000000000011E-002    -2.2055667598712168E-002
   7.5299999999999992E-002    0.11378899907476904     
   7.5600000000000001E-002    0.23301106558415183     
   7.5900000000000009E-002    0.32831751207741783     
   7.6200000000000004E-002    0.39430030449077957     
   7.6499999999999999E-002    0.42775982061629114     
   7.6800000000000007E-002    0.42782264379720247     
   7.7099999999999988E-002    0.39577659205049642     
   7.7399999999999997E-002    0.33482285218930780     
   7.7700000000000005E-002    0.24976982060433392     
   7.8000000000000014E-002    0.14652477991169863     
   7.8299999999999995E-002     3.1583366407561854E-002
   7.8600000000000003E-002    -8.8486639627476035E-002
   7.8900000000000012E-002   -0.20736375173760666     
   7.9199999999999993E-002   -0.31932808806977858     
   7.9500000000000001E-002   -0.41960459362697106     
   7.9800000000000010E-002   -0.50447180753092502     
   8.0100000000000018E-002   -0.57121774808547798     
   8.0399999999999999E-002   -0.61813030156084603     
   8.0700000000000008E-002   -0.64443508440587260     
   8.1000000000000003E-002   -0.65020231091386504     
   8.1299999999999997E-002   -0.63601092102236689     
   8.1600000000000006E-002   -0.60278895910325658     
   8.1900000000000014E-002   -0.55197218192503461     
   8.2199999999999995E-002   -0.48506462339321038     
   8.2500000000000004E-002   -0.40363579306673791     
   8.2799999999999999E-002   -0.30941091766622847     
   8.3100000000000007E-002   -0.20420255966004469     
   8.3400000000000002E-002    -8.9897980978004277E-002
   8.3700000000000011E-002     3.1638802218317746E-002
   8.4000000000000005E-002    0.15797109233830389     
   8.4300000000000000E-002    0.28661568523194347     
   8.4599999999999995E-002    0.41506006614688790     
   8.4900000000000003E-002    0.54000684640813712     
   8.5199999999999998E-002    0.65826163403705018     
   8.5500000000000007E-002    0.76633541135364114     
   8.5800000000000001E-002    0.86050545085961683     
   8.6100000000000010E-002    0.93731110663032802     
   8.6399999999999991E-002    0.99326127482903981     
   8.6699999999999999E-002     1.0253067604289023     
   8.7000000000000008E-002     1.0310699340364680     
   8.7300000000000003E-002     1.0089599475570783     
   8.7599999999999997E-002    0.95829593708925009     
   8.7900000000000006E-002    0.87957482660686248     
   8.8200000000000014E-002    0.77467189755575039     
   8.8499999999999995E-002    0.64665631247491384     
   8.8800000000000004E-002    0.49980288690471530     
   8.9100000000000013E-002    0.33964928016019119     
   8.9399999999999993E-002    0.17258707746082999     
   8.9700000000000002E-002     5.2906536320963910E-003
   9.0000000000000011E-002   -0.15513541625437666     
   9.0299999999999991E-002   -0.30178736325690403     
   9.0600000000000000E-002   -0.42882641564242918     
   9.0900000000000009E-002   -0.53132000576490590     
   9.1200000000000017E-002   -0.60591194488694144     
   9.1499999999999998E-002   -0.65092334881390257     
   9.1800000000000007E-002   -0.66665963178148169     
   9.2100000000000001E-002   -0.65534988848357090     
   9.2399999999999996E-002   -0.62074950973548226     
   9.2700000000000005E-002   -0.56811204911533941     
   9.3000000000000013E-002   -0.50364246977982974     
   9.3300000000000008E-002   -0.43406104680546148     
   9.3600000000000003E-002   -0.36593662954098860     
   9.3899999999999997E-002   -0.30507614123316434     
   9.4200000000000006E-002   -0.25651107846037530     
   9.4500000000000001E-002   -0.22347609613310074     
   9.4800000000000009E-002   -0.20747628601614770     
   9.5100000000000004E-002   -0.20817498621224359     
   9.5399999999999999E-002   -0.22349397641903190     
   9.5699999999999993E-002   -0.24959833828680647     
   9.6000000000000002E-002   -0.28131710039323077     
   9.6300000000000011E-002   -0.31294109110700730     
   9.6600000000000005E-002   -0.33792735932426365     
   9.6900000000000000E-002   -0.35038034965110093     
   9.7200000000000009E-002   -0.34495903856088100     
   9.7499999999999989E-002   -0.31737415644485917     
   9.7799999999999998E-002   -0.26527763772765528     
   9.8100000000000007E-002   -0.18808610194085126     
   9.8400000000000015E-002    -8.7285217255533870E-002
   9.8699999999999996E-002     3.3439094721731656E-002
   9.9000000000000005E-002    0.16845315165969918     
   9.9300000000000013E-002    0.31010379132604493     
   9.9599999999999994E-002    0.44964459036966542     
   9.9900000000000003E-002    0.57732996533081382     
  0.10020000000000001         0.68299952911557549     
  0.10049999999999999         0.75712875694881143     
  0.10080000000000000         0.79123841082078183     
  0.10110000000000001         0.77849076469049439     
  0.10140000000000000         0.71471134741883846     
  0.10170000000000000         0.59843912986821968     
  0.10200000000000001         0.43153571420420167     
  0.10230000000000002         0.21932173913985747     
  0.10260000000000000         -2.9739503392105581E-002
  0.10290000000000001        -0.30393617130867029     
  0.10320000000000000        -0.58942291508394273     
  0.10350000000000001        -0.87044088972818245     
  0.10380000000000000         -1.1304000057332311     
  0.10410000000000001         -1.3528331081523404     
  0.10440000000000001         -1.5223959340160291     
  0.10470000000000000         -1.6259391018806644     
  0.10500000000000000         -1.6531125030772496     
  0.10530000000000000         -1.5971995282658200     
  0.10560000000000000         -1.4558610525771403     
  0.10590000000000001         -1.2310304124477214     
  0.10620000000000000        -0.92922013096855227     
  0.10650000000000001        -0.56135669375591668     
  0.10679999999999999        -0.14197742120391202     
  0.10710000000000000         0.31097932515365961     
  0.10740000000000001         0.77717511315090138     
  0.10770000000000000          1.2353407841278901     
  0.10800000000000000          1.6637711266957635     
  0.10830000000000001          2.0417078684652621     
  0.10859999999999999          2.3510035398274409     
  0.10890000000000000          2.5764111527157945     
  0.10920000000000001          2.7069126686857956     
  0.10950000000000001          2.7364677526319734     
  0.10979999999999999          2.6641024646237779     
  0.11009999999999999          2.4941865406930082     
  0.11040000000000001          2.2361353693981787     
  0.11070000000000001          1.9035810105686111     
  0.11100000000000000          1.5139445915811198     
  0.11130000000000000          1.0868697778660268     
  0.11160000000000002         0.64310923894308258     
  0.11190000000000001         0.20363649447405430     
  0.11220000000000001        -0.21218189201172688     
  0.11250000000000000        -0.58731439905118932     
  0.11280000000000000        -0.90800153208187140     
  0.11309999999999999         -1.1645694417066552     
  0.11340000000000001         -1.3510937239651006     
  0.11369999999999998         -1.4663244098852728     
  0.11400000000000000         -1.5128677722989845     
  0.11430000000000000         -1.4961902726860665     
  0.11460000000000002         -1.4249454329650335     
  0.11489999999999999         -1.3093729743197351     
  0.11520000000000001         -1.1607864549045879     
  0.11550000000000001        -0.99045508698529816     
  0.11580000000000000        -0.80908553437293784     
  0.11609999999999999        -0.62696615537170064     
  0.11640000000000002        -0.45250767239147011     
  0.11670000000000001        -0.29262774119695245     
  0.11700000000000001        -0.15333370556608614     
  0.11730000000000000         -3.8965067058432126E-002
  0.11760000000000000          4.7006933792024384E-002
  0.11789999999999999         0.10191866220448147     
  0.11820000000000001         0.12426568938613529     
  0.11850000000000001         0.11298163602700118     
  0.11880000000000000          6.7950772118296365E-002
  0.11910000000000000         -9.5703889018505794E-003
  0.11940000000000002        -0.11667220975614391     
  0.11970000000000001        -0.24880184074116060     
  0.12000000000000001        -0.39960583170899916     
  0.12030000000000000        -0.56034204345575778     
  0.12060000000000000        -0.72027722839531105     
  0.12089999999999999        -0.86778281781818078     
  0.12119999999999999        -0.99042754734575444     
  0.12150000000000001         -1.0761190045837083     
  0.12180000000000001         -1.1139598502763239     
  0.12210000000000000         -1.0957596906372322     
  0.12239999999999999         -1.0169740290120299     
  0.12270000000000002        -0.87666945633092874     
  0.12300000000000001        -0.67812804271995419     
  0.12330000000000001        -0.42971482383376725     
  0.12360000000000000        -0.14335888041625258     
  0.12390000000000000         0.16648786597908563     
  0.12419999999999999         0.48311489481921710     
  0.12450000000000001         0.78887073624601667     
  0.12480000000000001          1.0668603781611228     
  0.12509999999999999          1.3024701616846521     
  0.12540000000000001          1.4832631002369192     
  0.12570000000000003          1.6002237520467311     
  0.12600000000000000          1.6480251304781977     
  0.12630000000000002          1.6252590162304159     
  0.12659999999999999          1.5340971642068639     
  0.12690000000000001          1.3796555605040364     
  0.12719999999999998          1.1699792828610498     
  0.12750000000000000         0.91498082274329595     
  0.12780000000000002         0.62669042468403269     
  0.12809999999999999         0.31815098645097578     
  0.12840000000000001          2.9396031484102301E-003
  0.12869999999999998        -0.30472927034576636     
  0.12900000000000000        -0.59090605818668240     
  0.12930000000000003        -0.84190153023224334     
  0.12959999999999999         -1.0458106415547805     
  0.12990000000000002         -1.1923887241104150     
  0.13019999999999998         -1.2735251945197463     
  0.13050000000000000         -1.2848312430833457     
  0.13080000000000003         -1.2254998230239931     
  0.13109999999999999         -1.0989771559524790     
  0.13140000000000002        -0.91284227073858148     
  0.13169999999999998        -0.67836205505817448     
  0.13200000000000001        -0.41080567021190145     
  0.13229999999999997        -0.12762854608216159     
  0.13260000000000000         0.15262391229329830     
  0.13290000000000002         0.41124328112567127     
  0.13319999999999999         0.63093004130884189     
  0.13350000000000001         0.79712782864098441     
  0.13380000000000003         0.89899259078188298     
  0.13410000000000000         0.93032645747500908     
  0.13440000000000002         0.88960307282144002     
  0.13469999999999999         0.78010522233898982     
  0.13500000000000001         0.60963718099180875     
  0.13529999999999998         0.38966810498226961     
  0.13560000000000000         0.13447099775385771     
  0.13590000000000002        -0.14004849124768873     
  0.13619999999999999        -0.41720308712676946     
  0.13650000000000001        -0.68058214011520501     
  0.13680000000000003        -0.91522156048660608     
  0.13710000000000000         -1.1081319456248588     
  0.13740000000000002         -1.2484780048778079     
  0.13769999999999999         -1.3288232835130400     
  0.13800000000000001         -1.3447163870571779     
  0.13829999999999998         -1.2946007996493833     
  0.13860000000000000         -1.1801510542237910     
  0.13890000000000002         -1.0062101476636613     
  0.13919999999999999        -0.77985935061364675     
  0.13950000000000001        -0.51050856791749544     
  0.13979999999999998        -0.20936506801193056     
  0.14010000000000000         0.11049476837254038     
  0.14040000000000002         0.43570568654937364     
  0.14069999999999999         0.75232808167487064     
  0.14100000000000001          1.0463102471358752     
  0.14130000000000004          1.3045271200816282     
  0.14160000000000000          1.5149374886242719     
  0.14189999999999997          1.6674134502105440     
  0.14219999999999999          1.7543933207512759     
  0.14250000000000002          1.7707472857143869     
  0.14279999999999998          1.7147046102996040     
  0.14310000000000000          1.5884656598156250     
  0.14339999999999997          1.3973720837897685     
  0.14369999999999999          1.1505175249901975     
  0.14400000000000002         0.85987923946809930     
  0.14429999999999998         0.54019835107404213     
  0.14460000000000001         0.20785511121747857     
  0.14490000000000003        -0.12060201695372944     
  0.14520000000000000        -0.42908614875770179     
  0.14550000000000002        -0.70299474879530277     
  0.14579999999999999        -0.93064409157515882     
  0.14610000000000001         -1.1043028286336078     
  0.14640000000000003         -1.2199486000884048     
  0.14670000000000000         -1.2777492525230609     
  0.14699999999999996         -1.2818408717961816     
  0.14729999999999999         -1.2397083714878780     
  0.14760000000000001         -1.1613596104712929     
  0.14789999999999998         -1.0577645857795430     
  0.14820000000000000        -0.94093470681078151     