  -1.4999999999999999E-002     0.0000000000000000     
  -1.4700000000000000E-002     0.0000000000000000     
  -1.4400000000000000E-002     0.0000000000000000     
  -1.4100000000000000E-002     0.0000000000000000     
  -1.3800000000000000E-002     0.0000000000000000     
  -1.3500000000000000E-002     0.0000000000000000     
  -1.3200000000000000E-002     0.0000000000000000     
  -1.2899999999999998E-002     0.0000000000000000     
  -1.2600000000000000E-002     0.0000000000000000     
  -1.2299999999999998E-002     0.0000000000000000     
  -1.2000000000000000E-002     0.0000000000000000     
  -1.1699999999999999E-002     0.0000000000000000     
  -1.1399999999999999E-002     0.0000000000000000     
  -1.1099999999999999E-002     0.0000000000000000     
  -1.0799999999999999E-002     0.0000000000000000     
  -1.0499999999999999E-002     0.0000000000000000     
  -1.0199999999999999E-002     0.0000000000000000     
  -9.8999999999999991E-003     0.0000000000000000     
  -9.5999999999999992E-003     0.0000000000000000     
  -9.2999999999999992E-003     0.0000000000000000     
  -8.9999999999999993E-003     0.0000000000000000     
  -8.6999999999999994E-003     0.0000000000000000     
  -8.3999999999999995E-003     0.0000000000000000     
  -8.0999999999999996E-003     0.0000000000000000     
  -7.7999999999999988E-003     0.0000000000000000     
  -7.4999999999999997E-003     0.0000000000000000     
  -7.1999999999999998E-003     0.0000000000000000     
  -6.8999999999999981E-003     0.0000000000000000     
  -6.5999999999999982E-003     0.0000000000000000     
  -6.3000000000000000E-003     0.0000000000000000     
  -6.0000000000000001E-003     0.0000000000000000     
  -5.6999999999999985E-003     0.0000000000000000     
  -5.3999999999999986E-003     0.0000000000000000     
  -5.1000000000000004E-003     0.0000000000000000     
  -4.7999999999999987E-003     0.0000000000000000     
  -4.5000000000000005E-003     0.0000000000000000     
  -4.1999999999999989E-003     0.0000000000000000     
  -3.8999999999999990E-003     0.0000000000000000     
  -3.5999999999999990E-003     0.0000000000000000     
  -3.2999999999999991E-003     0.0000000000000000     
  -2.9999999999999992E-003     0.0000000000000000     
  -2.6999999999999993E-003     0.0000000000000000     
  -2.3999999999999994E-003     0.0000000000000000     
  -2.0999999999999977E-003     0.0000000000000000     
  -1.7999999999999995E-003     0.0000000000000000     
  -1.4999999999999979E-003     0.0000000000000000     
  -1.1999999999999997E-003     0.0000000000000000     
  -8.9999999999999976E-004     0.0000000000000000     
  -5.9999999999999810E-004     0.0000000000000000     
  -2.9999999999999992E-004     0.0000000000000000     
   0.0000000000000000          0.0000000000000000     
   3.0000000000000165E-004     0.0000000000000000     
   5.9999999999999984E-004     0.0000000000000000     
   9.0000000000000149E-004     0.0000000000000000     
   1.2000000000000031E-003     0.0000000000000000     
   1.5000000000000013E-003     0.0000000000000000     
   1.8000000000000030E-003     0.0000000000000000     
   2.1000000000000012E-003     0.0000000000000000     
   2.3999999999999994E-003     0.0000000000000000     
   2.7000000000000010E-003     0.0000000000000000     
   2.9999999999999992E-003     0.0000000000000000     
   3.3000000000000008E-003     0.0000000000000000     
   3.6000000000000025E-003     0.0000000000000000     
   3.9000000000000007E-003     0.0000000000000000     
   4.2000000000000023E-003     0.0000000000000000     
   4.5000000000000005E-003     0.0000000000000000     
   4.7999999999999987E-003     0.0000000000000000     
   5.1000000000000004E-003     0.0000000000000000     
   5.4000000000000020E-003     0.0000000000000000     
   5.7000000000000037E-003     0.0000000000000000     
   5.9999999999999984E-003     0.0000000000000000     
   6.3000000000000000E-003     0.0000000000000000     
   6.6000000000000017E-003     0.0000000000000000     
   6.9000000000000034E-003     0.0000000000000000     
   7.2000000000000015E-003     0.0000000000000000     
   7.5000000000000032E-003     0.0000000000000000     
   7.8000000000000014E-003     0.0000000000000000     
   8.0999999999999996E-003     0.0000000000000000     
   8.4000000000000012E-003     0.0000000000000000     
   8.7000000000000029E-003     0.0000000000000000     
   9.0000000000000011E-003     0.0000000000000000     
   9.2999999999999992E-003     0.0000000000000000     
   9.6000000000000009E-003     0.0000000000000000     
   9.8999999999999991E-003     0.0000000000000000     
   1.0200000000000001E-002     0.0000000000000000     
   1.0500000000000002E-002     0.0000000000000000     
   1.0800000000000004E-002     0.0000000000000000     
   1.1099999999999999E-002     0.0000000000000000     
   1.1400000000000000E-002     0.0000000000000000     
   1.1700000000000002E-002     0.0000000000000000     
   1.2000000000000004E-002     0.0000000000000000     
   1.2300000000000002E-002     0.0000000000000000     
   1.2600000000000000E-002     0.0000000000000000     
   1.2900000000000002E-002     0.0000000000000000     
   1.3200000000000000E-002     0.0000000000000000     
   1.3500000000000002E-002     0.0000000000000000     
   1.3800000000000003E-002     0.0000000000000000     
   1.4100000000000001E-002     0.0000000000000000     
   1.4400000000000000E-002     0.0000000000000000     
   1.4700000000000001E-002     0.0000000000000000     
   1.4999999999999999E-002     0.0000000000000000     
   1.5300000000000001E-002     0.0000000000000000     
   1.5600000000000003E-002     0.0000000000000000     
   1.5899999999999997E-002     0.0000000000000000     
   1.6199999999999999E-002     0.0000000000000000     
   1.6500000000000001E-002     0.0000000000000000     
   1.6800000000000002E-002     0.0000000000000000     
   1.7100000000000004E-002     0.0000000000000000     
   1.7400000000000006E-002     0.0000000000000000     
   1.7700000000000000E-002     0.0000000000000000     
   1.8000000000000002E-002     0.0000000000000000     
   1.8300000000000004E-002     0.0000000000000000     
   1.8600000000000005E-002    -5.2369758706740316E-037
   1.8900000000000000E-002     4.6478009458267705E-036
   1.9200000000000002E-002    -1.4226532285009674E-035
   1.9500000000000003E-002     2.2304319161730317E-035
   1.9799999999999998E-002     2.0050339561252759E-035
   2.0100000000000000E-002    -3.6738594711660853E-034
   2.0400000000000001E-002     6.3860920622068039E-034
   2.0700000000000003E-002    -1.1648333790295501E-033
   2.0999999999999998E-002     1.8199521097770810E-033
   2.1299999999999999E-002     1.6517429790843029E-033
   2.1600000000000001E-002    -1.4191968438808297E-032
   2.1900000000000003E-002     2.9429408978539413E-032
   2.2200000000000004E-002    -2.2208824668752364E-032
   2.2500000000000006E-002    -4.8428295670442528E-032
   2.2800000000000001E-002     1.9759897146449948E-031
   2.3100000000000002E-002    -3.1773012783948324E-031
   2.3400000000000004E-002     1.2510239730014994E-031
   2.3699999999999999E-002     6.7519031429264459E-031
   2.4000000000000000E-002    -1.9327801261919916E-030
   2.4300000000000002E-002     2.5465044654336032E-030
   2.4599999999999997E-002    -4.9505445093220961E-031
   2.4900000000000005E-002    -5.9454333523983723E-030
   2.5200000000000000E-002     1.5529313549623999E-029
   2.5499999999999995E-002    -2.0689223041943410E-029
   2.5800000000000003E-002     6.6532822083486639E-030
   2.6099999999999998E-002     4.0504077509785492E-029
   2.6400000000000007E-002    -1.1160151868700635E-028
   2.6700000000000002E-002     1.4785948927228036E-028
   2.6999999999999996E-002    -4.4950994498865724E-029
   2.7300000000000005E-002    -2.7870019887013343E-028
   2.7600000000000000E-002     7.4831899601408318E-028
   2.7900000000000008E-002    -8.1940480889376838E-028
   2.8200000000000003E-002    -1.5971202713956190E-027
   2.8499999999999998E-002     1.2339491317815211E-026
   2.8800000000000006E-002    -4.0155501209715843E-026
   2.9100000000000001E-002     7.9571354375350265E-026
   2.9400000000000003E-002    -7.6860244040402247E-026
   2.9700000000000004E-002    -2.2201201752468584E-026
   3.0000000000000006E-002    -1.2719216127905914E-025
   3.0300000000000001E-002     2.0858616626027809E-024
   3.0600000000000002E-002    -8.2868913214490816E-024
   3.0900000000000004E-002     1.5536589109602428E-023
   3.1199999999999999E-002     3.3523343657120065E-024
   3.1500000000000007E-002    -1.1986120124587523E-022
   3.1800000000000002E-002     4.1172926087015864E-022
   3.2099999999999997E-002    -7.2719906021671863E-022
   3.2400000000000005E-002     9.8196471206067836E-023
   3.2700000000000000E-002     4.0224534044604759E-021
   3.3000000000000002E-002    -1.5093235779280240E-020
   3.3300000000000003E-002     2.8780503781630965E-020
   3.3599999999999998E-002     2.9357474463770493E-021
   3.3900000000000000E-002    -2.5500872325377410E-019
   3.4200000000000001E-002     1.0319447613015942E-018
   3.4500000000000003E-002    -1.9685429554535379E-018
   3.4799999999999998E-002    -9.4301171696470003E-019
   3.5099999999999999E-002     1.8771514525494584E-017
   3.5400000000000001E-002    -5.7425402004643872E-017
   3.5699999999999996E-002     5.6860688193360961E-017
   3.6000000000000004E-002     1.9678654217950284E-016
   3.6299999999999999E-002    -9.2233342665941656E-016
   3.6600000000000008E-002     1.4500311772522927E-015
   3.6900000000000002E-002     1.1073175098616110E-015
   3.7199999999999997E-002    -1.0249523591761297E-014
   3.7500000000000006E-002     1.9948530727671652E-014
   3.7800000000000000E-002    -4.8058867733323325E-016
   3.8100000000000009E-002    -8.5649687049155039E-014
   3.8400000000000004E-002     1.9173472515858369E-013
   3.8699999999999998E-002    -7.3341692941688738E-014
   3.9000000000000007E-002    -5.6739995676527128E-013
   3.9300000000000002E-002     1.3959356262882590E-012
   3.9600000000000003E-002    -7.6091409176261212E-013
   3.9900000000000005E-002    -3.0936149960894857E-012
   4.0200000000000000E-002     7.8700987356754902E-012
   4.0500000000000001E-002    -4.8615459678514475E-012
   4.0800000000000003E-002    -1.2532831907132078E-011
   4.1100000000000005E-002     3.3960167161697425E-011
   4.1399999999999999E-002    -3.6104658559056167E-011
   4.1700000000000008E-002    -6.0629454319103730E-012
   4.2000000000000003E-002     1.6351079499160842E-010
   4.2299999999999997E-002    -4.7359015698194893E-010
   4.2600000000000006E-002     2.7951095550998721E-010
   4.2900000000000001E-002     1.9624903743592076E-009
   4.3200000000000002E-002    -4.8573349807268821E-009
   4.3500000000000004E-002    -1.2051982885122000E-009
   4.3799999999999999E-002     2.2539365898827385E-008
   4.4100000000000000E-002    -2.7971433382602488E-008
   4.4400000000000002E-002    -5.4428919231896923E-008
   4.4700000000000004E-002     1.8580604773017946E-007
   4.4999999999999998E-002    -4.4833766305007169E-008
   4.5300000000000000E-002    -8.1260286246964913E-007
   4.5600000000000002E-002     2.9874681903238319E-006
   4.5899999999999996E-002     1.7597822649866841E-005
   4.6200000000000005E-002     3.9445376220546422E-005
   4.6500000000000000E-002     5.7961098350688314E-005
   4.6799999999999994E-002     7.0770473399332025E-005
   4.7100000000000003E-002     8.9886684439606133E-005
   4.7399999999999998E-002     1.3448245999841225E-004
   4.7700000000000006E-002     2.1645347782563878E-004
   4.8000000000000001E-002     3.3426940629507559E-004
   4.8300000000000010E-002     4.9093074678671362E-004
   4.8600000000000004E-002     7.1015229424097081E-004
   4.8899999999999999E-002     1.0223276683924626E-003
   4.9200000000000008E-002     1.4497730156094587E-003
   4.9500000000000002E-002     2.0157615444592230E-003
   4.9800000000000011E-002     2.7513603448966464E-003
   5.0100000000000006E-002     3.6886525922248128E-003
   5.0400000000000000E-002     4.8525121889540189E-003
   5.0700000000000009E-002     6.2489002490766950E-003
   5.1000000000000004E-002     7.8575765580007235E-003
   5.1299999999999998E-002     9.6330783258185091E-003
   5.1600000000000007E-002     1.1489468200141871E-002
   5.1900000000000002E-002     1.3271282030176778E-002
   5.2200000000000010E-002     1.4740612641513717E-002
   5.2500000000000005E-002     1.5578711400752801E-002
   5.2800000000000000E-002     1.5376276453974838E-002
   5.3099999999999994E-002     1.3630006033270020E-002
   5.3400000000000003E-002     9.7722375339696754E-003
   5.3699999999999998E-002     3.2030387010031931E-003
   5.4000000000000006E-002    -6.6767005850520873E-003
   5.4300000000000001E-002    -2.0377967682936371E-002
   5.4599999999999996E-002    -3.8209840836408632E-002
   5.4900000000000004E-002    -6.0190853424643878E-002
   5.5199999999999999E-002    -8.5941562018324480E-002
   5.5499999999999994E-002   -0.11456590594540356     
   5.5800000000000002E-002   -0.14456905834293360     
   5.6099999999999997E-002   -0.17381996957819867     
   5.6400000000000006E-002   -0.19958094582315278     
   5.6700000000000000E-002   -0.21859705172454025     
   5.6999999999999995E-002   -0.22725487187953319     
   5.7300000000000004E-002   -0.22185400376002543     
   5.7599999999999998E-002   -0.19898694624319385     
   5.7900000000000007E-002   -0.15593921888276463     
   5.8200000000000002E-002    -9.1066850524778975E-002
   5.8499999999999996E-002    -4.2435214651089133E-003
   5.8800000000000005E-002    0.10278350575510083     
   5.9100000000000000E-002    0.22627737499702594     
   5.9400000000000008E-002    0.36045519322431419     
   5.9700000000000003E-002    0.49756762735360049     
   6.0000000000000012E-002    0.62842445480856068     
   6.0300000000000006E-002    0.74299219047238918     
   6.0600000000000001E-002    0.83106798911754753     
   6.0900000000000010E-002    0.88328412655486610     
   6.1200000000000004E-002    0.89203786734566848     
   6.1500000000000013E-002    0.85217586407350254     
   6.1800000000000008E-002    0.76183581222295016     
   6.2100000000000002E-002    0.62289388825482916     
   6.2399999999999997E-002    0.44092090009483714     
   6.2700000000000006E-002    0.22514257300845619     
   6.3000000000000000E-002    -1.2122218759918063E-002
   6.3300000000000009E-002   -0.25654140644894924     
   6.3600000000000004E-002   -0.49264111626512674     
   6.3899999999999998E-002   -0.70501029595889020     
   6.4199999999999993E-002   -0.87968856710281906     
   6.4500000000000002E-002    -1.0051757014013636     
   6.4800000000000010E-002    -1.0733722293611367     
   6.5100000000000005E-002    -1.0802533523690534     
   6.5400000000000000E-002    -1.0261039266017455     
   6.5700000000000008E-002   -0.91552664133481632     
   6.5999999999999989E-002   -0.75705990167033699     
   6.6299999999999998E-002   -0.56239383884499938     
   6.6600000000000006E-002   -0.34549847839511277     
   6.6900000000000001E-002   -0.12166024178746693     
   6.7199999999999996E-002     9.3690151516777662E-002
   6.7500000000000004E-002    0.28610011784675726     
   6.7800000000000013E-002    0.44300846075375627     
   6.8099999999999994E-002    0.55446720254385706     
   6.8400000000000002E-002    0.61381019361406586     
   6.8700000000000011E-002    0.61794512698791748     
   6.8999999999999992E-002    0.56754451693632546     
   6.9300000000000000E-002    0.46676314023154564     
   6.9600000000000009E-002    0.32292345543646694     
   6.9900000000000004E-002    0.14605037250229752     
   7.0199999999999999E-002    -5.1937316104654158E-002
   7.0500000000000007E-002   -0.25792823331386439     
   7.0800000000000016E-002   -0.45859206637089067     
   7.1099999999999997E-002   -0.64112060600378562     
   7.1400000000000005E-002   -0.79415684110059748     
   7.1700000000000000E-002   -0.90852351810254961     
   7.1999999999999995E-002   -0.97754065012779345     
   7.2300000000000003E-002   -0.99768738800765555     
   7.2600000000000012E-002   -0.96856401285523308     
   7.2900000000000006E-002   -0.89279683793784370     
   7.3200000000000001E-002   -0.77580839260515266     
   7.3499999999999996E-002   -0.62503265003551078     
   7.3800000000000004E-002   -0.44948429404571066     
   7.4099999999999999E-002   -0.25872326921730926     
   7.4400000000000008E-002    -6.2230013753767036E-002
   7.4700000000000003E-002    0.13138634145079289     
   7.5000000000000011E-002    0.31503094741571547     
   7.5299999999999992E-002    0.48323452070238637     
   7.5600000000000001E-002    0.63256902755208644     
   7.5900000000000009E-002    0.76131684487610896     
   7.6200000000000004E-002    0.86916331779431488     
   7.6499999999999999E-002    0.95653019171963849     
   7.6800000000000007E-002     1.0241418199426355     
   7.7099999999999988E-002     1.0723745832723217     
   7.7399999999999997E-002     1.1009121865666047     
   7.7700000000000005E-002     1.1084299492313248     
   7.8000000000000014E-002     1.0924393076310175     
   7.8299999999999995E-002     1.0500268131989066     
   7.8600000000000003E-002    0.97803085057143724     
   7.8900000000000012E-002    0.87390906663154777     
   7.9199999999999993E-002    0.73651992876788830     
   7.9500000000000001E-002    0.56660110485288273     
   7.9800000000000010E-002    0.36759788769318824     
   8.0100000000000018E-002    0.14587457323111053     
   8.0399999999999999E-002    -8.9536821493820626E-002
   8.0700000000000008E-002   -0.32750072883858755     
   8.1000000000000003E-002   -0.55520392104154537     
   8.1299999999999997E-002   -0.75937004946955122     
   8.1600000000000006E-002   -0.92773459378419043     
   8.1900000000000014E-002    -1.0495698152991948     
   8.2199999999999995E-002    -1.1173467209401635     
   8.2500000000000004E-002    -1.1272130221813350     
   8.2799999999999999E-002    -1.0790383811400244     
   8.3100000000000007E-002   -0.97698115371241090     
   8.3400000000000002E-002   -0.82848980869933964     
   8.3700000000000011E-002   -0.64386564433755911     
   8.4000000000000005E-002   -0.43504745641596254     
   8.4300000000000000E-002   -0.21436565476938518     
   8.4599999999999995E-002     6.4426465664720947E-003
   8.4900000000000003E-002    0.21710247991067677     
   8.5199999999999998E-002    0.40970992584180671     
   8.5500000000000007E-002    0.57925802685082528     
   8.5800000000000001E-002    0.72303593405508471     
   8.6100000000000010E-002    0.84077835835483272     
   8.6399999999999991E-002    0.93383102890721914     
   8.6699999999999999E-002     1.0041466644485246     
   8.7000000000000008E-002     1.0538939319227913     
   8.7300000000000003E-002     1.0841297052696319     
   8.7599999999999997E-002     1.0943160596140467     
   8.7900000000000006E-002     1.0824560912276593     
   8.8200000000000014E-002     1.0449702402157457     
   8.8499999999999995E-002    0.97679765376261063     
   8.8800000000000004E-002    0.87254277611017272     
   8.9100000000000013E-002    0.72743834646222116     
   8.9399999999999993E-002    0.53821106514957751     
   8.9700000000000002E-002    0.30426129872889329     
   9.0000000000000011E-002     2.8047195526590990E-002
   9.0299999999999991E-002   -0.28407190046140729     
   9.0600000000000000E-002   -0.62159640446991749     
   9.0900000000000009E-002   -0.97110063063249075     
   9.1200000000000017E-002    -1.3164413194061362     
   9.1499999999999998E-002    -1.6397787485187059     
   9.1800000000000007E-002    -1.9232712569797328     
   9.2100000000000001E-002    -2.1503312681750684     
   9.2399999999999996E-002    -2.3069439158880547     
   9.2700000000000005E-002    -2.3828095717932802     
   9.3000000000000013E-002    -2.3718990292373512     
   9.3300000000000008E-002    -2.2729156305690421     
   9.3600000000000003E-002    -2.0896244917463642     
   9.3899999999999997E-002    -1.8300589025417384     
   9.4200000000000006E-002    -1.5057382066356666     
   9.4500000000000001E-002    -1.1311590155787346     
   9.4800000000000009E-002   -0.72273384792540762     
   9.5100000000000004E-002   -0.29747128109799348     
   9.5399999999999999E-002    0.12755403351610645     
   9.5699999999999993E-002    0.53635315989516674     
   9.6000000000000002E-002    0.91463015345917364     
   9.6300000000000011E-002     1.2498200439176019     
   9.6600000000000005E-002     1.5320078666375292     
   9.6900000000000000E-002     1.7541235513651352     
   9.7200000000000009E-002     1.9116406760043643     
   9.7499999999999989E-002     2.0026831287643443     
   9.7799999999999998E-002     2.0284314941325414     
   9.8100000000000007E-002     1.9923956816481629     
   9.8400000000000015E-002     1.9004134951429488     
   9.8699999999999996E-002     1.7604381686849000     
   9.9000000000000005E-002     1.5817796004112108     
   9.9300000000000013E-002     1.3751143143568436     
   9.9599999999999994E-002     1.1517186567532269     
   9.9900000000000003E-002    0.92263121593405417     
  0.10020000000000001         0.69869096052091784     
  0.10049999999999999         0.48964051701723088     
  0.10080000000000000         0.30372042579799141     
  0.10110000000000001         0.14747913009790481     
  0.10140000000000000          2.5388860369577181E-002
  0.10170000000000000         -6.0179690199965608E-002
  0.10200000000000001        -0.10917948052051155     
  0.10230000000000002        -0.12346788109945006     
  0.10260000000000000        -0.10677161023236345     
  0.10290000000000001         -6.4692584799960096E-002
  0.10320000000000000         -3.8234497844447102E-003
  0.10350000000000001          6.7814908213157749E-002
  0.10380000000000000         0.14176056033431952     
  0.10410000000000001         0.20933432720156439     
  0.10440000000000001         0.26183147267482387     
  0.10470000000000000         0.29133886652069574     
  0.10500000000000000         0.29050192819861198     
  0.10530000000000000         0.25358068808904055     
  0.10560000000000000         0.17684437135471315     
  0.10590000000000001          5.8729129440026895E-002
  0.10620000000000000         -9.9869240743961391E-002
  0.10650000000000001        -0.29533607963450881     
  0.10679999999999999        -0.52089772349639285     
  0.10710000000000000        -0.76683604868952493     
  0.10740000000000001         -1.0210472117587992     
  0.10770000000000000         -1.2694752857745863     
  0.10800000000000000         -1.4962498975863241     
  0.10830000000000001         -1.6852841757786055     
  0.10859999999999999         -1.8211051241014831     
  0.10890000000000000         -1.8900123269690541     
  0.10920000000000001         -1.8814515836906764     
  0.10950000000000001         -1.7884927745968766     
  0.10979999999999999         -1.6094124384576829     
  0.11009999999999999         -1.3480635820077196     
  0.11040000000000001         -1.0141774366195349     
  0.11070000000000001        -0.62254413183180901     
  0.11100000000000000        -0.19317738911009164     
  0.11130000000000000         0.25024643224906773     
  0.11160000000000002         0.68192583694960029     
  0.11190000000000001          1.0754976595311632     
  0.11220000000000001          1.4062192068308803     
  0.11250000000000000          1.6524392730364754     
  0.11280000000000000          1.7976433584753526     
  0.11309999999999999          1.8319638796748563     
  0.11340000000000001          1.7524988647189870     
  0.11369999999999998          1.5640297235118059     
  0.11400000000000000          1.2789527461573642     
  0.11430000000000000         0.91579443932917992     
  0.11460000000000002         0.49863968244247847     
  0.11489999999999999          5.4820644974339250E-002
  0.11520000000000001        -0.38700410913416528     
  0.11550000000000001        -0.79857223856916615     
  0.11580000000000000         -1.1539436115421675     
  0.11609999999999999         -1.4314473244626957     
  0.11640000000000002         -1.6148392308268102     
  0.11670000000000001         -1.6938743482560992     
  0.11700000000000001         -1.6646635119287951     
  0.11730000000000000         -1.5299268510271107     
  0.11760000000000000         -1.2983277618362299     
  0.11789999999999999        -0.98347302449633389     
  0.11820000000000001        -0.60333807019178698     
  0.11850000000000001        -0.17871466591950158     
  0.11880000000000000         0.26737516498339459     
  0.11910000000000000         0.71087285814987888     
  0.11940000000000002          1.1282735821420056     
  0.11970000000000001          1.4971101798259239     
  0.12000000000000001          1.7970505466682549     
  0.12030000000000000          2.0108622429674341     
  0.12060000000000000          2.1252525462153353     
  0.12089999999999999          2.1317251983321199     
  0.12119999999999999          2.0272213346658399     
  0.12150000000000001          1.8144582721562448     
  0.12180000000000001          1.5019760280231960     
  0.12210000000000000          1.1043886830677532     
  0.12239999999999999         0.64147538901207479     
  0.12270000000000002         0.13752054388951343     
  0.12300000000000001        -0.38015010470171362     
  0.12330000000000001        -0.88309176454531413     
  0.12360000000000000         -1.3427049195125256     
  0.12390000000000000         -1.7327718244216541     
  0.12419999999999999         -2.0314494475836695     
  0.12450000000000001         -2.2222108102853619     
  0.12480000000000001         -2.2953075726581522     
  0.12509999999999999         -2.2488432335634170     
  0.12540000000000001         -2.0885923180466186     
  0.12570000000000003         -1.8278829558421625     
  0.12600000000000000         -1.4867906465787077     
  0.12630000000000002         -1.0905261728728264     
  0.12659999999999999        -0.66787011317874612     
  0.12690000000000001        -0.24945790270830615     
  0.12719999999999998         0.13469608412671602     
  0.12750000000000000         0.45740295397227693     
  0.12780000000000002         0.69588107650656394     
  0.12809999999999999         0.83361823582086259     
  0.12840000000000001         0.86204674739195042     
  0.12869999999999998         0.78148149227348118     
  0.12900000000000000         0.60071499999524391     
  0.12930000000000003         0.33735423387911878     
  0.12959999999999999          1.6648026399174842E-002
  0.12990000000000002        -0.32960191778107356     
  0.13019999999999998        -0.66594684049856290     
  0.13050000000000000        -0.95581719072853999     
  0.13080000000000003         -1.1638274456850548     
  0.13109999999999999         -1.2593515046350152     
  0.13140000000000002         -1.2187072875774256     
  0.13169999999999998         -1.0289640296533675     
  0.13200000000000001        -0.68827718634474011     
  0.13229999999999997        -0.20721176965593158     
  0.13260000000000000         0.39072115001222318     
  0.13290000000000002          1.0707606096391640     
  0.13319999999999999          1.7886283465230743     
  0.13350000000000001          2.4937890310385153     
  0.13380000000000003          3.1330299807995536     
  0.13410000000000000          3.6544399867396380     
  0.13440000000000002          4.0112821738664728     
  0.13469999999999999          4.1663180759475811     
  0.13500000000000001          4.0949021888913517     
  0.13529999999999998          3.7868845347244982     
  0.13560000000000000          3.2486528044038305     
  0.13590000000000002          2.5027532140617823     
  0.13619999999999999          1.5868907773646284     
  0.13650000000000001         0.55150225724511259     
  0.13680000000000003        -0.54297887026283442     
  0.13710000000000000         -1.6304305796734333     
  0.13740000000000002         -2.6434572786236008     
  0.13769999999999999         -3.5173720590689768     
  0.13800000000000001         -4.1959716826984286     
  0.13829999999999998         -4.6334167802500206     
  0.13860000000000000         -4.7984844909565396     
  0.13890000000000002         -4.6773498337803563     
  0.13919999999999999         -4.2732764898600317     
  0.13950000000000001         -3.6074733669583665     
  0.13979999999999998         -2.7180062749203708     
  0.14010000000000000         -1.6570078181879104     
  0.14040000000000002        -0.48824640631258198     
  0.14069999999999999         0.71749337427551696     
  0.14100000000000001          1.8867088655079489     
  0.14130000000000004          2.9475954153858526     
  0.14160000000000000          3.8351093984474338     
  0.14189999999999997          4.4953847016542134     
  0.14219999999999999          4.8892860862573997     
  0.14250000000000002          4.9957174828927311     
  0.14279999999999998          4.8125767137836037     
  0.14310000000000000          4.3576651738008945     
  0.14339999999999997          3.6670044812410572     
  0.14369999999999999          2.7927869668896586     
  0.14400000000000002          1.7994337564860166     
  0.14429999999999998         0.75787637800741314     
  0.14460000000000001        -0.25857566911743368     
  0.14490000000000003         -1.1808353167428776     
  0.14520000000000000         -1.9485921994435591     
  0.14550000000000002         -2.5152518075708743     
  0.14579999999999999         -2.8513347673905240     
  0.14610000000000001         -2.9454024322079766     
  0.14640000000000003         -2.8048237876097368     
  0.14670000000000000         -2.4542687465699604     
  0.14699999999999996         -1.9333226399793357     
  0.14729999999999999         -1.2918686068494751     
  0.14760000000000001        -0.58605707832262155     
  0.14789999999999998         0.12611431894448966     
  0.14820000000000000         0.78866687332785390     