  -1.4999999999999999E-002     0.0000000000000000     
  -1.4700000000000000E-002     0.0000000000000000     
  -1.4400000000000000E-002     0.0000000000000000     
  -1.4100000000000000E-002     0.0000000000000000     
  -1.3800000000000000E-002     0.0000000000000000     
  -1.3500000000000000E-002     0.0000000000000000     
  -1.3200000000000000E-002     0.0000000000000000     
  -1.2899999999999998E-002     0.0000000000000000     
  -1.2600000000000000E-002     0.0000000000000000     
  -1.2299999999999998E-002     0.0000000000000000     
  -1.2000000000000000E-002     0.0000000000000000     
  -1.1699999999999999E-002     0.0000000000000000     
  -1.1399999999999999E-002     0.0000000000000000     
  -1.1099999999999999E-002     0.0000000000000000     
  -1.0799999999999999E-002     0.0000000000000000     
  -1.0499999999999999E-002     0.0000000000000000     
  -1.0199999999999999E-002     0.0000000000000000     
  -9.8999999999999991E-003     0.0000000000000000     
  -9.5999999999999992E-003     0.0000000000000000     
  -9.2999999999999992E-003     0.0000000000000000     
  -8.9999999999999993E-003     0.0000000000000000     
  -8.6999999999999994E-003     0.0000000000000000     
  -8.3999999999999995E-003     0.0000000000000000     
  -8.0999999999999996E-003     0.0000000000000000     
  -7.7999999999999988E-003     0.0000000000000000     
  -7.4999999999999997E-003     0.0000000000000000     
  -7.1999999999999998E-003     0.0000000000000000     
  -6.8999999999999981E-003     0.0000000000000000     
  -6.5999999999999982E-003     0.0000000000000000     
  -6.3000000000000000E-003     0.0000000000000000     
  -6.0000000000000001E-003     0.0000000000000000     
  -5.6999999999999985E-003     0.0000000000000000     
  -5.3999999999999986E-003     0.0000000000000000     
  -5.1000000000000004E-003     0.0000000000000000     
  -4.7999999999999987E-003     0.0000000000000000     
  -4.5000000000000005E-003     0.0000000000000000     
  -4.1999999999999989E-003     0.0000000000000000     
  -3.8999999999999990E-003     0.0000000000000000     
  -3.5999999999999990E-003     0.0000000000000000     
  -3.2999999999999991E-003     0.0000000000000000     
  -2.9999999999999992E-003     0.0000000000000000     
  -2.6999999999999993E-003     0.0000000000000000     
  -2.3999999999999994E-003     0.0000000000000000     
  -2.0999999999999977E-003     0.0000000000000000     
  -1.7999999999999995E-003     0.0000000000000000     
  -1.4999999999999979E-003     0.0000000000000000     
  -1.1999999999999997E-003     0.0000000000000000     
  -8.9999999999999976E-004     0.0000000000000000     
  -5.9999999999999810E-004     0.0000000000000000     
  -2.9999999999999992E-004     0.0000000000000000     
   0.0000000000000000          0.0000000000000000     
   3.0000000000000165E-004     0.0000000000000000     
   5.9999999999999984E-004     0.0000000000000000     
   9.0000000000000149E-004     0.0000000000000000     
   1.2000000000000031E-003     0.0000000000000000     
   1.5000000000000013E-003     0.0000000000000000     
   1.8000000000000030E-003     0.0000000000000000     
   2.1000000000000012E-003     0.0000000000000000     
   2.3999999999999994E-003     0.0000000000000000     
   2.7000000000000010E-003     0.0000000000000000     
   2.9999999999999992E-003     0.0000000000000000     
   3.3000000000000008E-003     0.0000000000000000     
   3.6000000000000025E-003     0.0000000000000000     
   3.9000000000000007E-003     0.0000000000000000     
   4.2000000000000023E-003     0.0000000000000000     
   4.5000000000000005E-003     0.0000000000000000     
   4.7999999999999987E-003     0.0000000000000000     
   5.1000000000000004E-003     0.0000000000000000     
   5.4000000000000020E-003     0.0000000000000000     
   5.7000000000000037E-003     0.0000000000000000     
   5.9999999999999984E-003     0.0000000000000000     
   6.3000000000000000E-003     0.0000000000000000     
   6.6000000000000017E-003     0.0000000000000000     
   6.9000000000000034E-003     0.0000000000000000     
   7.2000000000000015E-003     0.0000000000000000     
   7.5000000000000032E-003     0.0000000000000000     
   7.8000000000000014E-003     0.0000000000000000     
   8.0999999999999996E-003     0.0000000000000000     
   8.4000000000000012E-003     0.0000000000000000     
   8.7000000000000029E-003     0.0000000000000000     
   9.0000000000000011E-003     0.0000000000000000     
   9.2999999999999992E-003     0.0000000000000000     
   9.6000000000000009E-003     0.0000000000000000     
   9.8999999999999991E-003     0.0000000000000000     
   1.0200000000000001E-002     0.0000000000000000     
   1.0500000000000002E-002     0.0000000000000000     
   1.0800000000000004E-002     0.0000000000000000     
   1.1099999999999999E-002     0.0000000000000000     
   1.1400000000000000E-002     0.0000000000000000     
   1.1700000000000002E-002     0.0000000000000000     
   1.2000000000000004E-002     0.0000000000000000     
   1.2300000000000002E-002     0.0000000000000000     
   1.2600000000000000E-002     0.0000000000000000     
   1.2900000000000002E-002     0.0000000000000000     
   1.3200000000000000E-002     0.0000000000000000     
   1.3500000000000002E-002     0.0000000000000000     
   1.3800000000000003E-002     0.0000000000000000     
   1.4100000000000001E-002     0.0000000000000000     
   1.4400000000000000E-002     0.0000000000000000     
   1.4700000000000001E-002     0.0000000000000000     
   1.4999999999999999E-002     0.0000000000000000     
   1.5300000000000001E-002     0.0000000000000000     
   1.5600000000000003E-002     0.0000000000000000     
   1.5899999999999997E-002     0.0000000000000000     
   1.6199999999999999E-002     0.0000000000000000     
   1.6500000000000001E-002     0.0000000000000000     
   1.6800000000000002E-002     0.0000000000000000     
   1.7100000000000004E-002     0.0000000000000000     
   1.7400000000000006E-002     0.0000000000000000     
   1.7700000000000000E-002     0.0000000000000000     
   1.8000000000000002E-002     0.0000000000000000     
   1.8300000000000004E-002     0.0000000000000000     
   1.8600000000000005E-002     0.0000000000000000     
   1.8900000000000000E-002     0.0000000000000000     
   1.9200000000000002E-002     0.0000000000000000     
   1.9500000000000003E-002     0.0000000000000000     
   1.9799999999999998E-002     0.0000000000000000     
   2.0100000000000000E-002     0.0000000000000000     
   2.0400000000000001E-002     0.0000000000000000     
   2.0700000000000003E-002     0.0000000000000000     
   2.0999999999999998E-002     0.0000000000000000     
   2.1299999999999999E-002     0.0000000000000000     
   2.1600000000000001E-002     0.0000000000000000     
   2.1900000000000003E-002     0.0000000000000000     
   2.2200000000000004E-002     0.0000000000000000     
   2.2500000000000006E-002     0.0000000000000000     
   2.2800000000000001E-002     0.0000000000000000     
   2.3100000000000002E-002     0.0000000000000000     
   2.3400000000000004E-002     0.0000000000000000     
   2.3699999999999999E-002     0.0000000000000000     
   2.4000000000000000E-002     0.0000000000000000     
   2.4300000000000002E-002     0.0000000000000000     
   2.4599999999999997E-002     0.0000000000000000     
   2.4900000000000005E-002     0.0000000000000000     
   2.5200000000000000E-002     0.0000000000000000     
   2.5499999999999995E-002     0.0000000000000000     
   2.5800000000000003E-002     0.0000000000000000     
   2.6099999999999998E-002     0.0000000000000000     
   2.6400000000000007E-002     0.0000000000000000     
   2.6700000000000002E-002     0.0000000000000000     
   2.6999999999999996E-002     0.0000000000000000     
   2.7300000000000005E-002     0.0000000000000000     
   2.7600000000000000E-002     0.0000000000000000     
   2.7900000000000008E-002     0.0000000000000000     
   2.8200000000000003E-002     0.0000000000000000     
   2.8499999999999998E-002     0.0000000000000000     
   2.8800000000000006E-002     0.0000000000000000     
   2.9100000000000001E-002     0.0000000000000000     
   2.9400000000000003E-002     0.0000000000000000     
   2.9700000000000004E-002     0.0000000000000000     
   3.0000000000000006E-002     0.0000000000000000     
   3.0300000000000001E-002     0.0000000000000000     
   3.0600000000000002E-002     0.0000000000000000     
   3.0900000000000004E-002     0.0000000000000000     
   3.1199999999999999E-002     0.0000000000000000     
   3.1500000000000007E-002     0.0000000000000000     
   3.1800000000000002E-002     0.0000000000000000     
   3.2099999999999997E-002     0.0000000000000000     
   3.2400000000000005E-002     0.0000000000000000     
   3.2700000000000000E-002     0.0000000000000000     
   3.3000000000000002E-002     0.0000000000000000     
   3.3300000000000003E-002     0.0000000000000000     
   3.3599999999999998E-002     0.0000000000000000     
   3.3900000000000000E-002     0.0000000000000000     
   3.4200000000000001E-002     0.0000000000000000     
   3.4500000000000003E-002     0.0000000000000000     
   3.4799999999999998E-002     0.0000000000000000     
   3.5099999999999999E-002     0.0000000000000000     
   3.5400000000000001E-002     0.0000000000000000     
   3.5699999999999996E-002     2.1372741404124394E-044
   3.6000000000000004E-002    -2.6646527484784233E-037
   3.6299999999999999E-002     5.1340022981768188E-036
   3.6600000000000008E-002    -1.2547981608970213E-035
   3.6900000000000002E-002    -1.2408042927902218E-035
   3.7199999999999997E-002    -2.2592693181661109E-034
   3.7500000000000006E-002    -2.5409830390172449E-033
   3.7800000000000000E-002     1.2020815309423738E-032
   3.8100000000000009E-002    -1.5426970220723193E-032
   3.8400000000000004E-002    -2.1218953538627024E-032
   3.8699999999999998E-002     2.0957411843380004E-031
   3.9000000000000007E-002    -9.1766847198520842E-031
   3.9300000000000002E-002     3.1093797199435984E-030
   3.9600000000000003E-002    -8.7930716125022329E-030
   3.9900000000000005E-002     2.0839503536760877E-029
   4.0200000000000000E-002    -3.9067685955717347E-029
   4.0500000000000001E-002     4.3688411398069244E-029
   4.0800000000000003E-002     5.2906755867199472E-029
   4.1100000000000005E-002    -5.1169010195907209E-028
   4.1399999999999999E-002     1.9226012390057506E-027
   4.1700000000000008E-002    -5.2303815607788358E-027
   4.2000000000000003E-002     1.0956278948884799E-026
   4.2299999999999997E-002    -1.5986718495874855E-026
   4.2600000000000006E-002     5.3573392666071732E-027
   4.2900000000000001E-002     6.2035767203849230E-026
   4.3200000000000002E-002    -2.6472030618425406E-025
   4.3500000000000004E-002     6.8976543382405030E-025
   4.3799999999999999E-002    -1.2791578467506691E-024
   4.4100000000000000E-002     1.4390739191040211E-024
   4.4400000000000002E-002     5.7800814712124962E-025
   4.4700000000000004E-002    -8.0038501805777882E-024
   4.4999999999999998E-002     2.4058091208994075E-023
   4.5300000000000000E-002    -4.6110145506022799E-023
   4.5600000000000002E-002     5.4251162254975134E-023
   4.5899999999999996E-002    -3.0307956208342679E-025
   4.6200000000000005E-002    -1.8199993827098247E-022
   4.6500000000000000E-002     5.1372171699211582E-022
   4.6799999999999994E-002    -8.4661852424914419E-022
   4.7100000000000003E-002     7.5869234242747758E-022
   4.7399999999999998E-002     3.7811184143192560E-022
   4.7700000000000006E-002    -3.2773449934395524E-021
   4.8000000000000001E-002     9.6034709340638851E-021
   4.8300000000000010E-002    -2.4999139777589949E-020
   4.8600000000000004E-002     5.8367344256762586E-020
   4.8899999999999999E-002    -8.7445596194028450E-020
   4.9200000000000008E-002    -6.8185172591543409E-020
   4.9500000000000002E-002     9.7512265226815012E-019
   4.9800000000000011E-002    -3.7080842273203221E-018
   5.0100000000000006E-002     9.8283388312663468E-018
   5.0400000000000000E-002    -2.4305062515254942E-017
   5.0700000000000009E-002     7.4032363381063471E-017
   5.1000000000000004E-002    -2.5870427200442295E-016
   5.1299999999999998E-002     7.6985589798342264E-016
   5.1600000000000007E-002    -1.4257331970484156E-015
   5.1900000000000002E-002    -7.1166075156294110E-016
   5.2200000000000010E-002     1.8205713159692194E-014
   5.2500000000000005E-002    -8.4586887284825924E-014
   5.2800000000000000E-002     2.5003570737659713E-013
   5.3099999999999994E-002    -4.7044577047754233E-013
   5.3400000000000003E-002     1.4185721984118474E-013
   5.3699999999999998E-002     3.0566827687969341E-012
   5.4000000000000006E-002    -1.4284256997457604E-011
   5.4300000000000001E-002     3.6398621659147269E-011
   5.4599999999999996E-002    -3.9370922112954018E-011
   5.4900000000000004E-002    -1.1555363010160868E-010
   5.5199999999999999E-002     7.0172469359390717E-010
   5.5499999999999994E-002    -1.5965068851681718E-009
   5.5800000000000002E-002     3.4284474912691664E-010
   5.6099999999999997E-002     9.5295856300192532E-009
   5.6400000000000006E-002    -2.7842893840068741E-008
   5.6700000000000000E-002     6.9120006861902564E-009
   5.6999999999999995E-002     1.5124329791052483E-007
   5.7300000000000004E-002    -3.2244763220261321E-007
   5.7599999999999998E-002    -4.8480085254492437E-007
   5.7900000000000007E-002     2.9889434268429537E-006
   5.8200000000000002E-002     8.1566297770751241E-006
   5.8499999999999996E-002     8.8744904432700753E-006
   5.8800000000000005E-002     7.5870690418850474E-006
   5.9100000000000000E-002     1.0763354671207158E-005
   5.9400000000000008E-002     1.7488985498418283E-005
   5.9700000000000003E-002     2.6126915651785964E-005
   6.0000000000000012E-002     3.9411190598824768E-005
   6.0300000000000006E-002     5.9907851611463519E-005
   6.0600000000000001E-002     8.8537393019072402E-005
   6.0900000000000010E-002     1.2683425255928098E-004
   6.1200000000000004E-002     1.7690681329041044E-004
   6.1500000000000013E-002     2.3800972633687375E-004
   6.1800000000000008E-002     3.1225326733906730E-004
   6.2100000000000002E-002     4.0676379989357752E-004
   6.2399999999999997E-002     5.2076493571331342E-004
   6.2700000000000006E-002     6.4599197277938119E-004
   6.3000000000000000E-002     7.7371518722614498E-004
   6.3300000000000009E-002     8.8996246971102312E-004
   6.3600000000000004E-002     9.7326922027308809E-004
   6.3899999999999998E-002     9.9209480110901962E-004
   6.4199999999999993E-002     9.0319103457835322E-004
   6.4500000000000002E-002     6.5483598721528650E-004
   6.4800000000000010E-002     1.8461099079114881E-004
   6.5100000000000005E-002    -5.7788039051554657E-004
   6.5400000000000000E-002    -1.7046999147911804E-003
   6.5700000000000008E-002    -3.2706329922913189E-003
   6.5999999999999989E-002    -5.3402616657514433E-003
   6.6299999999999998E-002    -7.9444082906940383E-003
   6.6600000000000006E-002    -1.1070510955147357E-002
   6.6900000000000001E-002    -1.4659089808278316E-002
   6.7199999999999996E-002    -1.8591073389491574E-002
   6.7500000000000004E-002    -2.2664916963707080E-002
   6.7800000000000013E-002    -2.6591857433265004E-002
   6.8099999999999994E-002    -3.0015904175578936E-002
   6.8400000000000002E-002    -3.2519845143084147E-002
   6.8700000000000011E-002    -3.3634139134771271E-002
   6.8999999999999992E-002    -3.2884238158936721E-002
   6.9300000000000000E-002    -2.9848323847073852E-002
   6.9600000000000009E-002    -2.4195238362735870E-002
   6.9900000000000004E-002    -1.5740823833671602E-002
   7.0199999999999999E-002    -4.4984521898548870E-003
   7.0500000000000007E-002     9.2938696224630999E-003
   7.0800000000000016E-002     2.5151030548954446E-002
   7.1099999999999997E-002     4.2346680900143790E-002
   7.1400000000000005E-002     5.9947776968702626E-002
   7.1700000000000000E-002     7.6885853287052622E-002
   7.1999999999999995E-002     9.2036430918592177E-002
   7.2300000000000003E-002    0.10433082087819658     
   7.2600000000000012E-002    0.11288227736951013     
   7.2900000000000006E-002    0.11708460622062471     
   7.3200000000000001E-002    0.11669085792427794     
   7.3499999999999996E-002    0.11189602163559589     
   7.3800000000000004E-002    0.10333743495272987     
   7.4099999999999999E-002     9.2023951242615781E-002
   7.4400000000000008E-002     7.9279426990514296E-002
   7.4700000000000003E-002     6.6605578943431915E-002
   7.5000000000000011E-002     5.5473475891960417E-002
   7.5299999999999992E-002     4.7159774887195187E-002
   7.5600000000000001E-002     4.2583285298122699E-002
   7.5900000000000009E-002     4.2122396056587283E-002
   7.6200000000000004E-002     4.5511773352428224E-002
   7.6499999999999999E-002     5.1863702812765915E-002
   7.6800000000000007E-002     5.9660817734228759E-002
   7.7099999999999988E-002     6.6888685913272627E-002
   7.7399999999999997E-002     7.1304377012297679E-002
   7.7700000000000005E-002     7.0625807865472040E-002
   7.8000000000000014E-002     6.2824803672148891E-002
   7.8299999999999995E-002     4.6428984347000116E-002
   7.8600000000000003E-002     2.0785379118285405E-002
   7.8900000000000012E-002    -1.3812052140962360E-002
   7.9199999999999993E-002    -5.6056875199771990E-002
   7.9500000000000001E-002   -0.10359696119509895     
   7.9800000000000010E-002   -0.15322358238466927     
   8.0100000000000018E-002   -0.20118583317449171     
   8.0399999999999999E-002   -0.24344010445797584     
   8.0700000000000008E-002   -0.27608983178478819     
   8.1000000000000003E-002   -0.29581858273981626     
   8.1299999999999997E-002   -0.30019523275759552     
   8.1600000000000006E-002   -0.28803415598350401     
   8.1900000000000014E-002   -0.25950930858897642     
   8.2199999999999995E-002   -0.21624886603066909     
   8.2500000000000004E-002   -0.16122629558338944     
   8.2799999999999999E-002    -9.8508616100178872E-002
   8.3100000000000007E-002    -3.2961958476078190E-002
   8.3400000000000002E-002     3.0206058324549877E-002
   8.3700000000000011E-002     8.5890998403064800E-002
   8.4000000000000005E-002    0.12948837104473865     
   8.4300000000000000E-002    0.15733402337810368     
   8.4599999999999995E-002    0.16696480823165005     
   8.4900000000000003E-002    0.15725427223143182     
   8.5199999999999998E-002    0.12849075289224715     
   8.5500000000000007E-002     8.2378972963686944E-002
   8.5800000000000001E-002     2.1720121770019061E-002
   8.6100000000000010E-002    -4.9841496151749251E-002
   8.6399999999999991E-002   -0.12797094088586605     
   8.6699999999999999E-002   -0.20802664390885203     
   8.7000000000000008E-002   -0.28554450022550421     
   8.7300000000000003E-002   -0.35622121815989582     
   8.7599999999999997E-002   -0.41618721923842844     
   8.7900000000000006E-002   -0.46227117858404421     
   8.8200000000000014E-002   -0.49200388426296321     
   8.8499999999999995E-002   -0.50349917698738278     
   8.8800000000000004E-002   -0.49559631583749125     
   8.9100000000000013E-002   -0.46793901404462152     
   8.9399999999999993E-002   -0.42066281261260619     
   8.9700000000000002E-002   -0.35450502104480719     
   9.0000000000000011E-002   -0.27092094636354258     
   9.0299999999999991E-002   -0.17193109678898105     
   9.0600000000000000E-002    -6.0150864702830979E-002
   9.0900000000000009E-002     6.1232387688260205E-002
   9.1200000000000017E-002    0.18844927363552982     
   9.1499999999999998E-002    0.31723834762487357     
   9.1800000000000007E-002    0.44298183269101393     
   9.2100000000000001E-002    0.56087169016931770     
   9.2399999999999996E-002    0.66615608850842811     
   9.2700000000000005E-002    0.75434551618335399     
   9.3000000000000013E-002    0.82149992718175269     
   9.3300000000000008E-002    0.86460714105187542     
   9.3600000000000003E-002    0.88163946724349707     
   9.3899999999999997E-002    0.87174604937677647     
   9.4200000000000006E-002    0.83566526985023715     
   9.4500000000000001E-002    0.77537832757420611     
   9.4800000000000009E-002    0.69401220155058074     
   9.5100000000000004E-002    0.59591141493775501     
   9.5399999999999999E-002    0.48624234964611307     
   9.5699999999999993E-002    0.37046881473055360     
   9.6000000000000002E-002    0.25412098902274188     
   9.6300000000000011E-002    0.14253201329727863     
   9.6600000000000005E-002     4.0268147491796726E-002
   9.6900000000000000E-002    -4.9003231243685323E-002
   9.7200000000000009E-002   -0.12275765000309498     
   9.7499999999999989E-002   -0.17962783031980822     
   9.7799999999999998E-002   -0.21947745638161556     
   9.8100000000000007E-002   -0.24321308503671851     
   9.8400000000000015E-002   -0.25255591971592101     
   9.8699999999999996E-002   -0.25007946565924449     
   9.9000000000000005E-002   -0.23870011867970009     
   9.9300000000000013E-002   -0.22147292990704145     
   9.9599999999999994E-002   -0.20160734139627193     
   9.9900000000000003E-002   -0.18221537151577982     
  0.10020000000000001        -0.16610863109209584     
  0.10049999999999999        -0.15589482343669717     
  0.10080000000000000        -0.15385641914797463     
  0.10110000000000001        -0.16198600165132773     
  0.10140000000000000        -0.18191216358374351     
  0.10170000000000000        -0.21471264634746165     
  0.10200000000000001        -0.26104856979834368     
  0.10230000000000002        -0.32092951538173914     
  0.10260000000000000        -0.39349674397638995     
  0.10290000000000001        -0.47694357905206758     
  0.10320000000000000        -0.56850752402295457     
  0.10350000000000001        -0.66440013727282687     
  0.10380000000000000        -0.75965742446546092     
  0.10410000000000001        -0.84845374652914085     
  0.10440000000000001        -0.92449360100190892     
  0.10470000000000000        -0.98111342667437773     
  0.10500000000000000         -1.0118010581602725     
  0.10530000000000000         -1.0107781228342021     
  0.10560000000000000        -0.97351615765997390     
  0.10590000000000001        -0.89709530979559460     
  0.10620000000000000        -0.78065113298601752     
  0.10650000000000001        -0.62566891543636705     
  0.10679999999999999        -0.43605666575620106     
  0.10710000000000000        -0.21817628604192618     
  0.10740000000000001          1.9672943338652368E-002
  0.10770000000000000         0.26758606738449958     
  0.10800000000000000         0.51438578773976151     
  0.10830000000000001         0.74872730214988403     
  0.10859999999999999         0.95960502970326467     
  0.10890000000000000          1.1371491560286862     
  0.10920000000000001          1.2731412133240778     
  0.10950000000000001          1.3617196805340901     
  0.10979999999999999          1.3997809436855451     
  0.11009999999999999          1.3868771334991055     
  0.11040000000000001          1.3251662957337222     
  0.11070000000000001          1.2194122722452596     
  0.11100000000000000          1.0763348911293291     
  0.11130000000000000         0.90404014609539840     
  0.11160000000000002         0.71135369725537423     
  0.11190000000000001         0.50720557255883048     
  0.11220000000000001         0.30023236640389189     
  0.11250000000000000          9.8109630083630786E-002
  0.11280000000000000         -9.2876290764973057E-002
  0.11309999999999999        -0.26766417917508062     
  0.11340000000000001        -0.42236434746184820     
  0.11369999999999998        -0.55425283342387721     
  0.11400000000000000        -0.66165009740078118     
  0.11430000000000000        -0.74317554669315311     
  0.11460000000000002        -0.79751525633920950     
  0.11489999999999999        -0.82367514005759035     
  0.11520000000000001        -0.82061926921557093     
  0.11550000000000001        -0.78699634675463925     
  0.11580000000000000        -0.72182146541419490     
  0.11609999999999999        -0.62483600069146505     
  0.11640000000000002        -0.49655237389517487     
  0.11670000000000001        -0.33875479044978929     
  0.11700000000000001        -0.15498318521196700     
  0.11730000000000000          4.9415036743146810E-002
  0.11760000000000000         0.26724912221343655     
  0.11789999999999999         0.48988988665439503     
  0.11820000000000001         0.70752558923186759     
  0.11850000000000001         0.90954612561152848     
  0.11880000000000000          1.0856236792875038     
  0.11910000000000000          1.2265836645553985     
  0.11940000000000002          1.3246304491142682     
  0.11970000000000001          1.3740691664097391     
  0.12000000000000001          1.3721788643303350     
  0.12030000000000000          1.3190539567177069     
  0.12060000000000000          1.2173025045298216     
  0.12089999999999999          1.0720745877596181     
  0.12119999999999999         0.89058308410692588     
  0.12150000000000001         0.68128040943584256     
  0.12180000000000001         0.45317279630508850     
  0.12210000000000000         0.21530945214817493     
  0.12239999999999999         -2.4173115549196628E-002
  0.12270000000000002        -0.25808314784179642     
  0.12300000000000001        -0.48056411175895292     
  0.12330000000000001        -0.68738547436062580     
  0.12360000000000000        -0.87560711726468543     
  0.12390000000000000         -1.0433396626096743     
  0.12419999999999999         -1.1892834308558422     
  0.12450000000000001         -1.3124757475423858     
  0.12480000000000001         -1.4122565509163547     
  0.12509999999999999         -1.4870193763088397     
  0.12540000000000001         -1.5346133303506484     
  0.12570000000000003         -1.5531529989743105     
  0.12600000000000000         -1.5398308840906689     
  0.12630000000000002         -1.4918304273722724     
  0.12659999999999999         -1.4070409090191394     
  0.12690000000000001         -1.2842961046930510     
  0.12719999999999998         -1.1239181177340116     
  0.12750000000000000        -0.92754542013796171     
  0.12780000000000002        -0.69945685079834052     
  0.12809999999999999        -0.44621637168741846     
  0.12840000000000001        -0.17575660143112520     
  0.12869999999999998         0.10203574040600052     
  0.12900000000000000         0.37583883271737212     
  0.12930000000000003         0.63408842743195393     
  0.12959999999999999         0.86549572473319669     
  0.12990000000000002          1.0599657835543961     
  0.13019999999999998          1.2089121964547065     
  0.13050000000000000          1.3057231389826873     
  0.13080000000000003          1.3471099843971377     
  0.13109999999999999          1.3324124325337083     
  0.13140000000000002          1.2634440140485479     
  0.13169999999999998          1.1449728624314401     
  0.13200000000000001         0.98436593351648238     
  0.13229999999999997         0.79028402105525253     
  0.13260000000000000         0.57288155142407027     
  0.13290000000000002         0.34340636889888254     
  0.13319999999999999         0.11326814435028709     
  0.13350000000000001        -0.10649925892666860     
  0.13380000000000003        -0.30542607598605048     
  0.13410000000000000        -0.47384741303540834     
  0.13440000000000002        -0.60367772067244085     
  0.13469999999999999        -0.68881723814796658     
  0.13500000000000001        -0.72512463458668119     
  0.13529999999999998        -0.71081498906501372     
  0.13560000000000000        -0.64695015844563342     
  0.13590000000000002        -0.53749009670439996     
  0.13619999999999999        -0.38898738132322536     
  0.13650000000000001        -0.21088583225917823     
  0.13680000000000003         -1.4740568610793144E-002
  0.13710000000000000         0.18637153167947443     
  0.13740000000000002         0.37813802725663825     
  0.13769999999999999         0.54667195716315531     
  0.13800000000000001         0.67926154254594162     
  0.13829999999999998         0.76497940363333317     
  0.13860000000000000         0.79615334928324943     
  0.13890000000000002         0.76884899598753209     
  0.13919999999999999         0.68301669317602687     
  0.13950000000000001         0.54292806743047617     
  0.13979999999999998         0.35676299248245535     
  0.14010000000000000         0.13589576374842768     
  0.14040000000000002        -0.10579165151559759     
  0.14069999999999999        -0.35305871743455036     
  0.14100000000000001        -0.59057304720100068     
  0.14130000000000004        -0.80370859900688085     
  0.14160000000000000        -0.97982990275250381     
  0.14189999999999997         -1.1088319440076262     
  0.14219999999999999         -1.1837374623707719     
  0.14250000000000002         -1.2013492049214851     
  0.14279999999999998         -1.1613294517066330     
  0.14310000000000000         -1.0663453915397569     
  0.14339999999999997        -0.92226307554083498     
  0.14369999999999999        -0.73655048928860956     
  0.14400000000000002        -0.51790865960101484     
  0.14429999999999998        -0.27645103497877888     
  0.14460000000000001         -2.2551096753500009E-002
  0.14490000000000003         0.23366159112653212     
  0.14520000000000000         0.48198994756114383     
  0.14550000000000002         0.71262131131664441     
  0.14579999999999999         0.91627418069889977     
  0.14610000000000001          1.0843686456655210     
  0.14640000000000003          1.2091104447837708     
  0.14670000000000000          1.2833610272696057     
  0.14699999999999996          1.3015551072288805     
  0.14729999999999999          1.2597324327683408     
  0.14760000000000001          1.1556797641093677     
  0.14789999999999998         0.98974650355502092     
  0.14820000000000000         0.76528791606900914     