  -1.4999999999999999E-002     0.0000000000000000     
  -1.4700000000000000E-002     0.0000000000000000     
  -1.4400000000000000E-002     0.0000000000000000     
  -1.4100000000000000E-002     0.0000000000000000     
  -1.3800000000000000E-002     0.0000000000000000     
  -1.3500000000000000E-002     0.0000000000000000     
  -1.3200000000000000E-002     0.0000000000000000     
  -1.2899999999999998E-002     0.0000000000000000     
  -1.2600000000000000E-002     0.0000000000000000     
  -1.2299999999999998E-002     0.0000000000000000     
  -1.2000000000000000E-002     0.0000000000000000     
  -1.1699999999999999E-002     0.0000000000000000     
  -1.1399999999999999E-002    -5.4850905014077216E-036
  -1.1099999999999999E-002     2.3523670875615944E-035
  -1.0799999999999999E-002    -1.7198971298875434E-034
  -1.0499999999999999E-002    -7.3140244796950349E-034
  -1.0199999999999999E-002     2.9208387325284624E-033
  -9.8999999999999991E-003     6.1007222944472488E-033
  -9.5999999999999992E-003    -4.0829228809824996E-032
  -9.2999999999999992E-003    -6.2676358520150224E-032
  -8.9999999999999993E-003     3.0646685737363843E-031
  -8.6999999999999994E-003     9.8633481262663320E-031
  -8.3999999999999995E-003    -1.6432152750989489E-030
  -8.0999999999999996E-003    -1.3087237220536220E-029
  -7.7999999999999988E-003     1.4578068463827441E-029
  -7.4999999999999997E-003     8.3028871249628250E-029
  -7.1999999999999998E-003    -4.4168081274643349E-029
  -6.8999999999999981E-003    -2.6620981094948713E-028
  -6.5999999999999982E-003    -9.8232401977880471E-028
  -6.3000000000000000E-003     2.2079847903035130E-027
  -6.0000000000000001E-003     7.7910907307568431E-027
  -5.6999999999999985E-003    -1.6618504930118083E-026
  -5.3999999999999986E-003    -6.8815652105284114E-027
  -5.1000000000000004E-003    -9.1254966002041880E-027
  -4.7999999999999987E-003    -3.2364960462990684E-026
  -4.5000000000000005E-003     7.5600273916459812E-025
  -4.1999999999999989E-003    -1.6290520384068688E-024
  -3.8999999999999990E-003     5.0537706717214459E-025
  -3.5999999999999990E-003     2.2179266794582815E-024
  -3.2999999999999991E-003    -1.2403624293213924E-023
  -2.9999999999999992E-003     4.9958830396317238E-023
  -2.6999999999999993E-003    -9.4646935962449680E-023
  -2.3999999999999994E-003     7.7285384192553372E-023
  -2.0999999999999977E-003     2.8571934500474969E-023
  -1.7999999999999995E-003    -4.5954586529274040E-022
  -1.4999999999999979E-003     1.8334902185562161E-021
  -1.1999999999999997E-003    -4.1300348177279987E-021
  -8.9999999999999976E-004     6.3367103424918240E-021
  -5.9999999999999810E-004    -5.0758479067227270E-021
  -2.9999999999999992E-004    -1.5156041017359800E-020
   0.0000000000000000          8.1507681241214724E-020
   3.0000000000000165E-004    -1.8885480262214745E-019
   5.9999999999999984E-004     2.2308192168821564E-019
   9.0000000000000149E-004     1.3063863545135546E-019
   1.2000000000000031E-003    -1.3082142390977862E-018
   1.5000000000000013E-003     3.0365435242051645E-018
   1.8000000000000030E-003    -2.9116664715132111E-018
   2.1000000000000012E-003    -3.4009537913322182E-018
   2.3999999999999994E-003     1.7621709080774571E-017
   2.7000000000000010E-003    -2.9716195261479792E-017
   2.9999999999999992E-003     1.2392240741247188E-017
   3.3000000000000008E-003     5.9251333893974075E-017
   3.6000000000000025E-003    -1.5592606696506945E-016
   3.9000000000000007E-003     1.6148192981347900E-016
   4.2000000000000023E-003     6.2398250971302562E-017
   4.5000000000000005E-003    -5.0187229930098916E-016
   4.7999999999999987E-003     8.3068806536913548E-016
   5.1000000000000004E-003    -5.1794097411567836E-016
   5.4000000000000020E-003    -7.0794671508610742E-016
   5.7000000000000037E-003     2.4367539992035720E-015
   5.9999999999999984E-003    -3.5562970216595681E-015
   6.3000000000000000E-003     2.4504316032245577E-015
   6.6000000000000017E-003     2.4752384442997876E-015
   6.9000000000000034E-003    -1.1223609954606718E-014
   7.2000000000000015E-003     1.9332717304554780E-014
   7.5000000000000032E-003    -1.5546728357108739E-014
   7.8000000000000014E-003    -1.3192876110424445E-014
   8.0999999999999996E-003     6.3589021895919229E-014
   8.4000000000000012E-003    -9.7625380432697358E-014
   8.7000000000000029E-003     5.3291655930108316E-014
   9.0000000000000011E-003     1.0156879974616168E-013
   9.2999999999999992E-003    -2.9816970159346264E-013
   9.6000000000000009E-003     3.5238339862832371E-013
   9.8999999999999991E-003    -7.9744975654776075E-014
   1.0200000000000001E-002    -5.0485068471856228E-013
   1.0500000000000002E-002     1.0613410451628152E-012
   1.0800000000000004E-002    -1.0163430547070259E-012
   1.1099999999999999E-002    -5.0148005187894089E-014
   1.1400000000000000E-002     1.8616901257532711E-012
   1.1700000000000002E-002    -3.2263626105093720E-012
   1.2000000000000004E-002     2.5641181177113727E-012
   1.2300000000000002E-002     8.6345417806937232E-013
   1.2600000000000000E-002    -5.6848411773007097E-012
   1.2900000000000002E-002     8.4873472956965879E-012
   1.3200000000000000E-002    -5.9178867250427651E-012
   1.3500000000000002E-002    -2.6804325502221000E-012
   1.3800000000000003E-002     1.4010175883413095E-011
   1.4100000000000001E-002    -2.1570471132450218E-011
   1.4400000000000000E-002     1.8168731623773715E-011
   1.4700000000000001E-002     1.2702839941184696E-012
   1.4999999999999999E-002    -3.6227420808374284E-011
   1.5300000000000001E-002     7.2614790345477858E-011
   1.5600000000000003E-002    -7.4290951817330968E-011
   1.5899999999999997E-002    -5.5411079192902501E-012
   1.6199999999999999E-002     1.6963368736052690E-010
   1.6500000000000001E-002    -2.9969167335429185E-010
   1.6800000000000002E-002     1.7577594672497569E-010
   1.7100000000000004E-002     2.9910390287621962E-010
   1.7400000000000006E-002    -8.3698967927394929E-010
   1.7700000000000000E-002     8.4292172124434737E-010
   1.8000000000000002E-002     1.6886192366162959E-010
   1.8300000000000004E-002    -2.3956033924999928E-009
   1.8600000000000005E-002     5.2415458023635833E-009
   1.8900000000000000E-002    -2.6447252880330015E-009
   1.9200000000000002E-002    -2.0140042546110683E-008
   1.9500000000000003E-002     4.1351556825738700E-008
   1.9799999999999998E-002     4.6367208172069470E-008
   2.0100000000000000E-002    -2.2311281538863948E-007
   2.0400000000000001E-002    -7.1004585717406833E-008
   2.0700000000000003E-002     1.8385481163611688E-006
   2.0999999999999998E-002     5.6954899069973969E-006
   2.1299999999999999E-002     1.0416894849659739E-005
   2.1600000000000001E-002     1.4949196330554192E-005
   2.1900000000000003E-002     1.9088515879719525E-005
   2.2200000000000004E-002     2.5171891517995237E-005
   2.2500000000000006E-002     3.7816087268716259E-005
   2.2800000000000001E-002     5.9067129965910303E-005
   2.3100000000000002E-002     8.8930990811322477E-005
   2.3400000000000004E-002     1.3095936330283735E-004
   2.3699999999999999E-002     1.8883356220580178E-004
   2.4000000000000000E-002     2.6598887144007227E-004
   2.4300000000000002E-002     3.7419218671032854E-004
   2.4599999999999997E-002     5.2316868940005621E-004
   2.4900000000000005E-002     7.0581704263700501E-004
   2.5200000000000000E-002     9.1433495267684403E-004
   2.5499999999999995E-002     1.1545491392766995E-003
   2.5800000000000003E-002     1.4310152995536539E-003
   2.6099999999999998E-002     1.7271923179091914E-003
   2.6400000000000007E-002     2.0010662925377992E-003
   2.6700000000000002E-002     2.1981272876908085E-003
   2.6999999999999996E-002     2.2438701170731613E-003
   2.7300000000000005E-002     2.0181548249642205E-003
   2.7600000000000000E-002     1.3528986455067936E-003
   2.7900000000000008E-002     4.1982950442686717E-005
   2.8200000000000003E-002    -2.1648219911159076E-003
   2.8499999999999998E-002    -5.5796678079663214E-003
   2.8800000000000006E-002    -1.0565692719346110E-002
   2.9100000000000001E-002    -1.7548128777246663E-002
   2.9400000000000003E-002    -2.7035806638449181E-002
   2.9700000000000004E-002    -3.9549109959421236E-002
   3.0000000000000006E-002    -5.5580214901008042E-002
   3.0300000000000001E-002    -7.5615456732289602E-002
   3.0600000000000002E-002   -0.10012206493149776     
   3.0900000000000004E-002   -0.12948815761214033     
   3.1199999999999999E-002   -0.16399396795750484     
   3.1500000000000007E-002   -0.20380997056825906     
   3.1800000000000002E-002   -0.24892020132565962     
   3.2099999999999997E-002   -0.29909496961386128     
   3.2400000000000005E-002   -0.35389091488053864     
   3.2700000000000000E-002   -0.41261477402366925     
   3.3000000000000002E-002   -0.47427540851494265     
   3.3300000000000003E-002   -0.53760242021724225     
   3.3599999999999998E-002   -0.60096074687290879     
   3.3900000000000000E-002   -0.66228502331536698     
   3.4200000000000001E-002   -0.71911938015880350     
   3.4500000000000003E-002   -0.76860023626567653     
   3.4799999999999998E-002   -0.80747890333180938     
   3.5099999999999999E-002   -0.83212771887967896     
   3.5400000000000001E-002   -0.83863814993875885     
   3.5699999999999996E-002   -0.82305000173160936     
   3.6000000000000004E-002   -0.78159014504540392     
   3.6299999999999999E-002   -0.71089561308338511     
   3.6600000000000008E-002   -0.60852105253688926     
   3.6900000000000002E-002   -0.47316231412270293     
   3.7199999999999997E-002   -0.30510511902536352     
   3.7500000000000006E-002   -0.10655112488194207     
   3.7800000000000000E-002    0.11805319577239440     
   3.8100000000000009E-002    0.36233802734871823     
   3.8400000000000004E-002    0.61766371687930721     
   3.8699999999999998E-002    0.87390420560978743     
   3.9000000000000007E-002     1.1197816347667118     
   3.9300000000000002E-002     1.3437052816866610     
   3.9600000000000003E-002     1.5348715385147975     
   3.9900000000000005E-002     1.6839836076335131     
   4.0200000000000000E-002     1.7843439574648421     
   4.0500000000000001E-002     1.8326693388334581     
   4.0800000000000003E-002     1.8296481795544024     
   4.1100000000000005E-002     1.7800885644803845     
   4.1399999999999999E-002     1.6928730310339106     
   4.1700000000000008E-002     1.5803628186904184     
   4.2000000000000003E-002     1.4572631452417819     
   4.2299999999999997E-002     1.3395397578810071     
   4.2600000000000006E-002     1.2428128172992883     
   4.2900000000000001E-002     1.1806965548327959     
   4.3200000000000002E-002     1.1634458525530331     
   4.3500000000000004E-002     1.1965939120108433     
   4.3799999999999999E-002     1.2799167712896806     
   4.4100000000000000E-002     1.4072384343925659     
   4.4400000000000002E-002     1.5661271267135890     
   4.4700000000000004E-002     1.7388876043241854     
   4.4999999999999998E-002     1.9033116609492358     
   4.5300000000000000E-002     2.0341913241425273     
   4.5600000000000002E-002     2.1055787651088265     
   4.5899999999999996E-002     2.0919752732394823     
   4.6200000000000005E-002     1.9710616609534739     
   4.6500000000000000E-002     1.7249705595806724     
   4.6799999999999994E-002     1.3424335752028058     
   4.7100000000000003E-002    0.81988766982977646     
   4.7399999999999998E-002    0.16220923873741297     
   4.7700000000000006E-002   -0.61613612298203291     
   4.8000000000000001E-002    -1.4923983577311650     
   4.8300000000000010E-002    -2.4339025177944800     
   4.8600000000000004E-002    -3.4016883859654001     
   4.8899999999999999E-002    -4.3500131677660141     
   4.9200000000000008E-002    -5.2290895997294040     
   4.9500000000000002E-002    -5.9884300160445783     
   4.9800000000000011E-002    -6.5783605419838906     
   5.0100000000000006E-002    -6.9542915471205644     
   5.0400000000000000E-002    -7.0798592739651927     
   5.0700000000000009E-002    -6.9296853819914990     
   5.1000000000000004E-002    -6.4929375581591486     
   5.1299999999999998E-002    -5.7746835328705588     
   5.1600000000000007E-002    -4.7977083620238830     
   5.1900000000000002E-002    -3.6024133213890366     
   5.2200000000000010E-002    -2.2455568388349079     
   5.2500000000000005E-002   -0.79724235672112176     
   5.2800000000000000E-002    0.66238366897426970     
   5.3099999999999994E-002     2.0492364241860277     
   5.3400000000000003E-002     3.2799324321724148     
   5.3699999999999998E-002     4.2791550511674625     
   5.4000000000000006E-002     4.9846741994497075     
   5.4300000000000001E-002     5.3533495330889451     
   5.4599999999999996E-002     5.3636730192190960     
   5.4900000000000004E-002     5.0199657235778226     
   5.5199999999999999E-002     4.3508031010402890     
   5.5499999999999994E-002     3.4085097380183864     
   5.5800000000000002E-002     2.2651151966643002     
   5.6099999999999997E-002     1.0070316912344643     
   5.6400000000000006E-002   -0.27131522818593190     
   5.6700000000000000E-002    -1.4744138622364469     
   5.6999999999999995E-002    -2.5131077476656412     
   5.7300000000000004E-002    -3.3102837698199052     
   5.7599999999999998E-002    -3.8072275942080305     
   5.7900000000000007E-002    -3.9667708973902926     
   5.8200000000000002E-002    -3.7756793064136294     
   5.8499999999999996E-002    -3.2445597556775652     
   5.8800000000000005E-002    -2.4068220948555621     
   5.9100000000000000E-002    -1.3145117748418484     
   5.9400000000000008E-002    -3.5055184239392134E-002
   5.9700000000000003E-002     1.3553046253525749     
   6.0000000000000012E-002     2.7755837794725275     
   6.0300000000000006E-002     4.1462525163634272     
   6.0600000000000001E-002     5.3940550170512500     
   6.0900000000000010E-002     6.4553007932081563     
   6.1200000000000004E-002     7.2794993392336922     
   6.1500000000000013E-002     7.8308187551038877     
   6.1800000000000008E-002     8.0886543469585774     
   6.2100000000000002E-002     8.0477603907941884     
   6.2399999999999997E-002     7.7164862119713442     
   6.2700000000000006E-002     7.1158522493086256     
   6.3000000000000000E-002     6.2768222691747226     
   6.3300000000000009E-002     5.2393828282424790     
   6.3600000000000004E-002     4.0488876006731287     
   6.3899999999999998E-002     2.7548750621693796     
   6.4199999999999993E-002     1.4093286133480860     
   6.4500000000000002E-002     6.4430129703640038E-002
   6.4800000000000010E-002    -1.2287666289817425     
   6.5100000000000005E-002    -2.4219048912811743     
   6.5400000000000000E-002    -3.4713296305491723     
   6.5700000000000008E-002    -4.3386826726972885     
   6.5999999999999989E-002    -4.9940605049520377     
   6.6299999999999998E-002    -5.4166526987117258     
   6.6600000000000006E-002    -5.5955584654294919     
   6.6900000000000001E-002    -5.5330264629944059     
   6.7199999999999996E-002    -5.2427966525800969     
   6.7500000000000004E-002    -4.7517762663842840     
   6.7800000000000013E-002    -4.0993418590529949     
   6.8099999999999994E-002    -3.3345304823967807     
   6.8400000000000002E-002    -2.5155687158218094     
   6.8700000000000011E-002    -1.7060922351512606     
   6.8999999999999992E-002   -0.96972452828487032     
   6.9300000000000000E-002   -0.36880435880438034     
   6.9600000000000009E-002     4.2449713951088985E-002
   6.9900000000000004E-002    0.22123767300067615     
   7.0199999999999999E-002    0.13877734957726706     
   7.0500000000000007E-002   -0.21396592396473835     
   7.0800000000000016E-002   -0.82872844771526899     
   7.1099999999999997E-002    -1.6757058057856775     
   7.1400000000000005E-002    -2.7069838243131517     
   7.1700000000000000E-002    -3.8589604695242539     
   7.1999999999999995E-002    -5.0543416572901183     
   7.2300000000000003E-002    -6.2099809873110399     
   7.2600000000000012E-002    -7.2386979250588190     
   7.2900000000000006E-002    -8.0589400622411489     
   7.3200000000000001E-002    -8.5982452948865458     
   7.3499999999999996E-002    -8.7997848215153933     
   7.3800000000000004E-002    -8.6272755841246163     
   7.4099999999999999E-002    -8.0672314813585579     
   7.4400000000000008E-002    -7.1335834503555633     
   7.4700000000000003E-002    -5.8636498175694358     
   7.5000000000000011E-002    -4.3204200592450803     
   7.5299999999999992E-002    -2.5859217925533686     
   7.5600000000000001E-002   -0.75625461721228793     
   7.5900000000000009E-002     1.0644448036251299     
   7.6200000000000004E-002     2.7747733582192060     
   7.6499999999999999E-002     4.2813164976927531     
   7.6800000000000007E-002     5.5086978295787672     
   7.7099999999999988E-002     6.4070429593561986     
   7.7399999999999997E-002     6.9544129408938895     
   7.7700000000000005E-002     7.1610434768429627     
   7.8000000000000014E-002     7.0675664561576532     
   7.8299999999999995E-002     6.7403087056960569     
   7.8600000000000003E-002     6.2651482251169277     
   7.8900000000000012E-002     5.7370492472336903     
   7.9199999999999993E-002     5.2489344656256218     
   7.9500000000000001E-002     4.8810928905294517     
   7.9800000000000010E-002     4.6896100410596837     
   8.0100000000000018E-002     4.6986981166424950     
   8.0399999999999999E-002     4.8963788301214564     
   8.0700000000000008E-002     5.2340711826356383     
   8.1000000000000003E-002     5.6295231666275267     
   8.1299999999999997E-002     5.9783300238984038     
   8.1600000000000006E-002     6.1627525776704575     
   8.1900000000000014E-002     6.0692666653646290     
   8.2199999999999995E-002     5.6031991624951747     
   8.2500000000000004E-002     4.7019057065970342     
   8.2799999999999999E-002     3.3480728307395005     
   8.3100000000000007E-002     1.5767397320116592     
   8.3400000000000002E-002   -0.52463244800923237     
   8.3700000000000011E-002    -2.8175956022729620     
   8.4000000000000005E-002    -5.1241343218331741     
   8.4300000000000000E-002    -7.2432481326310310     
   8.4599999999999995E-002    -8.9640514676851026     
   8.4900000000000003E-002    -10.094021257735776     
   8.5199999999999998E-002    -10.470938588508618     
   8.5500000000000007E-002    -9.9841074033940629     
   8.5800000000000001E-002    -8.5888932822587574     
   8.6100000000000010E-002    -6.3098312250775308     
   8.6399999999999991E-002    -3.2467111887085474     
   8.6699999999999999E-002    0.43476782170059947     
   8.7000000000000008E-002     4.5110820906790332     
   8.7300000000000003E-002     8.7203706440971871     
   8.7599999999999997E-002     12.778865427411219     
   8.7900000000000006E-002     16.405070398905853     
   8.8200000000000014E-002     19.339460586460444     
   8.8499999999999995E-002     21.361940118549700     
   8.8800000000000004E-002     22.312006407227297     
   8.9100000000000013E-002     22.092777736487903     
   8.9399999999999993E-002     20.683546642744105     
   8.9700000000000002E-002     18.135177172097428     
   9.0000000000000011E-002     14.564440089287702     
   9.0299999999999991E-002     10.150832274707028     
   9.0600000000000000E-002     5.1154015950500753     
   9.0900000000000009E-002   -0.28989543045993482     
   9.1200000000000017E-002    -5.7985949525770470     
   9.1499999999999998E-002    -11.147378799731628     
   9.1800000000000007E-002    -16.092467371806826     
   9.2100000000000001E-002    -20.419546894656598     
   9.2399999999999996E-002    -23.957688203867971     
   9.2700000000000005E-002    -26.586541263700418     
   9.3000000000000013E-002    -28.234825629953693     
   9.3300000000000008E-002    -28.889987898429119     
   9.3600000000000003E-002    -28.585424825396693     
   9.3899999999999997E-002    -27.400513066325239     
   9.4200000000000006E-002    -25.450318487852421     
   9.4500000000000001E-002    -22.874696148898078     
   9.4800000000000009E-002    -19.828936943565672     
   9.5100000000000004E-002    -16.471593271460073     
   9.5399999999999999E-002    -12.954241692670992     
   9.5699999999999993E-002    -9.4130053398230764     
   9.6000000000000002E-002    -5.9638188149449141     
   9.6300000000000011E-002    -2.6939717739184079     
   9.6600000000000005E-002    0.33364483308079418     
   9.6900000000000000E-002     3.0839787913605607     
   9.7200000000000009E-002     5.5460119939805903     
   9.7499999999999989E-002     7.7240024171662665     
   9.7799999999999998E-002     9.6395339129250441     
   9.8100000000000007E-002     11.316364755340253     
   9.8400000000000015E-002     12.782271593491323     
   9.8699999999999996E-002     14.058596025703604     
   9.9000000000000005E-002     15.159374017316120     
   9.9300000000000013E-002     16.088618459213144     
   9.9599999999999994E-002     16.838872388174014     
   9.9900000000000003E-002     17.393127883097886     
  0.10020000000000001          17.727267828792471     
  0.10049999999999999          17.811103859537894     
  0.10080000000000000          17.616601585468455     
  0.10110000000000001          17.117604424381312     
  0.10140000000000000          16.296404462290720     
  0.10170000000000000          15.148890253838196     
  0.10200000000000001          13.681269238132995     
  0.10230000000000002          11.919141015272173     
  0.10260000000000000          9.9007933202382752     
  0.10290000000000001          7.6806710561922564     
  0.10320000000000000          5.3265112639797598     
  0.10350000000000001          2.9105139599824472     
  0.10380000000000000         0.51433409094857230     
  0.10410000000000001         -1.7861031959281588     
  0.10440000000000001         -3.9170560158138388     
  0.10470000000000000         -5.8161121640198665     
  0.10500000000000000         -7.4352215607560641     
  0.10530000000000000         -8.7397476224411541     
  0.10560000000000000         -9.7174889779196238     
  0.10590000000000001         -10.367634821212437     
  0.10620000000000000         -10.710979647733197     
  0.10650000000000001         -10.778405496438580     
  0.10679999999999999         -10.609622759360352     
  0.10710000000000000         -10.254566647506795     
  0.10740000000000001         -9.7588021126706046     
  0.10770000000000000         -9.1712505426361073     
  0.10800000000000000         -8.5303802798046355     
  0.10830000000000001         -7.8699179409522468     
  0.10859999999999999         -7.2133271964517078     
  0.10890000000000000         -6.5716092709720586     
  0.10920000000000001         -5.9509536065123587     
  0.10950000000000001         -5.3460716327254936     
  0.10979999999999999         -4.7474715186755532     
  0.11009999999999999         -4.1443512621269578     
  0.11040000000000001         -3.5216716735745770     
  0.11070000000000001         -2.8707014012402103     
  0.11100000000000000         -2.1840067878623195     
  0.11130000000000000         -1.4602530537715841     
  0.11160000000000002        -0.70644123953363747     
  0.11190000000000001          6.6820569506254368E-002
  0.11220000000000001         0.84080194716815870     
  0.11250000000000000          1.5933102188118387     
  0.11280000000000000          2.3025562941847362     
  0.11309999999999999          2.9414081913084407     
  0.11340000000000001          3.4900079726810769     
  0.11369999999999998          3.9296027043522050     
  0.11400000000000000          4.2487071903941214     
  0.11430000000000000          4.4436453479952354     
  0.11460000000000002          4.5163350210442168     
  0.11489999999999999          4.4805226442463146     
  0.11520000000000001          4.3485348975944911     
  0.11550000000000001          4.1469224465931518     
  0.11580000000000000          3.8950395490338980     
  0.11609999999999999          3.6197932729771729     
  0.11640000000000002          3.3426898481380567     
  0.11670000000000001          3.0794642676009913     
  0.11700000000000001          2.8451305145101249     
  0.11730000000000000          2.6407791720457006     
  0.11760000000000000          2.4663323052423940     
  0.11789999999999999          2.3133082582941471     
  0.11820000000000001          2.1666852608416542     
  0.11850000000000001          2.0130998945219680     
  0.11880000000000000          1.8331371909683054     
  0.11910000000000000          1.6141124226481689     
  0.11940000000000002          1.3424435340637706     
  0.11970000000000001          1.0152209174095774     
  0.12000000000000001         0.63165975394495177     
  0.12030000000000000         0.20198527880992179     
  0.12060000000000000        -0.26002990887181632     
  0.12089999999999999        -0.73423161627668199     
  0.12119999999999999         -1.1971680759940981     
  0.12150000000000001         -1.6262070411469405     
  0.12180000000000001         -1.9982246356209199     
  0.12210000000000000         -2.2955463178995363     
  0.12239999999999999         -2.5059498342067763     
  0.12270000000000002         -2.6228958666058393     
  0.12300000000000001         -2.6480948703031801     
  0.12330000000000001         -2.5891245599611805     
  0.12360000000000000         -2.4591637769723800     
  0.12390000000000000         -2.2752847542928389     
  0.12419999999999999         -2.0554791952278082     
  0.12450000000000001         -1.8183338144757544     
  0.12480000000000001         -1.5796540636540488     
  0.12509999999999999         -1.3522318474062360     
  0.12540000000000001         -1.1442168843784222     
  0.12570000000000003        -0.95899809447951556     
  0.12600000000000000        -0.79695191935185661     
  0.12630000000000002        -0.65268742750034281     
  0.12659999999999999        -0.52142420817340918     
  0.12690000000000001        -0.39499466808821748     
  0.12719999999999998        -0.26632246783582858     
  0.12750000000000000        -0.13016592250691839     
  0.12780000000000002          1.9275661232168464E-002
  0.12809999999999999         0.18282704996349342     
  0.12840000000000001         0.36117803186759490     
  0.12869999999999998         0.55231088346477020     
  0.12900000000000000         0.75223455513676696     
  0.12930000000000003         0.95603986537786478     
  0.12959999999999999          1.1570005307816089     
  0.12990000000000002          1.3487622179228507     
  0.13019999999999998          1.5233367925228603     
  0.13050000000000000          1.6738595369623144     
  0.13080000000000003          1.7929231164145429     
  0.13109999999999999          1.8722550576814883     
  0.13140000000000002          1.9068226633254630     
  0.13169999999999998          1.8900513617106849     
  0.13200000000000001          1.8170115370039659     
  0.13229999999999997          1.6878401511020020     
  0.13260000000000000          1.4992101863513208     
  0.13290000000000002          1.2568414343322538     
  0.13319999999999999         0.96510785412447331     
  0.13350000000000001         0.63283845830440111     
  0.13380000000000003         0.27354894852285233     
  0.13410000000000000        -0.10009664325911938     
  0.13440000000000002        -0.46957152831164906     
  0.13469999999999999        -0.81924470275475503     
  0.13500000000000001         -1.1305425874281105     
  0.13529999999999998         -1.3890129695769105     
  0.13560000000000000         -1.5801784520461681     
  0.13590000000000002         -1.6954027778042797     
  0.13619999999999999         -1.7298294138120380     
  0.13650000000000001         -1.6815562607926080     
  0.13680000000000003         -1.5589144703084594     
  0.13710000000000000         -1.3684807566257049     
  0.13740000000000002         -1.1269869778221540     
  0.13769999999999999        -0.85131446567505487     
  0.13800000000000001        -0.56112559014182428     
  0.13829999999999998        -0.27753642008760854     
  0.13860000000000000         -1.9442004053093952E-002
  0.13890000000000002         0.19621869795643376     
  0.13919999999999999         0.35670916571574474     
  0.13950000000000001         0.45337542348128962     
  0.13979999999999998         0.48419981688964853     
  0.14010000000000000         0.45125768388163912     
  0.14040000000000002         0.36308743645132785     
  0.14069999999999999         0.23329873354242114     
  0.14100000000000001          7.6022861128599933E-002
  0.14130000000000004         -8.7721194347222864E-002
  0.14160000000000000        -0.24187687703405247     
  0.14189999999999997        -0.36845735255427903     
  0.14219999999999999        -0.45314751150862398     
  0.14250000000000002        -0.48761982976272550     
  0.14279999999999998        -0.46625569590745919     
  0.14310000000000000        -0.38923599589073765     
  0.14339999999999997        -0.26550656370064984     
  0.14369999999999999        -0.10343826688330308     
  0.14400000000000002          7.9824879710251262E-002
  0.14429999999999998         0.26697804042724793     
  0.14460000000000001         0.44139618831390021     
  0.14490000000000003         0.58529427401338052     
  0.14520000000000000         0.68630123141430366     
  0.14550000000000002         0.73405510513070005     
  0.14579999999999999         0.72537603409062223     
  0.14610000000000001         0.66068025903651428     
  0.14640000000000003         0.54639610336831468     
  0.14670000000000000         0.39580266139533943     
  0.14699999999999996         0.21936072478946989     
  0.14729999999999999          3.9077119637585117E-002
  0.14760000000000001        -0.13330756160995860     
  0.14789999999999998        -0.27797886612158085     
  0.14820000000000000        -0.38272451892658399     