  -1.4999999999999999E-002     0.0000000000000000     
  -1.4700000000000000E-002     0.0000000000000000     
  -1.4400000000000000E-002     0.0000000000000000     
  -1.4100000000000000E-002     0.0000000000000000     
  -1.3800000000000000E-002     0.0000000000000000     
  -1.3500000000000000E-002     0.0000000000000000     
  -1.3200000000000000E-002    -1.5207835180587621E-063
  -1.2899999999999998E-002     4.1028835930343582E-035
  -1.2600000000000000E-002    -2.8056057101527057E-034
  -1.2299999999999998E-002    -2.4527466120110368E-032
  -1.2000000000000000E-002     3.1235408628876420E-031
  -1.1699999999999999E-002     5.0870646458802665E-031
  -1.1399999999999999E-002    -1.6607842221124607E-029
  -1.1099999999999999E-002     2.3402062911616220E-029
  -1.0799999999999999E-002     2.8192784473518895E-028
  -1.0499999999999999E-002    -4.3692401146171295E-028
  -1.0199999999999999E-002    -3.3612919373803582E-027
  -9.8999999999999991E-003     2.9418261360127981E-027
  -9.5999999999999992E-003     3.0779131328230771E-026
  -9.2999999999999992E-003     1.4648697129194035E-026
  -8.9999999999999993E-003    -2.5536018785292734E-025
  -8.6999999999999994E-003    -3.9861239216744393E-025
  -8.3999999999999995E-003     1.7998206630296409E-024
  -8.0999999999999996E-003     2.7233946022730775E-024
  -7.7999999999999988E-003    -5.0382607852791734E-024
  -7.4999999999999997E-003    -1.9342514486847830E-023
  -7.1999999999999998E-003    -1.3661190221917981E-023
  -6.8999999999999981E-003     1.4278570737179578E-022
  -6.5999999999999982E-003     9.6664757967530772E-023
  -6.3000000000000000E-003    -4.5447654509623969E-022
  -6.0000000000000001E-003    -4.3000819571301479E-022
  -5.6999999999999985E-003    -5.4502618211361959E-022
  -5.3999999999999986E-003     4.4366520487686827E-021
  -5.1000000000000004E-003     5.6385444864745577E-021
  -4.7999999999999987E-003    -2.1752134064661737E-020
  -4.5000000000000005E-003     4.5746932818372243E-021
  -4.1999999999999989E-003    -2.1524781352834527E-020
  -3.8999999999999990E-003     4.3196946421257755E-020
  -3.5999999999999990E-003     3.0363805070418057E-019
  -3.2999999999999991E-003    -7.3592568503994762E-019
  -2.9999999999999992E-003     5.8651169129047751E-019
  -2.6999999999999993E-003    -8.7843968557893386E-019
  -2.3999999999999994E-003    -6.0881512930970033E-020
  -2.0999999999999977E-003     7.5019359855450186E-018
  -1.7999999999999995E-003    -1.6180337621517625E-017
  -1.4999999999999979E-003     2.2840198610007653E-017
  -1.1999999999999997E-003    -3.7183546162584527E-017
  -8.9999999999999976E-004     7.1458516167441013E-018
  -5.9999999999999810E-004     1.5712577128667858E-016
  -2.9999999999999992E-004    -4.3764417180778312E-016
   0.0000000000000000          7.6523858117660236E-016
   3.0000000000000165E-004    -6.6022164211018331E-016
   5.9999999999999984E-004    -1.3324660340953803E-015
   9.0000000000000149E-004     5.7239895168789367E-015
   1.2000000000000031E-003    -9.0899425847552061E-015
   1.5000000000000013E-003     4.0793944567782859E-015
   1.8000000000000030E-003     1.7592643489203114E-014
   2.1000000000000012E-003    -5.0515193793935789E-014
   2.3999999999999994E-003     5.4599181801973589E-014
   2.7000000000000010E-003     1.9878851934072030E-014
   2.9999999999999992E-003    -1.5886510169261372E-013
   3.3000000000000008E-003     2.4781415348057428E-013
   3.6000000000000025E-003    -1.1514890865576814E-013
   3.9000000000000007E-003    -2.9643233210302921E-013
   4.2000000000000023E-003     7.0752855374197838E-013
   4.5000000000000005E-003    -6.5307284287198695E-013
   4.7999999999999987E-003    -4.8413204768873009E-014
   5.1000000000000004E-003     1.1567682707458880E-012
   5.4000000000000020E-003    -2.0139502159348490E-012
   5.7000000000000037E-003     1.6553663667292103E-012
   5.9999999999999984E-003     3.3229891868582124E-013
   6.3000000000000000E-003    -3.3933852617870923E-012
   6.6000000000000017E-003     6.0962765441982202E-012
   6.9000000000000034E-003    -5.3517806910453385E-012
   7.2000000000000015E-003    -1.4100987041865819E-012
   7.5000000000000032E-003     1.1621123165954430E-011
   7.8000000000000014E-003    -1.8485551756565880E-011
   8.0999999999999996E-003     1.3665359095672927E-011
   8.4000000000000012E-003     8.3862911302245681E-012
   8.7000000000000029E-003    -3.7258725715541961E-011
   9.0000000000000011E-003     4.8105133624562377E-011
   9.2999999999999992E-003    -2.3750367234489228E-011
   9.6000000000000009E-003    -3.5077993739954224E-011
   9.8999999999999991E-003     9.7618302358381658E-011
   1.0200000000000001E-002    -1.0365091442171390E-010
   1.0500000000000002E-002     2.4812369553649439E-011
   1.0800000000000004E-002     1.0367800972934398E-010
   1.1099999999999999E-002    -2.1091703684375801E-010
   1.1400000000000000E-002     1.9352543199340019E-010
   1.1700000000000002E-002    -4.0224374971839696E-012
   1.2000000000000004E-002    -2.3897247137253256E-010
   1.2300000000000002E-002     3.8164147017114250E-010
   1.2600000000000000E-002    -3.6107130083694302E-010
   1.2900000000000002E-002     1.0212683177574604E-010
   1.3200000000000000E-002     4.9241346066606658E-010
   1.3500000000000002E-002    -1.0661939320632756E-009
   1.3800000000000003E-002     5.4138083044436269E-010
   1.4100000000000001E-002     4.8551150966323163E-010
   1.4400000000000000E-002     6.0296163447714037E-010
   1.4700000000000001E-002     6.4128343869812205E-010
   1.4999999999999999E-002    -6.5277601812499152E-009
   1.5300000000000001E-002    -4.9494038926683631E-009
   1.5600000000000003E-002    -1.3790369654954142E-009
   1.5899999999999997E-002     6.9137813413357998E-008
   1.6199999999999999E-002     1.0084276195051000E-007
   1.6500000000000001E-002    -4.5083970581336886E-007
   1.6800000000000002E-002    -6.6364678720222518E-007
   1.7100000000000004E-002     2.7943290973707815E-006
   1.7400000000000006E-002     1.1530209655052191E-005
   1.7700000000000000E-002     2.3088072963238031E-005
   1.8000000000000002E-002     3.4580895630919903E-005
   1.8300000000000004E-002     4.4791745431036130E-005
   1.8600000000000005E-002     5.3003176519571645E-005
   1.8900000000000000E-002     6.1811436618966644E-005
   1.9200000000000002E-002     8.3675275714116252E-005
   1.9500000000000003E-002     1.3560930192251991E-004
   1.9799999999999998E-002     2.1834187418535194E-004
   2.0100000000000000E-002     3.1190299202190491E-004
   2.0400000000000001E-002     4.0374242935828928E-004
   2.0700000000000003E-002     5.0929672701774398E-004
   2.0999999999999998E-002     6.5143355108040536E-004
   2.1299999999999999E-002     8.2261599774791799E-004
   2.1600000000000001E-002     9.7486337231402409E-004
   2.1900000000000003E-002     1.0401761454599614E-003
   2.2200000000000004E-002     9.4779720112454021E-004
   2.2500000000000006E-002     6.0688929042636980E-004
   2.2800000000000001E-002    -1.4267705615527470E-004
   2.3100000000000002E-002    -1.5386422002586530E-003
   2.3400000000000004E-002    -3.8795279653710845E-003
   2.3699999999999999E-002    -7.5505644056831217E-003
   2.4000000000000000E-002    -1.3052454640502986E-002
   2.4300000000000002E-002    -2.1012176443584774E-002
   2.4599999999999997E-002    -3.2151729736944315E-002
   2.4900000000000005E-002    -4.7254902568576056E-002
   2.5200000000000000E-002    -6.7174972686853879E-002
   2.5499999999999995E-002    -9.2805126873706900E-002
   2.5800000000000003E-002   -0.12497040144275597     
   2.6099999999999998E-002   -0.16433881543914958     
   2.6400000000000007E-002   -0.21136452643606024     
   2.6700000000000002E-002   -0.26617840385433927     
   2.6999999999999996E-002   -0.32850069325746190     
   2.7300000000000005E-002   -0.39757589082522204     
   2.7600000000000000E-002   -0.47206384566975884     
   2.7900000000000008E-002   -0.55002296623823543     
   2.8200000000000003E-002   -0.62893146936009026     
   2.8499999999999998E-002   -0.70581037445287786     
   2.8800000000000006E-002   -0.77725571982070918     
   2.9100000000000001E-002   -0.83967394142815566     
   2.9400000000000003E-002   -0.88937545216931313     
   2.9700000000000004E-002   -0.92289746065639644     
   3.0000000000000006E-002   -0.93710714683445362     
   3.0300000000000001E-002   -0.92942470258959509     
   3.0600000000000002E-002   -0.89785176311729042     
   3.0900000000000004E-002   -0.84117960598614916     
   3.1199999999999999E-002   -0.75877707774605418     
   3.1500000000000007E-002   -0.65087657705663282     
   3.1800000000000002E-002   -0.51826279915153406     
   3.2099999999999997E-002   -0.36227902415863877     
   3.2400000000000005E-002   -0.18473903630669092     
   3.2700000000000000E-002     1.1993348571470573E-002
   3.3000000000000002E-002    0.22508448112915663     
   3.3300000000000003E-002    0.45097302873139794     
   3.3599999999999998E-002    0.68555556950981456     
   3.3900000000000000E-002    0.92386906339497965     
   3.4200000000000001E-002     1.1603205088455850     
   3.4500000000000003E-002     1.3888057348808456     
   3.4799999999999998E-002     1.6025804165521100     
   3.5099999999999999E-002     1.7950681351659763     
   3.5400000000000001E-002     1.9600641664558844     
   3.5699999999999996E-002     2.0925629123394698     
   3.6000000000000004E-002     2.1890769049081178     
   3.6299999999999999E-002     2.2481410617527664     
   3.6600000000000008E-002     2.2705822181882618     
   3.6900000000000002E-002     2.2594161304299076     
   3.7199999999999997E-002     2.2195716253391189     
   3.7500000000000006E-002     2.1570141737264832     
   3.7800000000000000E-002     2.0781751163480191     
   3.8100000000000009E-002     1.9883660610793932     
   3.8400000000000004E-002     1.8910438385752260     
   3.8699999999999998E-002     1.7867736197650914     
   3.9000000000000007E-002     1.6728581750793154     
   3.9300000000000002E-002     1.5430827665056126     
   3.9600000000000003E-002     1.3885503279442011     
   3.9900000000000005E-002     1.1985445403760226     
   4.0200000000000000E-002    0.96267995036672904     
   4.0500000000000001E-002    0.67232091806586769     
   4.0800000000000003E-002    0.32294562696733836     
   4.1100000000000005E-002    -8.4043909378900855E-002
   4.1399999999999999E-002   -0.54019644463373984     
   4.1700000000000008E-002    -1.0292334951385846     
   4.2000000000000003E-002    -1.5276241820669683     
   4.2299999999999997E-002    -2.0059631492870555     
   4.2600000000000006E-002    -2.4312084421887339     
   4.2900000000000001E-002    -2.7698288712873174     
   4.3200000000000002E-002    -2.9917968083736208     
   4.3500000000000004E-002    -3.0732126980612144     
   4.3799999999999999E-002    -3.0006995893469388     
   4.4100000000000000E-002    -2.7729302062290180     
   4.4400000000000002E-002    -2.4029846694132169     
   4.4700000000000004E-002    -1.9175786158667416     
   4.4999999999999998E-002    -1.3559443003825131     
   4.5300000000000000E-002   -0.76757700376435556     
   4.5600000000000002E-002   -0.20677232616468369     
   4.5899999999999996E-002    0.27025152458555218     
   4.6200000000000005E-002    0.61272867601700820     
   4.6500000000000000E-002    0.77863403838094281     
   4.6799999999999994E-002    0.73992994421349845     
   4.7100000000000003E-002    0.48613825474335964     
   4.7399999999999998E-002     2.5166139010515679E-002
   4.7700000000000006E-002   -0.61461732391241997     
   4.8000000000000001E-002    -1.3884037552213344     
   4.8300000000000010E-002    -2.2357544783014247     
   4.8600000000000004E-002    -3.0871508072610347     
   4.8899999999999999E-002    -3.8684809222514667     
   4.9200000000000008E-002    -4.5070748397592189     
   4.9500000000000002E-002    -4.9387021175160308     
   4.9800000000000011E-002    -5.1111092703361019     
   5.0100000000000006E-002    -4.9910817292196867     
   5.0400000000000000E-002    -4.5645928521019687     
   5.0700000000000009E-002    -3.8404078598091345     
   5.1000000000000004E-002    -2.8481187896376916     
   5.1299999999999998E-002    -1.6363160634120011     
   5.1600000000000007E-002   -0.26881059610674995     
   5.1900000000000002E-002     1.1806976907872162     
   5.2200000000000010E-002     2.6333928301238272     
   5.2500000000000005E-002     4.0126910489014112     
   5.2800000000000000E-002     5.2480049501027910     
   5.3099999999999994E-002     6.2810249784947336     
   5.3400000000000003E-002     7.0680933539351489     
   5.3699999999999998E-002     7.5832467696305370     
   5.4000000000000006E-002     7.8177242959885040     
   5.4300000000000001E-002     7.7793169748249156     
   5.4599999999999996E-002     7.4905372416177585     
   5.4900000000000004E-002     6.9843855650598430     
   5.5199999999999999E-002     6.3021507976276867     
   5.5499999999999994E-002     5.4876728704840669     
   5.5800000000000002E-002     4.5858426644112251     
   5.6099999999999997E-002     3.6378169483194820     
   5.6400000000000006E-002     2.6805029187849034     
   5.6700000000000000E-002     1.7449579343733164     
   5.6999999999999995E-002    0.85532652611053206     
   5.7300000000000004E-002     3.0699001211560210E-002
   5.7599999999999998E-002   -0.71544770509923472     
   5.7900000000000007E-002    -1.3734047960863776     
   5.8200000000000002E-002    -1.9364890515407200     
   5.8499999999999996E-002    -2.4017456304014435     
   5.8800000000000005E-002    -2.7662976541666837     
   5.9100000000000000E-002    -3.0328679826067861     
   5.9400000000000008E-002    -3.2051079962590125     
   5.9700000000000003E-002    -3.2930985105031567     
   6.0000000000000012E-002    -3.3105078249326758     
   6.0300000000000006E-002    -3.2773309150618486     
   6.0600000000000001E-002    -3.2191667852755330     
   6.0900000000000010E-002    -3.1648907878707560     
   6.1200000000000004E-002    -3.1471171556620181     
   6.1500000000000013E-002    -3.1962409205098963     
   6.1800000000000008E-002    -3.3401353611627673     
   6.2100000000000002E-002    -3.5963626286681047     
   6.2399999999999997E-002    -3.9705999459515597     
   6.2700000000000006E-002    -4.4522763089710748     
   6.3000000000000000E-002    -5.0118533227855790     
   6.3300000000000009E-002    -5.6012879723081630     
   6.3600000000000004E-002    -6.1544572455622264     
   6.3899999999999998E-002    -6.5929991510785593     
   6.4199999999999993E-002    -6.8312370150954296     
   6.4500000000000002E-002    -6.7861096162047643     
   6.4800000000000010E-002    -6.3864857223800984     
   6.5100000000000005E-002    -5.5842457873324793     
   6.5400000000000000E-002    -4.3629503732688777     
   6.5700000000000008E-002    -2.7456483598436567     
   6.5999999999999989E-002   -0.79871309908404453     
   6.6299999999999998E-002     1.3683938575173784     
   6.6600000000000006E-002     3.6085153106284875     
   6.6900000000000001E-002     5.7466582140442819     
   6.7199999999999996E-002     7.5941099625344393     
   6.7500000000000004E-002     8.9658608302906266     
   6.7800000000000013E-002     9.6998743920088710     
   6.8099999999999994E-002     9.6741947717086578     
   6.8400000000000002E-002     8.8239368285239852     
   6.8700000000000011E-002     7.1510288934566217     
   6.8999999999999992E-002     4.7307015700345989     
   6.9300000000000000E-002     1.7090695732760521     
   6.9600000000000009E-002    -1.7052833736696424     
   6.9900000000000004E-002    -5.2557763095116554     
   7.0199999999999999E-002    -8.6590877214700672     
   7.0500000000000007E-002    -11.626968104029254     
   7.0800000000000016E-002    -13.891833122181337     
   7.1099999999999997E-002    -15.228906499109989     
   7.1400000000000005E-002    -15.475179539288630     
   7.1700000000000000E-002    -14.544526867102512     
   7.1999999999999995E-002    -12.433414167340938     
   7.2300000000000003E-002    -9.2229991300655456     
   7.2600000000000012E-002    -5.0712755573982715     
   7.2900000000000006E-002   -0.20168333292230300     
   7.3200000000000001E-002     5.1153060174714584     
   7.3499999999999996E-002     10.579175338398981     
   7.3800000000000004E-002     15.884706099474174     
   7.4099999999999999E-002     20.737480907311479     
   7.4400000000000008E-002     24.875536861751193     
   7.4700000000000003E-002     28.081202560976237     
   7.5000000000000011E-002     30.193080066355140     
   7.5299999999999992E-002     31.112218036578124     
   7.5600000000000001E-002     30.801180940540092     
   7.5900000000000009E-002     29.286671662911647     
   7.6200000000000004E-002     26.648734001296585     
   7.6499999999999999E-002     23.018597363682819     
   7.6800000000000007E-002     18.563858574844776     
   7.7099999999999988E-002     13.483117459016031     
   7.7399999999999997E-002     7.9916865058553839     
   7.7700000000000005E-002     2.3126618560962013     
   7.8000000000000014E-002    -3.3332249854418783     
   7.8299999999999995E-002    -8.7377456624616130     
   7.8600000000000003E-002    -13.712512536704560     
   7.8900000000000012E-002    -18.097864787904953     
   7.9199999999999993E-002    -21.766463050202045     
   7.9500000000000001E-002    -24.628336733655608     
   7.9800000000000010E-002    -26.633297774232858     
   8.0100000000000018E-002    -27.769598813202613     
   8.0399999999999999E-002    -28.063650910091209     
   8.0700000000000008E-002    -27.575060620860782     
   8.1000000000000003E-002    -26.390761085840907     
   8.1299999999999997E-002    -24.618710149876769     
   8.1600000000000006E-002    -22.380453609441602     
   8.1900000000000014E-002    -19.801182203594589     
   8.2199999999999995E-002    -17.005812013385054     
   8.2500000000000004E-002    -14.106637238491146     
   8.2799999999999999E-002    -11.205089728468332     
   8.3100000000000007E-002    -8.3806334431463405     
   8.3400000000000002E-002    -5.6948600085629257     
   8.3700000000000011E-002    -3.1879665587330548     
   8.4000000000000005E-002   -0.88017140550520501     
   8.4300000000000000E-002     1.2216869512716493     
   8.4599999999999995E-002     3.1271780987292899     
   8.4900000000000003E-002     4.8496767834506613     
   8.5199999999999998E-002     6.4099027737881036     
   8.5500000000000007E-002     7.8247320525631547     
   8.5800000000000001E-002     9.1092503177352100     
   8.6100000000000010E-002     10.271324429159996     
   8.6399999999999991E-002     11.308570200337654     
   8.6699999999999999E-002     12.213465048382137     
   8.7000000000000008E-002     12.966250747255442     
   8.7300000000000003E-002     13.544965130488825     
   8.7599999999999997E-002     13.922034611226396     
   8.7900000000000006E-002     14.069859853419189     
   8.8200000000000014E-002     13.966555938275389     
   8.8499999999999995E-002     13.594415039887542     
   8.8800000000000004E-002     12.948692628657465     
   8.9100000000000013E-002     12.035492220166724     
   8.9399999999999993E-002     10.875105143518480     
   8.9700000000000002E-002     9.5022909216394957     
   9.0000000000000011E-002     7.9627806234548917     
   9.0299999999999991E-002     6.3141952534401140     
   9.0600000000000000E-002     4.6190495954785451     
   9.0900000000000009E-002     2.9429097147303755     
   9.1200000000000017E-002     1.3495486494069016     
   9.1499999999999998E-002   -0.10532422214292912     
   9.1800000000000007E-002    -1.3732621681171311     
   9.2100000000000001E-002    -2.4241444131848349     
   9.2399999999999996E-002    -3.2385620299197755     
   9.2700000000000005E-002    -3.8172587657893087     
   9.3000000000000013E-002    -4.1741601735506118     
   9.3300000000000008E-002    -4.3377110212829173     
   9.3600000000000003E-002    -4.3476082424784819     
   9.3899999999999997E-002    -4.2491237119432448     
   9.4200000000000006E-002    -4.0919090544857273     
   9.4500000000000001E-002    -3.9217725868124940     
   9.4800000000000009E-002    -3.7805007428255424     
   9.5100000000000004E-002    -3.6991461129567504     
   9.5399999999999999E-002    -3.6971355206764258     
   9.5699999999999993E-002    -3.7803559978344072     
   9.6000000000000002E-002    -3.9420333572206498     
   9.6300000000000011E-002    -4.1622272219238150     
   9.6600000000000005E-002    -4.4120832210283050     
   9.6900000000000000E-002    -4.6552339368777282     
   9.7200000000000009E-002    -4.8535319187543067     
   9.7499999999999989E-002    -4.9699188118925886     
   9.7799999999999998E-002    -4.9728046303586941     
   9.8100000000000007E-002    -4.8391433565820892     
   9.8400000000000015E-002    -4.5572858582946578     
   9.8699999999999996E-002    -4.1279283177094905     
   9.9000000000000005E-002    -3.5636043998095572     
   9.9300000000000013E-002    -2.8893461489039138     
   9.9599999999999994E-002    -2.1388080172862272     
   9.9900000000000003E-002    -1.3521175221470325     
  0.10020000000000001        -0.57136007395925625     
  0.10049999999999999         0.16142883560425086     
  0.10080000000000000         0.80902959164015187     
  0.10110000000000001          1.3418945911701246     
  0.10140000000000000          1.7400767517019478     
  0.10170000000000000          1.9951102466474910     
  0.10200000000000001          2.1090031563126321     
  0.10230000000000002          2.0962470395383002     
  0.10260000000000000          1.9784857738381429     
  0.10290000000000001          1.7863746252754753     
  0.10320000000000000          1.5524492670234626     
  0.10350000000000001          1.3120241411210201     
  0.10380000000000000          1.0972517821497290     
  0.10410000000000001         0.93616509019543737     
  0.10440000000000001         0.84899823351931469     
  0.10470000000000000         0.84871409064778958     
  0.10500000000000000         0.93775585618045065     
  0.10530000000000000          1.1104941100083410     
  0.10560000000000000          1.3532268766090521     
  0.10590000000000001          1.6450872250081241     
  0.10620000000000000          1.9613351740772165     
  0.10650000000000001          2.2743318106916761     
  0.10679999999999999          2.5573344374053573     
  0.10710000000000000          2.7846441530701029     
  0.10740000000000001          2.9355163946611866     
  0.10770000000000000          2.9945638647171982     
  0.10800000000000000          2.9523141923499252     
  0.10830000000000001          2.8066993342246009     
  0.10859999999999999          2.5621688958997932     
  0.10890000000000000          2.2294581505213249     
  0.10920000000000001          1.8249198708408099     
  0.10950000000000001          1.3689392032969976     
  0.10979999999999999         0.88442125968789154     
  0.11009999999999999         0.39518629202690492     
  0.11040000000000001         -7.5497282314490224E-002
  0.11070000000000001        -0.50709779298796909     
  0.11100000000000000        -0.88296100094704655     
  0.11130000000000000         -1.1926058904196795     
  0.11160000000000002         -1.4299934370519094     
  0.11190000000000001         -1.5980457584936216     
  0.11220000000000001         -1.7021096288390043     
  0.11250000000000000         -1.7574029494082981     
  0.11280000000000000         -1.7770500664880917     
  0.11309999999999999         -1.7809660853894804     
  0.11340000000000001         -1.7847839937138565     
  0.11369999999999998         -1.8022069001332888     
  0.11400000000000000         -1.8446967793611979     
  0.11430000000000000         -1.9126571546542299     
  0.11460000000000002         -2.0067014788005753     
  0.11489999999999999         -2.1145989970056269     
  0.11520000000000001         -2.2245762430434497     
  0.11550000000000001         -2.3176238644913458     
  0.11580000000000000         -2.3742988254513402     
  0.11609999999999999         -2.3786878778811111     
  0.11640000000000002         -2.3128619427229711     
  0.11670000000000001         -2.1712990077477712     
  0.11700000000000001         -1.9471459676044072     
  0.11730000000000000         -1.6466858672910103     
  0.11760000000000000         -1.2806787754110622     
  0.11789999999999999        -0.86402072666328888     
  0.11820000000000001        -0.42010335648002245     
  0.11850000000000001          3.0691261147363414E-002
  0.11880000000000000         0.46196624842228445     
  0.11910000000000000         0.85422260696318819     
  0.11940000000000002          1.1884777745816395     
  0.11970000000000001          1.4511873994723155     
  0.12000000000000001          1.6364510390415814     
  0.12030000000000000          1.7415135272385351     
  0.12060000000000000          1.7720265766746286     
  0.12089999999999999          1.7376823793733194     
  0.12119999999999999          1.6509665586159465     
  0.12150000000000001          1.5296560814342126     
  0.12180000000000001          1.3888790834315543     
  0.12210000000000000          1.2466008824613550     
  0.12239999999999999          1.1167347527501634     
  0.12270000000000002          1.0107547081482322     
  0.12300000000000001         0.93762379794800099     
  0.12330000000000001         0.89997452081091267     
  0.12360000000000000         0.89890753676870550     
  0.12390000000000000         0.92964070538484067     
  0.12419999999999999         0.98517346099941638     
  0.12450000000000001          1.0568828592650985     
  0.12480000000000001          1.1322743948807850     
  0.12509999999999999          1.2017198911567621     
  0.12540000000000001          1.2531966135548294     
  0.12570000000000003          1.2769991373285194     
  0.12600000000000000          1.2662875908326270     
  0.12630000000000002          1.2140996737799392     
  0.12659999999999999          1.1198088224791927     
  0.12690000000000001         0.98153421161728749     
  0.12719999999999998         0.80293628194098732     
  0.12750000000000000         0.58950104506556544     
  0.12780000000000002         0.34799037962582086     
  0.12809999999999999          8.8274189792237542E-002
  0.12840000000000001        -0.18104959919619565     
  0.12869999999999998        -0.44849196772833222     
  0.12900000000000000        -0.70408625878486286     
  0.12930000000000003        -0.93957587280801202     
  0.12959999999999999         -1.1454086579280864     
  0.12990000000000002         -1.3180140578320616     
  0.13019999999999998         -1.4514488329538171     
  0.13050000000000000         -1.5455069900474028     
  0.13080000000000003         -1.6005837078017884     
  0.13109999999999999         -1.6183752151655821     
  0.13140000000000002         -1.6041935980548832     
  0.13169999999999998         -1.5609567419776649     
  0.13200000000000001         -1.4961755483545285     
  0.13229999999999997         -1.4137432733752853     
  0.13260000000000000         -1.3192025534515697     
  0.13290000000000002         -1.2166370222917504     
  0.13319999999999999         -1.1087697778120640     
  0.13350000000000001        -0.99792939490308563     
  0.13380000000000003        -0.88447630286892465     
  0.13410000000000000        -0.76812535304670448     
  0.13440000000000002        -0.64780562874797010     
  0.13469999999999999        -0.52158248220546610     
  0.13500000000000001        -0.38718688355868913     
  0.13529999999999998        -0.24285395411934246     
  0.13560000000000000         -8.6242311152376225E-002
  0.13590000000000002          8.1959902106961052E-002
  0.13619999999999999         0.26254916077822621     
  0.13650000000000001         0.45291766462916816     
  0.13680000000000003         0.64930743036087213     
  0.13710000000000000         0.84747326642095611     
  0.13740000000000002          1.0384579946862944     
  0.13769999999999999          1.2174841248595307     
  0.13800000000000001          1.3723293655621787     
  0.13829999999999998          1.4977833179691755     
  0.13860000000000000          1.5833507952265302     
  0.13890000000000002          1.6229717930778558     
  0.13919999999999999          1.6128955106058498     
  0.13950000000000001          1.5477335676311812     
  0.13979999999999998          1.4318893180915855     
  0.14010000000000000          1.2638318749117055     
  0.14040000000000002          1.0536626769380109     
  0.14069999999999999         0.80698157985117802     
  0.14100000000000001         0.53556586588248323     
  0.14130000000000004         0.25202287149780722     
  0.14160000000000000         -3.2554740914684153E-002
  0.14189999999999997        -0.30227389842962032     
  0.14219999999999999        -0.54771918373643580     
  0.14250000000000002        -0.75547785217493835     
  0.14279999999999998        -0.91886014695646934     
  0.14310000000000000         -1.0305127022259613     
  0.14339999999999997         -1.0887664688542484     
  0.14369999999999999         -1.0943267485075248     
  0.14400000000000002         -1.0512187620520819     
  0.14429999999999998        -0.96765382437614933     
  0.14460000000000001        -0.85283715753241607     
  0.14490000000000003        -0.71949310188370408     
  0.14520000000000000        -0.57946462346855210     
  0.14550000000000002        -0.44594667118571019     
  0.14579999999999999        -0.32879448553796137     
  0.14610000000000001        -0.23702402941550146     
  0.14640000000000003        -0.17582028091699659     
  0.14670000000000000        -0.14668764648079846     
  0.14699999999999996        -0.14861131243822392     
  0.14729999999999999        -0.17510836419421311     
  0.14760000000000001        -0.22087465945618742     
  0.14789999999999998        -0.27443943237160845     
  0.14820000000000000        -0.32826525895746306     