  -1.4999999999999999E-002     0.0000000000000000     
  -1.4700000000000000E-002     0.0000000000000000     
  -1.4400000000000000E-002     0.0000000000000000     
  -1.4100000000000000E-002     0.0000000000000000     
  -1.3800000000000000E-002     0.0000000000000000     
  -1.3500000000000000E-002     0.0000000000000000     
  -1.3200000000000000E-002     0.0000000000000000     
  -1.2899999999999998E-002     0.0000000000000000     
  -1.2600000000000000E-002     0.0000000000000000     
  -1.2299999999999998E-002     0.0000000000000000     
  -1.2000000000000000E-002     0.0000000000000000     
  -1.1699999999999999E-002     0.0000000000000000     
  -1.1399999999999999E-002     0.0000000000000000     
  -1.1099999999999999E-002     0.0000000000000000     
  -1.0799999999999999E-002     0.0000000000000000     
  -1.0499999999999999E-002     0.0000000000000000     
  -1.0199999999999999E-002     0.0000000000000000     
  -9.8999999999999991E-003     0.0000000000000000     
  -9.5999999999999992E-003     0.0000000000000000     
  -9.2999999999999992E-003     0.0000000000000000     
  -8.9999999999999993E-003     0.0000000000000000     
  -8.6999999999999994E-003     0.0000000000000000     
  -8.3999999999999995E-003     0.0000000000000000     
  -8.0999999999999996E-003     0.0000000000000000     
  -7.7999999999999988E-003     0.0000000000000000     
  -7.4999999999999997E-003     0.0000000000000000     
  -7.1999999999999998E-003     0.0000000000000000     
  -6.8999999999999981E-003     0.0000000000000000     
  -6.5999999999999982E-003     0.0000000000000000     
  -6.3000000000000000E-003     0.0000000000000000     
  -6.0000000000000001E-003     0.0000000000000000     
  -5.6999999999999985E-003     0.0000000000000000     
  -5.3999999999999986E-003     0.0000000000000000     
  -5.1000000000000004E-003     0.0000000000000000     
  -4.7999999999999987E-003     0.0000000000000000     
  -4.5000000000000005E-003     0.0000000000000000     
  -4.1999999999999989E-003     0.0000000000000000     
  -3.8999999999999990E-003     0.0000000000000000     
  -3.5999999999999990E-003     0.0000000000000000     
  -3.2999999999999991E-003     0.0000000000000000     
  -2.9999999999999992E-003     0.0000000000000000     
  -2.6999999999999993E-003     0.0000000000000000     
  -2.3999999999999994E-003     0.0000000000000000     
  -2.0999999999999977E-003     0.0000000000000000     
  -1.7999999999999995E-003     0.0000000000000000     
  -1.4999999999999979E-003     0.0000000000000000     
  -1.1999999999999997E-003     0.0000000000000000     
  -8.9999999999999976E-004     0.0000000000000000     
  -5.9999999999999810E-004     0.0000000000000000     
  -2.9999999999999992E-004     0.0000000000000000     
   0.0000000000000000          0.0000000000000000     
   3.0000000000000165E-004     0.0000000000000000     
   5.9999999999999984E-004     0.0000000000000000     
   9.0000000000000149E-004     0.0000000000000000     
   1.2000000000000031E-003     0.0000000000000000     
   1.5000000000000013E-003     0.0000000000000000     
   1.8000000000000030E-003     0.0000000000000000     
   2.1000000000000012E-003     0.0000000000000000     
   2.3999999999999994E-003     0.0000000000000000     
   2.7000000000000010E-003     0.0000000000000000     
   2.9999999999999992E-003     0.0000000000000000     
   3.3000000000000008E-003     0.0000000000000000     
   3.6000000000000025E-003     0.0000000000000000     
   3.9000000000000007E-003     0.0000000000000000     
   4.2000000000000023E-003     0.0000000000000000     
   4.5000000000000005E-003     0.0000000000000000     
   4.7999999999999987E-003     0.0000000000000000     
   5.1000000000000004E-003     0.0000000000000000     
   5.4000000000000020E-003     0.0000000000000000     
   5.7000000000000037E-003     0.0000000000000000     
   5.9999999999999984E-003     0.0000000000000000     
   6.3000000000000000E-003     0.0000000000000000     
   6.6000000000000017E-003     0.0000000000000000     
   6.9000000000000034E-003     0.0000000000000000     
   7.2000000000000015E-003     0.0000000000000000     
   7.5000000000000032E-003     0.0000000000000000     
   7.8000000000000014E-003     0.0000000000000000     
   8.0999999999999996E-003     0.0000000000000000     
   8.4000000000000012E-003     0.0000000000000000     
   8.7000000000000029E-003     0.0000000000000000     
   9.0000000000000011E-003     0.0000000000000000     
   9.2999999999999992E-003     0.0000000000000000     
   9.6000000000000009E-003     0.0000000000000000     
   9.8999999999999991E-003     0.0000000000000000     
   1.0200000000000001E-002     0.0000000000000000     
   1.0500000000000002E-002     0.0000000000000000     
   1.0800000000000004E-002     0.0000000000000000     
   1.1099999999999999E-002     0.0000000000000000     
   1.1400000000000000E-002     0.0000000000000000     
   1.1700000000000002E-002     0.0000000000000000     
   1.2000000000000004E-002     0.0000000000000000     
   1.2300000000000002E-002     0.0000000000000000     
   1.2600000000000000E-002     0.0000000000000000     
   1.2900000000000002E-002     0.0000000000000000     
   1.3200000000000000E-002     0.0000000000000000     
   1.3500000000000002E-002     0.0000000000000000     
   1.3800000000000003E-002     0.0000000000000000     
   1.4100000000000001E-002     0.0000000000000000     
   1.4400000000000000E-002     0.0000000000000000     
   1.4700000000000001E-002     0.0000000000000000     
   1.4999999999999999E-002     0.0000000000000000     
   1.5300000000000001E-002     0.0000000000000000     
   1.5600000000000003E-002     0.0000000000000000     
   1.5899999999999997E-002     0.0000000000000000     
   1.6199999999999999E-002     0.0000000000000000     
   1.6500000000000001E-002     0.0000000000000000     
   1.6800000000000002E-002     0.0000000000000000     
   1.7100000000000004E-002     0.0000000000000000     
   1.7400000000000006E-002     0.0000000000000000     
   1.7700000000000000E-002     0.0000000000000000     
   1.8000000000000002E-002     0.0000000000000000     
   1.8300000000000004E-002     0.0000000000000000     
   1.8600000000000005E-002     0.0000000000000000     
   1.8900000000000000E-002     0.0000000000000000     
   1.9200000000000002E-002     0.0000000000000000     
   1.9500000000000003E-002     0.0000000000000000     
   1.9799999999999998E-002     0.0000000000000000     
   2.0100000000000000E-002     0.0000000000000000     
   2.0400000000000001E-002     0.0000000000000000     
   2.0700000000000003E-002     0.0000000000000000     
   2.0999999999999998E-002     0.0000000000000000     
   2.1299999999999999E-002     0.0000000000000000     
   2.1600000000000001E-002     0.0000000000000000     
   2.1900000000000003E-002     0.0000000000000000     
   2.2200000000000004E-002     0.0000000000000000     
   2.2500000000000006E-002     0.0000000000000000     
   2.2800000000000001E-002     0.0000000000000000     
   2.3100000000000002E-002     0.0000000000000000     
   2.3400000000000004E-002     0.0000000000000000     
   2.3699999999999999E-002     0.0000000000000000     
   2.4000000000000000E-002     0.0000000000000000     
   2.4300000000000002E-002     0.0000000000000000     
   2.4599999999999997E-002     0.0000000000000000     
   2.4900000000000005E-002     0.0000000000000000     
   2.5200000000000000E-002     0.0000000000000000     
   2.5499999999999995E-002     0.0000000000000000     
   2.5800000000000003E-002     0.0000000000000000     
   2.6099999999999998E-002     0.0000000000000000     
   2.6400000000000007E-002     0.0000000000000000     
   2.6700000000000002E-002     0.0000000000000000     
   2.6999999999999996E-002     0.0000000000000000     
   2.7300000000000005E-002     0.0000000000000000     
   2.7600000000000000E-002     0.0000000000000000     
   2.7900000000000008E-002     0.0000000000000000     
   2.8200000000000003E-002     0.0000000000000000     
   2.8499999999999998E-002     0.0000000000000000     
   2.8800000000000006E-002     0.0000000000000000     
   2.9100000000000001E-002     0.0000000000000000     
   2.9400000000000003E-002     0.0000000000000000     
   2.9700000000000004E-002     0.0000000000000000     
   3.0000000000000006E-002     0.0000000000000000     
   3.0300000000000001E-002     0.0000000000000000     
   3.0600000000000002E-002     0.0000000000000000     
   3.0900000000000004E-002     0.0000000000000000     
   3.1199999999999999E-002     0.0000000000000000     
   3.1500000000000007E-002     1.0284128835403259E-045
   3.1800000000000002E-002    -6.4651887942279525E-036
   3.2099999999999997E-002     3.7198022257088184E-035
   3.2400000000000005E-002    -5.6599342258378768E-035
   3.2700000000000000E-002     5.8093527951962034E-034
   3.3000000000000002E-002    -3.0324501391277736E-033
   3.3300000000000003E-002     8.2003617456647135E-033
   3.3599999999999998E-002    -1.1283883315384475E-032
   3.3900000000000000E-002    -1.6702947299823757E-032
   3.4200000000000001E-002     1.7571918420505589E-031
   3.4500000000000003E-002    -7.4651809426160079E-031
   3.4799999999999998E-002     2.3649891245694665E-030
   3.5099999999999999E-002    -6.0925326912980612E-030
   3.5400000000000001E-002     1.2672047318234687E-029
   3.5699999999999996E-002    -1.8927956851160370E-029
   3.6000000000000004E-002     7.1515739362378228E-030
   3.6299999999999999E-002     7.8036406083677156E-029
   3.6600000000000008E-002    -3.6582235238309148E-028
   3.6900000000000002E-002     1.0856480601853491E-027
   3.7199999999999997E-002    -2.5057502296582130E-027
   3.7500000000000006E-002     4.6132585968330016E-027
   3.7800000000000000E-002    -6.2445883053030449E-027
   3.8100000000000009E-002     3.1675793537825780E-027
   3.8400000000000004E-002     1.6040848635042399E-026
   3.8699999999999998E-002    -7.9340345314020534E-026
   3.9000000000000007E-002     2.5116742184174355E-025
   3.9300000000000002E-002    -6.6074339023323537E-025
   3.9600000000000003E-002     1.4801272026079872E-024
   3.9900000000000005E-002    -2.6078544587511380E-024
   4.0200000000000000E-002     2.4568110614115872E-024
   4.0500000000000001E-002     4.9088250663211606E-024
   4.0800000000000003E-002    -3.3356690121697300E-023
   4.1100000000000005E-002     1.0110581633365398E-022
   4.1399999999999999E-002    -1.9807938994410845E-022
   4.1700000000000008E-002     1.9528596430725237E-022
   4.2000000000000003E-002     2.7770635287689839E-022
   4.2299999999999997E-002    -1.7524879579868880E-021
   4.2600000000000006E-002     4.0609721589364310E-021
   4.2900000000000001E-002    -4.1725539146622444E-021
   4.3200000000000002E-002    -5.8911423328294247E-021
   4.3500000000000004E-002     3.4404015383381303E-020
   4.3799999999999999E-002    -6.5733516962942953E-020
   4.4100000000000000E-002     1.1646495378182161E-020
   4.4400000000000002E-002     3.1035434004559113E-019
   4.4700000000000004E-002    -9.7873499337933723E-019
   4.4999999999999998E-002     1.2113104773424741E-018
   4.5300000000000000E-002     1.8897704076126012E-018
   4.5600000000000002E-002    -1.2704269181060776E-017
   4.5899999999999996E-002     2.7249236980269532E-017
   4.6200000000000005E-002    -7.2024851142741839E-018
   4.6500000000000000E-002    -1.3458378144620693E-016
   4.6799999999999994E-002     4.1342442187245401E-016
   4.7100000000000003E-002    -3.5510382242658194E-016
   4.7399999999999998E-002    -1.3704480657343025E-015
   4.7700000000000006E-002     5.3871549788965594E-015
   4.8000000000000001E-002    -5.6358082931983702E-015
   4.8300000000000010E-002    -1.5785826129975151E-014
   4.8600000000000004E-002     6.6698674653753236E-014
   4.8899999999999999E-002    -6.8257879531586279E-014
   4.9200000000000008E-002    -1.8820021848043153E-013
   4.9500000000000002E-002     7.2559303891191267E-013
   4.9800000000000011E-002    -5.5277874987229912E-013
   5.0100000000000006E-002    -2.2796725534133180E-012
   5.0400000000000000E-002     6.5280563565658284E-012
   5.0700000000000009E-002    -8.5611048109946388E-013
   5.1000000000000004E-002    -2.8911328309752147E-011
   5.1299999999999998E-002     5.8423558029403339E-011
   5.1600000000000007E-002     1.1849731298164573E-011
   5.1900000000000002E-002    -2.6554300611551095E-010
   5.2200000000000010E-002     5.3138754802609023E-010
   5.2500000000000005E-002    -2.9192189948514867E-010
   5.2800000000000000E-002    -1.1093900458966670E-009
   5.3099999999999994E-002     4.4274828522876091E-009
   5.3400000000000003E-002    -8.7567917029895813E-009
   5.3699999999999998E-002     1.1496615107948418E-009
   5.4000000000000006E-002     4.7533007129863702E-008
   5.4300000000000001E-002    -1.0845322135120488E-007
   5.4599999999999996E-002    -9.3825088323199618E-008
   5.4900000000000004E-002     7.6665015033177456E-007
   5.5199999999999999E-002     1.4758556052741027E-006
   5.5499999999999994E-002     1.2641508217922457E-006
   5.5800000000000002E-002     1.5929865802184420E-006
   5.6099999999999997E-002     3.7436143818036488E-006
   5.6400000000000006E-002     7.2652688757143872E-006
   5.6700000000000000E-002     1.0475945750707805E-005
   5.6999999999999995E-002     1.3665474583199102E-005
   5.7300000000000004E-002     1.9784978831431682E-005
   5.7599999999999998E-002     3.1190455459902620E-005
   5.7900000000000007E-002     4.8990274737106109E-005
   5.8200000000000002E-002     7.1474650267443977E-005
   5.8499999999999996E-002     9.8974881878164520E-005
   5.8800000000000005E-002     1.3829737332472203E-004
   5.9100000000000000E-002     1.9406534820196915E-004
   5.9400000000000008E-002     2.6700931267914735E-004
   5.9700000000000003E-002     3.6088933615028223E-004
   6.0000000000000012E-002     4.8244241706425870E-004
   6.0300000000000006E-002     6.3394924805717720E-004
   6.0600000000000001E-002     8.1449416436626943E-004
   6.0900000000000010E-002     1.0259285479795443E-003
   6.1200000000000004E-002     1.2683593846421356E-003
   6.1500000000000013E-002     1.5390702974016949E-003
   6.1800000000000008E-002     1.8299944028310994E-003
   6.2100000000000002E-002     2.1224010575216791E-003
   6.2399999999999997E-002     2.3899630524845897E-003
   6.2700000000000006E-002     2.6044452479779857E-003
   6.3000000000000000E-002     2.7353698795381945E-003
   6.3300000000000009E-002     2.7403687543703340E-003
   6.3600000000000004E-002     2.5702384702623879E-003
   6.3899999999999998E-002     2.1774554982024680E-003
   6.4199999999999993E-002     1.5203516507298820E-003
   6.4500000000000002E-002     5.7008555516353658E-004
   6.4800000000000010E-002    -6.8419153262235064E-004
   6.5100000000000005E-002    -2.2273001022179518E-003
   6.5400000000000000E-002    -4.0114662154531163E-003
   6.5700000000000008E-002    -5.9561762781182156E-003
   6.5999999999999989E-002    -7.9357280508470015E-003
   6.6299999999999998E-002    -9.7781085801694704E-003
   6.6600000000000006E-002    -1.1279012233158577E-002
   6.6900000000000001E-002    -1.2208117345969596E-002
   6.7199999999999996E-002    -1.2328593241126883E-002
   6.7500000000000004E-002    -1.1414128529797993E-002
   6.7800000000000013E-002    -9.2872624865470727E-003
   6.8099999999999994E-002    -5.8439747599016338E-003
   6.8400000000000002E-002    -1.0904140576409459E-003
   6.8700000000000011E-002     4.8241829759546086E-003
   6.8999999999999992E-002     1.1600677970972572E-002
   6.9300000000000000E-002     1.8761674154631886E-002
   6.9600000000000009E-002     2.5661507929148421E-002
   6.9900000000000004E-002     3.1496916357059361E-002
   7.0199999999999999E-002     3.5354137869598706E-002
   7.0500000000000007E-002     3.6279991737906560E-002
   7.0800000000000016E-002     3.3329103579090219E-002
   7.1099999999999997E-002     2.5668293579123157E-002
   7.1400000000000005E-002     1.2649283916365849E-002
   7.1700000000000000E-002    -6.0597901069896721E-003
   7.1999999999999995E-002    -3.0390927973379472E-002
   7.2300000000000003E-002    -5.9862443122341388E-002
   7.2600000000000012E-002    -9.3499356289944394E-002
   7.2900000000000006E-002   -0.12986661671604602     
   7.3200000000000001E-002   -0.16705015531826609     
   7.3499999999999996E-002   -0.20281194431392349     
   7.3800000000000004E-002   -0.23468870251384419     
   7.4099999999999999E-002   -0.26014075047369084     
   7.4400000000000008E-002   -0.27674767764465574     
   7.4700000000000003E-002   -0.28242931169568963     
   7.5000000000000011E-002   -0.27558938061075444     
   7.5299999999999992E-002   -0.25534570583049743     
   7.5600000000000001E-002   -0.22160819493139761     
   7.5900000000000009E-002   -0.17519295471886723     
   7.6200000000000004E-002   -0.11781776127612686     
   7.6499999999999999E-002    -5.2091040553782574E-002
   7.6800000000000007E-002     1.8718715925436027E-002
   7.7099999999999988E-002     9.0757929986942140E-002
   7.7399999999999997E-002    0.15992060523118812     
   7.7700000000000005E-002    0.22207846057182296     
   7.8000000000000014E-002    0.27341792372487655     
   7.8299999999999995E-002    0.31068912589202147     
   7.8600000000000003E-002    0.33148345824299930     
   7.8900000000000012E-002    0.33449408891969312     
   7.9199999999999993E-002    0.31951490505692504     
   7.9500000000000001E-002    0.28766090095536662     
   7.9800000000000010E-002    0.24115372057097686     
   8.0100000000000018E-002    0.18340932104460733     
   8.0399999999999999E-002    0.11863123060208712     
   8.0700000000000008E-002     5.1620618349992202E-002
   8.1000000000000003E-002    -1.2513248329010206E-002
   8.1299999999999997E-002    -6.8842501339657400E-002
   8.1600000000000006E-002   -0.11288361404447783     
   8.1900000000000014E-002   -0.14102801875014789     
   8.2199999999999995E-002   -0.15079246671005464     
   8.2500000000000004E-002   -0.14117799896291849     
   8.2799999999999999E-002   -0.11260436632434477     
   8.3100000000000007E-002    -6.7112148738055752E-002
   8.3400000000000002E-002    -8.2148426231829445E-003
   8.3700000000000011E-002     5.9472788991239034E-002
   8.4000000000000005E-002    0.13037947007667416     
   8.4300000000000000E-002    0.19864306138211060     
   8.4599999999999995E-002    0.25844443213498175     
   8.4900000000000003E-002    0.30456138091294011     
   8.5199999999999998E-002    0.33296311375173621     
   8.5500000000000007E-002    0.34092000610317186     
   8.5800000000000001E-002    0.32753864393373100     
   8.6100000000000010E-002    0.29374322707631134     
   8.6399999999999991E-002    0.24204008617834530     
   8.6699999999999999E-002    0.17651255669748442     
   8.7000000000000008E-002    0.10212494565769865     
   8.7300000000000003E-002     2.4516178499654533E-002
   8.7599999999999997E-002    -5.0821629303402095E-002
   8.7900000000000006E-002   -0.11892202682445337     
   8.8200000000000014E-002   -0.17570591239702604     
   8.8499999999999995E-002   -0.21855627327292063     
   8.8800000000000004E-002   -0.24608469373938038     
   8.9100000000000013E-002   -0.25840962312827798     
   8.9399999999999993E-002   -0.25669190661729813     
   8.9700000000000002E-002   -0.24286219828438826     
   9.0000000000000011E-002   -0.21927225902930284     
   9.0299999999999991E-002   -0.18806039061429447     
   9.0600000000000000E-002   -0.15096648244854979     
   9.0900000000000009E-002   -0.10883346343390528     
   9.1200000000000017E-002    -6.1812133323247774E-002
   9.1499999999999998E-002    -9.1448127657698507E-003
   9.1800000000000007E-002     5.0331645644961502E-002
   9.2100000000000001E-002    0.11796878469821999     
   9.2399999999999996E-002    0.19458097521598491     
   9.2700000000000005E-002    0.28004074521257760     
   9.3000000000000013E-002    0.37281850537177269     
   9.3300000000000008E-002    0.46963394382384904     
   9.3600000000000003E-002    0.56533736819880309     
   9.3899999999999997E-002    0.65314967393009471     
   9.4200000000000006E-002    0.72504551271746354     
   9.4500000000000001E-002    0.77236850187844797     
   9.4800000000000009E-002    0.78684003297265648     
   9.5100000000000004E-002    0.76137603426449629     
   9.5399999999999999E-002    0.69118554394416520     
   9.5699999999999993E-002    0.57441390385830948     
   9.6000000000000002E-002    0.41294128294852583     
   9.6300000000000011E-002    0.21246774798226223     
   9.6600000000000005E-002    -1.7521728100575510E-002
   9.6900000000000000E-002   -0.26424682521987952     
   9.7200000000000009E-002   -0.51274991774268563     
   9.7499999999999989E-002   -0.74673015954605237     
   9.7799999999999998E-002   -0.95030607161659320     
   9.8100000000000007E-002    -1.1091591279594486     
   9.8400000000000015E-002    -1.2118842776555656     
   9.8699999999999996E-002    -1.2512672128165963     
   9.9000000000000005E-002    -1.2247400460982205     
   9.9300000000000013E-002    -1.1345515415699152     
   9.9599999999999994E-002   -0.98797620780827866     
   9.9900000000000003E-002   -0.79613430473461499     
  0.10020000000000001        -0.57332176818079383     
  0.10049999999999999        -0.33551463993109809     
  0.10080000000000000         -9.9063554612835780E-002
  0.10110000000000001         0.12073821720461475     
  0.10140000000000000         0.31062034192280497     
  0.10170000000000000         0.46067789834355155     
  0.10200000000000001         0.56426192119316243     
  0.10230000000000002         0.61878640331212742     
  0.10260000000000000         0.62492776802312744     
  0.10290000000000001         0.58652568698863095     
  0.10320000000000000         0.50954759851671061     
  0.10350000000000001         0.40169364795866780     
  0.10380000000000000         0.27106839818920186     
  0.10410000000000001         0.12616977294138368     
  0.10440000000000001         -2.5126738601366185E-002
  0.10470000000000000        -0.17535914703860617     
  0.10500000000000000        -0.31804740851999053     
  0.10530000000000000        -0.44722125538849722     
  0.10560000000000000        -0.55764967963355316     
  0.10590000000000001        -0.64433217931667752     
  0.10620000000000000        -0.70298368705781988     
  0.10650000000000001        -0.72968561464080428     
  0.10679999999999999        -0.72158176705384458     
  0.10710000000000000        -0.67690450892698273     
  0.10740000000000001        -0.59572721357728964     
  0.10770000000000000        -0.48019460516818541     
  0.10800000000000000        -0.33492660997501211     
  0.10830000000000001        -0.16722378380750766     
  0.10859999999999999          1.2984733098046677E-002
  0.10890000000000000         0.19424483427423597     
  0.10920000000000001         0.36353844881989106     
  0.10950000000000001         0.50777012782722097     
  0.10979999999999999         0.61503119093283898     
  0.11009999999999999         0.67563349903936065     
  0.11040000000000001         0.68311376280134117     
  0.11070000000000001         0.63534308309238008     
  0.11100000000000000         0.53446830004267476     
  0.11130000000000000         0.38735536219012323     
  0.11160000000000002         0.20484319552905475     
  0.11190000000000001          7.6488812277224075E-004
  0.11220000000000001        -0.20941657175294498     
  0.11250000000000000        -0.40951470159860842     
  0.11280000000000000        -0.58457393307989403     
  0.11309999999999999        -0.72196395238617495     
  0.11340000000000001        -0.81194777441813692     
  0.11369999999999998        -0.84898556460364982     
  0.11400000000000000        -0.83109844871465854     
  0.11430000000000000        -0.76004744601244600     
  0.11460000000000002        -0.64081240543338003     
  0.11489999999999999        -0.48012257226608956     
  0.11520000000000001        -0.28657564841997074     
  0.11550000000000001         -6.8972870774674344E-002
  0.11580000000000000         0.16366595356235625     
  0.11609999999999999         0.40316862534485715     
  0.11640000000000002         0.64141661931069172     
  0.11670000000000001         0.87093616855228340     
  0.11700000000000001          1.0846257371743495     
  0.11730000000000000          1.2751509139306665     
  0.11760000000000000          1.4349065036705642     
  0.11789999999999999          1.5557995068250927     
  0.11820000000000001          1.6303358312990119     
  0.11850000000000001          1.6507051227558682     
  0.11880000000000000          1.6108485689685050     
  0.11910000000000000          1.5067966197492475     
  0.11940000000000002          1.3371498772359067     
  0.11970000000000001          1.1049062166840595     
  0.12000000000000001         0.81674231208626791     
  0.12030000000000000         0.48426926762001354     
  0.12060000000000000         0.12278048797190369     
  0.12089999999999999        -0.24881707563680158     
  0.12119999999999999        -0.61009658331733940     
  0.12150000000000001        -0.93962611185116551     
  0.12180000000000001         -1.2175188245429647     
  0.12210000000000000         -1.4268652410551308     
  0.12239999999999999         -1.5550191629373318     
  0.12270000000000002         -1.5949095718756112     
  0.12300000000000001         -1.5459405406266045     
  0.12330000000000001         -1.4133807622469732     
  0.12360000000000000         -1.2085550002030159     
  0.12390000000000000        -0.94725294236911983     
  0.12419999999999999        -0.64897907654323117     
  0.12450000000000001        -0.33452725822802931     
  0.12480000000000001         -2.5142591062168509E-002
  0.12509999999999999         0.26017785522834225     
  0.12540000000000001         0.50499618853277983     
  0.12570000000000003         0.69686580773082352     
  0.12600000000000000         0.82823432738599834     
  0.12630000000000002         0.89585591692209132     
  0.12659999999999999         0.90096373686332576     
  0.12690000000000001         0.84891201292705587     
  0.12719999999999998         0.74748433699182426     
  0.12750000000000000         0.60739112743871393     
  0.12780000000000002         0.43976465454244051     
  0.12809999999999999         0.25717172337536370     
  0.12840000000000001          7.1543552325516957E-002
  0.12869999999999998        -0.10551094489700474     
  0.12900000000000000        -0.26308340288105253     
  0.12930000000000003        -0.39158341924678219     
  0.12959999999999999        -0.48265460894039780     
  0.12990000000000002        -0.52930731398968656     
  0.13019999999999998        -0.52700156775049245     
  0.13050000000000000        -0.47286901587235314     
  0.13080000000000003        -0.36752802675213331     
  0.13109999999999999        -0.21413699097239244     
  0.13140000000000002         -1.9765343608750745E-002
  0.13169999999999998         0.20530744226358480     
  0.13200000000000001         0.44736061190982868     
  0.13229999999999997         0.69016082145468605     
  0.13260000000000000         0.91533143710793086     
  0.13290000000000002          1.1046754287715417     
  0.13319999999999999          1.2400169558076442     
  0.13350000000000001          1.3062488035402779     
  0.13380000000000003          1.2917552186368988     
  0.13410000000000000          1.1900031743064048     
  0.13440000000000002          1.0000493674323183     
  0.13469999999999999         0.72703779815152980     
  0.13500000000000001         0.38223958574831990     
  0.13529999999999998         -1.8712746313305963E-002
  0.13560000000000000        -0.45563212714669993     
  0.13590000000000002        -0.90642990021627634     
  0.13619999999999999         -1.3478154142638588     
  0.13650000000000001         -1.7577345629668548     
  0.13680000000000003         -2.1160140347980061     
  0.13710000000000000         -2.4057107323993727     
  0.13740000000000002         -2.6143501186946505     
  0.13769999999999999         -2.7330952089298166     
  0.13800000000000001         -2.7578492566043562     
  0.13829999999999998         -2.6883163842660722     
  0.13860000000000000         -2.5277226337627861     
  0.13890000000000002         -2.2825720640305884     
  0.13919999999999999         -1.9611335083604942     
  0.13950000000000001         -1.5747918116916646     
  0.13979999999999998         -1.1356370611488811     
  0.14010000000000000        -0.65855366922665370     
  0.14040000000000002        -0.15889574794431613     
  0.14069999999999999         0.34539929554985987     
  0.14100000000000001         0.83665473501052978     
  0.14130000000000004          1.2952420900898303     
  0.14160000000000000          1.7024768838945687     
  0.14189999999999997          2.0404570399320208     
  0.14219999999999999          2.2936094140118044     
  0.14250000000000002          2.4498961326956512     
  0.14279999999999998          2.5019426708059935     
  0.14310000000000000          2.4484217520904701     
  0.14339999999999997          2.2940943572297976     
  0.14369999999999999          2.0506017503477110     
  0.14400000000000002          1.7357280503615484     
  0.14429999999999998          1.3723751502634145     
  0.14460000000000001         0.98709101882551054     
  0.14490000000000003         0.60796982894461715     
  0.14520000000000000         0.26285535437883406     
  0.14550000000000002         -2.4085336202792060E-002
  0.14579999999999999        -0.23262983940650267     
  0.14610000000000001        -0.35075042201827744     
  0.14640000000000003        -0.37273046953712213     
  0.14670000000000000        -0.30277678843646633     
  0.14699999999999996        -0.15214991818044671     
  0.14729999999999999          6.0129345140220287E-002
  0.14760000000000001         0.30956277690339340     
  0.14789999999999998         0.56820798745469747     
  0.14820000000000000         0.80624259701077206     