  -1.4999999999999999E-002     0.0000000000000000     
  -1.4700000000000000E-002     3.4838305888239527E-021
  -1.4400000000000000E-002     6.9811065597479786E-017
  -1.4100000000000000E-002     1.9395608077422065E-015
  -1.3800000000000000E-002    -5.7135855858823747E-014
  -1.3500000000000000E-002    -1.8562174609166417E-014
  -1.3200000000000000E-002     9.8704572066442397E-013
  -1.2899999999999998E-002     1.3103239691263913E-012
  -1.2600000000000000E-002    -7.1060924440838757E-012
  -1.2299999999999998E-002    -1.2218592212434839E-011
  -1.2000000000000000E-002     6.7750357342020654E-012
  -1.1699999999999999E-002     9.2114392105820926E-011
  -1.1399999999999999E-002     5.5650887667444958E-011
  -1.1099999999999999E-002    -2.5161988684810270E-010
  -1.0799999999999999E-002    -4.1487093726387232E-010
  -1.0499999999999999E-002     4.2570399944817786E-011
  -1.0199999999999999E-002     1.2273662569996198E-009
  -9.8999999999999991E-003     2.1417237569109810E-009
  -9.5999999999999992E-003    -1.9758578784869939E-009
  -9.2999999999999992E-003    -5.3725353064367964E-009
  -8.9999999999999993E-003    -2.8126556000385478E-009
  -8.6999999999999994E-003     1.3233241839427776E-009
  -8.3999999999999995E-003     2.3708635177296427E-008
  -8.0999999999999996E-003     8.7062649974313515E-009
  -7.7999999999999988E-003    -2.6451184492439931E-008
  -7.4999999999999997E-003    -2.5935928681419859E-008
  -7.1999999999999998E-003    -5.4474566264862415E-008
  -6.8999999999999981E-003     5.4342430531476351E-008
  -6.5999999999999982E-003     1.4102207460925326E-007
  -6.3000000000000000E-003    -3.0264947509988142E-009
  -6.0000000000000001E-003    -9.1807501981907197E-010
  -5.6999999999999985E-003    -2.4996787265677009E-007
  -5.3999999999999986E-003    -2.6146407157945694E-007
  -5.1000000000000004E-003     3.0813133393492057E-007
  -4.7999999999999987E-003     1.9698279347544881E-007
  -4.5000000000000005E-003     4.1177443677890703E-007
  -4.1999999999999989E-003     1.1703193560757307E-007
  -3.8999999999999990E-003    -9.4414875826835130E-007
  -3.5999999999999990E-003    -2.4206952186290392E-007
  -3.2999999999999991E-003    -1.9995764901741978E-007
  -2.9999999999999992E-003     1.4871619233869573E-007
  -2.6999999999999993E-003     1.6874347199714987E-006
  -2.3999999999999994E-003    -4.9422300149428604E-007
  -2.0999999999999977E-003    -4.4141438354593587E-007
  -1.7999999999999995E-003     1.2572353435518193E-006
  -1.4999999999999979E-003    -2.3946667357652581E-006
  -1.1999999999999997E-003    -2.7171880219023528E-007
  -8.9999999999999976E-004     2.2063791517585206E-006
  -5.9999999999999810E-004    -4.7925652677038327E-006
  -2.9999999999999992E-004     2.4780213798463727E-006
   0.0000000000000000          9.9674374320582520E-006
   3.0000000000000165E-004    -8.3352688504434562E-007
   5.9999999999999984E-004     1.0884394310124805E-005
   9.0000000000000149E-004     2.2697825015016366E-005
   1.2000000000000031E-003     1.1712414336292658E-005
   1.5000000000000013E-003     3.2581388620310505E-005
   1.8000000000000030E-003     6.0132210791398943E-005
   2.1000000000000012E-003     7.2137829044199045E-005
   2.3999999999999994E-003     8.7477670190338341E-005
   2.7000000000000010E-003     6.9518982502640302E-005
   2.9999999999999992E-003     5.6299403290189435E-005
   3.3000000000000008E-003     7.1982158557007167E-005
   3.6000000000000025E-003     5.8557397173407222E-005
   3.9000000000000007E-003    -6.2712751733016344E-006
   4.2000000000000023E-003    -1.8086481678402196E-004
   4.5000000000000005E-003    -5.0629786573788227E-004
   4.7999999999999987E-003    -1.0048229358620429E-003
   5.1000000000000004E-003    -1.8140517151528069E-003
   5.4000000000000020E-003    -3.1381756830031332E-003
   5.7000000000000037E-003    -5.2880791652600784E-003
   5.9999999999999984E-003    -8.6626003549756126E-003
   6.3000000000000000E-003    -1.3687145281401992E-002
   6.6000000000000017E-003    -2.0893274216535238E-002
   6.9000000000000034E-003    -3.0961804445215964E-002
   7.2000000000000015E-003    -4.4771634395730182E-002
   7.5000000000000032E-003    -6.3350312757636459E-002
   7.8000000000000014E-003    -8.7783053853580970E-002
   8.0999999999999996E-003   -0.11913143876700495     
   8.4000000000000012E-003   -0.15835967694931652     
   8.7000000000000029E-003   -0.20629140776347005     
   9.0000000000000011E-003   -0.26342746672463579     
   9.2999999999999992E-003   -0.32977768863870427     
   9.6000000000000009E-003   -0.40450859200692973     
   9.8999999999999991E-003   -0.48559150299625647     
   1.0200000000000001E-002   -0.56961846646187131     
   1.0500000000000002E-002   -0.65167665897702365     
   1.0800000000000004E-002   -0.72529471486711194     
   1.1099999999999999E-002   -0.78233236813020768     
   1.1400000000000000E-002   -0.81327224702388534     
   1.1700000000000002E-002   -0.80766684927614041     
   1.2000000000000004E-002   -0.75442899548835030     
   1.2300000000000002E-002   -0.64278890095760566     
   1.2600000000000000E-002   -0.46331857084668748     
   1.2900000000000002E-002   -0.20878355069525248     
   1.3200000000000000E-002    0.12462952355508521     
   1.3500000000000002E-002    0.53616701850357784     
   1.3800000000000003E-002     1.0194295637053872     
   1.4100000000000001E-002     1.5616104681047480     
   1.4400000000000000E-002     2.1429915615407724     
   1.4700000000000001E-002     2.7366051991316693     
   1.4999999999999999E-002     3.3090486990482115     
   1.5300000000000001E-002     3.8209028863534340     
   1.5600000000000003E-002     4.2277394113957287     
   1.5899999999999997E-002     4.4821396785613050     
   1.6199999999999999E-002     4.5351944988809549     
   1.6500000000000001E-002     4.3391753320300781     
   1.6800000000000002E-002     3.8503457182126968     
   1.7100000000000004E-002     3.0318959725827006     
   1.7400000000000006E-002     1.8577868506180990     
   1.7700000000000000E-002    0.31663165826620271     
   1.8000000000000002E-002    -1.5835139779548830     
   1.8300000000000004E-002    -3.8111315392493053     
   1.8600000000000005E-002    -6.3069120785064143     
   1.8900000000000000E-002    -8.9806511163091578     
   1.9200000000000002E-002    -11.709211651983251     
   1.9500000000000003E-002    -14.337554370147945     
   1.9799999999999998E-002    -16.681942463384551     
   2.0100000000000000E-002    -18.538153245338901     
   2.0400000000000001E-002    -19.692932733153619     
   2.0700000000000003E-002    -19.938713703845824     
   2.0999999999999998E-002    -19.093168879810339     
   2.1299999999999999E-002    -17.019219015919994     
   2.1600000000000001E-002    -13.644880771129772     
   2.1900000000000003E-002    -8.9822839284030316     
   2.2200000000000004E-002    -3.1397921182620316     
   2.2500000000000006E-002     3.6726453974174289     
   2.2800000000000001E-002     11.145789459521845     
   2.3100000000000002E-002     18.885067558016043     
   2.3400000000000004E-002     26.432537907267776     
   2.3699999999999999E-002     33.299626462072972     
   2.4000000000000000E-002     39.004487349230118     
   2.4300000000000002E-002     43.112809639634989     
   2.4599999999999997E-002     45.274026456377158     
   2.4900000000000005E-002     45.256730625922621     
   2.5200000000000000E-002     42.970681666389318     
   2.5499999999999995E-002     38.480264040073081     
   2.5800000000000003E-002     32.001523132678486     
   2.6099999999999998E-002     23.886553606487734     
   2.6400000000000007E-002     14.594485765356378     
   2.6700000000000002E-002     4.6575900587676173     
   2.6999999999999996E-002    -5.3646909726517977     
   2.7300000000000005E-002    -14.923938311649479     
   2.7600000000000000E-002    -23.529618112238776     
   2.7900000000000008E-002    -30.776375860506903     
   2.8200000000000003E-002    -36.370427406178159     
   2.8499999999999998E-002    -40.143594184354065     
   2.8800000000000006E-002    -42.051503634486330     
   2.9100000000000001E-002    -42.166062802614874     
   2.9400000000000003E-002    -40.656686215506213     
   2.9700000000000004E-002    -37.766652386779661     
   3.0000000000000006E-002    -33.786320824248229     
   3.0300000000000001E-002    -29.030140848911060     
   3.0600000000000002E-002    -23.808018475530506     
   3.0900000000000004E-002    -18.408077798903879     
   3.1199999999999999E-002    -13.078325649241345     
   3.1500000000000007E-002    -8.0203811823289932     
   3.1800000000000002E-002    -3.3853598214056126     
   3.2099999999999997E-002    0.72439135547853661     
   3.2400000000000005E-002     4.2523042624277450     
   3.2700000000000000E-002     7.1816113379939956     
   3.3000000000000002E-002     9.5286878245709747     
   3.3300000000000003E-002     11.332302491387441     
   3.3599999999999998E-002     12.645842983137678     
   3.3900000000000000E-002     13.531184647187896     
   3.4200000000000001E-002     14.052584154902853     
   3.4500000000000003E-002     14.275653346980462     
   3.4799999999999998E-002     14.260451771356461     
   3.5099999999999999E-002     14.059126341272970     
   3.5400000000000001E-002     13.712825244992111     
   3.5699999999999996E-002     13.253815102130460     
   3.6000000000000004E-002     12.704176334264147     
   3.6299999999999999E-002     12.078088170450480     
   3.6600000000000008E-002     11.381244045406371     
   3.6900000000000002E-002     10.611813858657579     
   3.7199999999999997E-002     9.7645085331043173     
   3.7500000000000006E-002     8.8333056156987517     
   3.7800000000000000E-002     7.8150236481482791     
   3.8100000000000009E-002     6.7111536994590439     
   3.8400000000000004E-002     5.5286871559545787     
   3.8699999999999998E-002     4.2818714358787977     
   3.9000000000000007E-002     2.9927917305490044     
   3.9300000000000002E-002     1.6904991061548937     
   3.9600000000000003E-002    0.40988832814758036     
   3.9900000000000005E-002   -0.81169423981796585     
   4.0200000000000000E-002    -1.9362863982512248     
   4.0500000000000001E-002    -2.9293261549193335     
   4.0800000000000003E-002    -3.7621206070250461     
   4.1100000000000005E-002    -4.4141465630116663     
   4.1399999999999999E-002    -4.8743125519690169     
   4.1700000000000008E-002    -5.1419197698741481     
   4.2000000000000003E-002    -5.2265340480904570     
   4.2299999999999997E-002    -5.1487881307937080     
   4.2600000000000006E-002    -4.9377576404676677     
   4.2900000000000001E-002    -4.6284939236989615     
   4.3200000000000002E-002    -4.2583805382572910     
   4.3500000000000004E-002    -3.8650478061535685     
   4.3799999999999999E-002    -3.4837671348843022     
   4.4100000000000000E-002    -3.1456106639361212     
   4.4400000000000002E-002    -2.8740619081807668     
   4.4700000000000004E-002    -2.6820066766917035     
   4.4999999999999998E-002    -2.5723179145616273     
   4.5300000000000000E-002    -2.5373988906965894     
   4.5600000000000002E-002    -2.5614732083480583     
   4.5899999999999996E-002    -2.6212423639331477     
   4.6200000000000005E-002    -2.6884642453480971     
   4.6500000000000000E-002    -2.7315412377399317     
   4.6799999999999994E-002    -2.7210100498415848     
   4.7100000000000003E-002    -2.6318529422021641     
   4.7399999999999998E-002    -2.4461127032386289     
   4.7700000000000006E-002    -2.1547430166678132     
   4.8000000000000001E-002    -1.7581937787681872     
   4.8300000000000010E-002    -1.2670034491007591     
   4.8600000000000004E-002   -0.70212419339538212     
   4.8899999999999999E-002    -9.1151993816209156E-002
   4.9200000000000008E-002    0.53246649350918629     
   4.9500000000000002E-002     1.1337198419391281     
   4.9800000000000011E-002     1.6784612492938715     
   5.0100000000000006E-002     2.1351068694360178     
   5.0400000000000000E-002     2.4785731601619654     
   5.0700000000000009E-002     2.6927908281013093     
   5.1000000000000004E-002     2.7702985635179544     
   5.1299999999999998E-002     2.7141741116817828     
   5.1600000000000007E-002     2.5366957916681585     
   5.1900000000000002E-002     2.2579594294650374     
   5.2200000000000010E-002     1.9054610062993975     
   5.2500000000000005E-002     1.5104897430086017     
   5.2800000000000000E-002     1.1061606698359823     
   5.3099999999999994E-002    0.72455586843686559     
   5.3400000000000003E-002    0.39394895185916401     
   5.3699999999999998E-002    0.13701242471007558     
   5.4000000000000006E-002    -3.1573446196428420E-002
   5.4300000000000001E-002   -0.10617344358302383     
   5.4599999999999996E-002    -8.9926683548761405E-002
   5.4900000000000004E-002     5.7346205921441993E-003
   5.5199999999999999E-002    0.16203961556869736     
   5.5499999999999994E-002    0.35517619382440174     
   5.5800000000000002E-002    0.55804171051451723     
   5.6099999999999997E-002    0.74331363434809328     
   5.6400000000000006E-002    0.88730010176712992     
   5.6700000000000000E-002    0.97110292263186748     
   5.6999999999999995E-002    0.98255953013807407     
   5.7300000000000004E-002    0.91699239078876305     
   5.7599999999999998E-002    0.77689375408104044     
   5.7900000000000007E-002    0.57332099749545551     
   5.8200000000000002E-002    0.32329535987298019     
   5.8499999999999996E-002     4.6846125493210426E-002
   5.8800000000000005E-002   -0.23396728633053199     
   5.9100000000000000E-002   -0.49865140448712564     
   5.9400000000000008E-002   -0.72970118608492984     
   5.9700000000000003E-002   -0.91329017154336856     
   6.0000000000000012E-002    -1.0416643929042981     
   6.0300000000000006E-002    -1.1130791029807172     
   6.0600000000000001E-002    -1.1317550259124898     
   6.0900000000000010E-002    -1.1050200760634459     
   6.1200000000000004E-002    -1.0434251107768862     
   6.1500000000000013E-002   -0.95728876729465096     
   6.1800000000000008E-002   -0.85680004287237665     
   6.2100000000000002E-002   -0.74937792745315290     
   6.2399999999999997E-002   -0.63877542768416817     
   6.2700000000000006E-002   -0.52579792137738957     
   6.3000000000000000E-002   -0.40744815875179519     
   6.3300000000000009E-002   -0.27969919002852833     
   6.3600000000000004E-002   -0.13736485922908417     
   6.3899999999999998E-002     2.3668729156644891E-002
   6.4199999999999993E-002    0.20551852927703640     
   6.4500000000000002E-002    0.40596083515336984     
   6.4800000000000010E-002    0.61876101822854446     
   6.5100000000000005E-002    0.83367749499266730     
   6.5400000000000000E-002     1.0384621953552693     
   6.5700000000000008E-002     1.2188309841556229     
   6.5999999999999989E-002     1.3599764577620823     
   6.6299999999999998E-002     1.4486513648049844     
   6.6600000000000006E-002     1.4748261510659737     
   6.6900000000000001E-002     1.4336445868519452     
   6.7199999999999996E-002     1.3265511303597772     
   6.7500000000000004E-002     1.1588905299317909     
   6.7800000000000013E-002    0.94048449960531189     
   6.8099999999999994E-002    0.68378033845598041     
   6.8400000000000002E-002    0.40357761210192328     
   6.8700000000000011E-002    0.11583193981175284     
   6.8999999999999992E-002   -0.16522317120512808     
   6.9300000000000000E-002   -0.42863525517668022     
   6.9600000000000009E-002   -0.66627200941399867     
   6.9900000000000004E-002   -0.87362387995680491     
   7.0199999999999999E-002    -1.0478731767273288     
   7.0500000000000007E-002    -1.1876262843249898     
   7.0800000000000016E-002    -1.2933794715388707     
   7.1099999999999997E-002    -1.3660611398874400     
   7.1400000000000005E-002    -1.4067181844418073     
   7.1700000000000000E-002    -1.4152882586660800     
   7.1999999999999995E-002    -1.3901473749089917     
   7.2300000000000003E-002    -1.3298889837662986     
   7.2600000000000012E-002    -1.2326692752113344     
   7.2900000000000006E-002    -1.0993152032714661     
   7.3200000000000001E-002   -0.93224206667166964     
   7.3499999999999996E-002   -0.73466923156241426     
   7.3800000000000004E-002   -0.51212461283843402     
   7.4099999999999999E-002   -0.27170134315385230     
   7.4400000000000008E-002    -2.2996079411974322E-002
   7.4700000000000003E-002    0.22245820572072447     
   7.5000000000000011E-002    0.45415739718612286     
   7.5299999999999992E-002    0.66298999649506785     
   7.5600000000000001E-002    0.84151914530631267     
   7.5900000000000009E-002    0.98445132489556086     
   7.6200000000000004E-002     1.0869409170306898     
   7.6499999999999999E-002     1.1461832860741226     
   7.6800000000000007E-002     1.1632827869484257     
   7.7099999999999988E-002     1.1413541185863019     
   7.7399999999999997E-002     1.0855369887487996     
   7.7700000000000005E-002     1.0008461752959903     
   7.8000000000000014E-002    0.89240708336609831     
   7.8299999999999995E-002    0.76692595163342492     
   7.8600000000000003E-002    0.63201739196865936     
   7.8900000000000012E-002    0.49578799255534506     
   7.9199999999999993E-002    0.36506627020055676     
   7.9500000000000001E-002    0.24468577542231729     
   7.9800000000000010E-002    0.13828733976889374     
   8.0100000000000018E-002     4.9132752783607403E-002
   8.0399999999999999E-002    -2.0894845031036075E-002
   8.0700000000000008E-002    -7.2602545738612884E-002
   8.1000000000000003E-002   -0.10933092863027900     
   8.1299999999999997E-002   -0.13593472435596463     
   8.1600000000000006E-002   -0.15751570312154478     
   8.1900000000000014E-002   -0.17957842187477960     
   8.2199999999999995E-002   -0.20697989952532092     
   8.2500000000000004E-002   -0.24424576797679184     
   8.2799999999999999E-002   -0.29410833349806659     
   8.3100000000000007E-002   -0.35722342605812518     
   8.3400000000000002E-002   -0.43190179049811755     
   8.3700000000000011E-002   -0.51463247471646878     
   8.4000000000000005E-002   -0.60047306121958566     
   8.4300000000000000E-002   -0.68361033846253816     
   8.4599999999999995E-002   -0.75734593644673309     
   8.4900000000000003E-002   -0.81512495345912850     
   8.5199999999999998E-002   -0.85132965135589278     
   8.5500000000000007E-002   -0.86193755062766675     
   8.5800000000000001E-002   -0.84425177943208796     
   8.6100000000000010E-002   -0.79646762862241804     
   8.6399999999999991E-002   -0.71872981840166517     
   8.6699999999999999E-002   -0.61349227207669321     
   8.7000000000000008E-002   -0.48436720946246276     
   8.7300000000000003E-002   -0.33627085181363986     
   8.7599999999999997E-002   -0.17498452240789761     
   8.7900000000000006E-002    -6.9372503018749971E-003
   8.8200000000000014E-002    0.16055481371769478     
   8.8499999999999995E-002    0.31913990518339758     
   8.8800000000000004E-002    0.46197060958745856     
   8.9100000000000013E-002    0.58265562451434172     
   8.9399999999999993E-002    0.67585154214287779     
   8.9700000000000002E-002    0.73782720138203350     
   9.0000000000000011E-002    0.76578172081661888     
   9.0299999999999991E-002    0.76003809801347688     
   9.0600000000000000E-002    0.72343422886660569     
   9.0900000000000009E-002    0.66048719144689183     
   9.1200000000000017E-002    0.57700742599392474     
   9.1499999999999998E-002    0.47913954632733458     
   9.1800000000000007E-002    0.37405700188760188     
   9.2100000000000001E-002    0.26924142679820234     
   9.2399999999999996E-002    0.17152044327967209     
   9.2700000000000005E-002     8.5468000201763691E-002
   9.3000000000000013E-002     1.3857481003387550E-002
   9.3300000000000008E-002    -4.2435680597657427E-002
   9.3600000000000003E-002    -8.3195609092805878E-002
   9.3899999999999997E-002   -0.10944878027956435     
   9.4200000000000006E-002   -0.12349655229840961     
   9.4500000000000001E-002   -0.12856215774694169     
   9.4800000000000009E-002   -0.12870061901666355     
   9.5100000000000004E-002   -0.12713577242166774     
   9.5399999999999999E-002   -0.12581251827315915     
   9.5699999999999993E-002   -0.12609073740805576     
   9.6000000000000002E-002   -0.12896348792317999     
   9.6300000000000011E-002   -0.13523289847896452     
   9.6600000000000005E-002   -0.14539760592427134     
   9.6900000000000000E-002   -0.15812431413542666     
   9.7200000000000009E-002   -0.17130668529531637     
   9.7499999999999989E-002   -0.18258799703918302     
   9.7799999999999998E-002   -0.19009813822462990     
   9.8100000000000007E-002   -0.19260096687988956     
   9.8400000000000015E-002   -0.18849478685064949     
   9.8699999999999996E-002   -0.17546717689507879     
   9.9000000000000005E-002   -0.15177297377981150     
   9.9300000000000013E-002   -0.11754818782997721     
   9.9599999999999994E-002    -7.4416947658015598E-002
   9.9900000000000003E-002    -2.5107874935293557E-002
  0.10020000000000001          2.7223887747432077E-002
  0.10049999999999999          7.9863660505229361E-002
  0.10080000000000000         0.12861283928205219     
  0.10110000000000001         0.16835784190164466     
  0.10140000000000000         0.19417806747725494     
  0.10170000000000000         0.20302935772773600     
  0.10200000000000001         0.19393078296570865     
  0.10230000000000002         0.16764815769459382     
  0.10260000000000000         0.12517074080251955     
  0.10290000000000001          6.8587959593785053E-002
  0.10320000000000000          1.8794335821477937E-003
  0.10350000000000001         -6.9075736109630012E-002
  0.10380000000000000        -0.13778423293281961     
  0.10410000000000001        -0.19926201636908250     
  0.10440000000000001        -0.24934376342254713     
  0.10470000000000000        -0.28479365658825340     
  0.10500000000000000        -0.30200446782094387     
  0.10530000000000000        -0.29871613915139755     
  0.10560000000000000        -0.27434591600770103     
  0.10590000000000001        -0.23035730025366366     
  0.10620000000000000        -0.16885205532093830     
  0.10650000000000001         -9.2071994067270319E-002
  0.10679999999999999         -2.6436407682700713E-003
  0.10710000000000000          9.5737315018731423E-002
  0.10740000000000001         0.19853139114284996     
  0.10770000000000000         0.30082411058768782     
  0.10800000000000000         0.39782909362977814     
  0.10830000000000001         0.48558951552769525     
  0.10859999999999999         0.55931498014839198     
  0.10890000000000000         0.61583139105533424     
  0.10920000000000001         0.65219123859971129     
  0.10950000000000001         0.66671128771662247     
  0.10979999999999999         0.65872462268639109     
  0.11009999999999999         0.62817074492168778     
  0.11040000000000001         0.57699830895945370     
  0.11070000000000001         0.50855429347484504     
  0.11100000000000000         0.42657993269251526     
  0.11130000000000000         0.33415181101830183     
  0.11160000000000002         0.23437413959803932     
  0.11190000000000001         0.13076935967499842     
  0.11220000000000001          2.7842887826731607E-002
  0.11250000000000000         -7.0032293101929877E-002
  0.11280000000000000        -0.16076768032745894     
  0.11309999999999999        -0.24372109119444940     
  0.11340000000000001        -0.31843335273223433     
  0.11369999999999998        -0.38292840853406229     
  0.11400000000000000        -0.43486765810540451     
  0.11430000000000000        -0.47361413679942971     
  0.11460000000000002        -0.50171012941571380     
  0.11489999999999999        -0.52200783533537021     
  0.11520000000000001        -0.53531760982791365     
  0.11550000000000001        -0.54180420333442947     
  0.11580000000000000        -0.54179079388589457     
  0.11609999999999999        -0.53846092361122011     
  0.11640000000000002        -0.53582067764140962     
  0.11670000000000001        -0.53507681059562284     
  0.11700000000000001        -0.53501118459276942     
  0.11730000000000000        -0.53294510967153763     
  0.11760000000000000        -0.52764351769555762     
  0.11789999999999999        -0.51841999908165437     
  0.11820000000000001        -0.50347967729428522     
  0.11850000000000001        -0.47919885888015257     
  0.11880000000000000        -0.44148333272160795     
  0.11910000000000000        -0.38772450221556876     
  0.11940000000000002        -0.31856794418431078     
  0.11970000000000001        -0.23594372999207427     
  0.12000000000000001        -0.14144746074090675     
  0.12030000000000000         -3.8185784111766367E-002
  0.12060000000000000          7.0483069058530065E-002
  0.12089999999999999         0.17898157883832541     
  0.12119999999999999         0.28187886851680094     
  0.12150000000000001         0.37453158017364874     
  0.12180000000000001         0.45262859905689379     
  0.12210000000000000         0.51368840492559353     
  0.12239999999999999         0.55603744770325381     
  0.12270000000000002         0.57993533508140704     
  0.12300000000000001         0.58643551930704974     
  0.12330000000000001         0.57736935370180376     
  0.12360000000000000         0.55497177493390470     
  0.12390000000000000         0.52245785795644617     
  0.12419999999999999         0.48354830248696240     
  0.12450000000000001         0.44289691914657758     
  0.12480000000000001         0.40315292592936475     
  0.12509999999999999         0.36599905278512307     
  0.12540000000000001         0.33246228910113274     
  0.12570000000000003         0.30380070949952348     
  0.12600000000000000         0.28125563890498750     
  0.12630000000000002         0.26469931399553309     
  0.12659999999999999         0.25181454540731174     
  0.12690000000000001         0.23982630669477772     
  0.12719999999999998         0.22585630447576205     
  0.12750000000000000         0.20839719582340488     
  0.12780000000000002         0.18676652089607673     
  0.12809999999999999         0.15906035826649623     
  0.12840000000000001         0.12369704781989617     
  0.12869999999999998          8.1058365856312126E-002
  0.12900000000000000          3.2167284154849630E-002
  0.12930000000000003         -1.9281101592537243E-002
  0.12959999999999999         -6.9806562628173141E-002
  0.12990000000000002        -0.11639385978255722     
  0.13019999999999998        -0.15624672566121239     
  0.13050000000000000        -0.18704840912671994     
  0.13080000000000003        -0.20644375952763874     
  0.13109999999999999        -0.21286684460855451     
  0.13140000000000002        -0.20622560561405504     
  0.13169999999999998        -0.18841780940592670     
  0.13200000000000001        -0.16203239797261396     
  0.13229999999999997        -0.13048952981915143     
  0.13260000000000000         -9.7296782366862497E-002
  0.13290000000000002         -6.5204501072918697E-002
  0.13319999999999999         -3.7204023867231102E-002
  0.13350000000000001         -1.6537858121920740E-002
  0.13380000000000003         -5.9530931342256050E-003
  0.13410000000000000         -7.8003547098159254E-003
  0.13440000000000002         -2.2254785259417969E-002
  0.13469999999999999         -4.9609881685659052E-002
  0.13500000000000001         -8.8953352604833280E-002
  0.13529999999999998        -0.13977988968064534     
  0.13560000000000000        -0.20112640753061098     
  0.13590000000000002        -0.27000619168058287     
  0.13619999999999999        -0.34321944216930539     
  0.13650000000000001        -0.41591556325365520     
  0.13680000000000003        -0.48439090116050187     
  0.13710000000000000        -0.54450752154620174     
  0.13740000000000002        -0.59216364096798724     
  0.13769999999999999        -0.62324269441654667     
  0.13800000000000001        -0.63425071787246878     
  0.13829999999999998        -0.62281789059694104     
  0.13860000000000000        -0.58785201672132226     
  0.13890000000000002        -0.53033114863175557     
  0.13919999999999999        -0.45162273553385984     
  0.13950000000000001        -0.35483232888089122     
  0.13979999999999998        -0.24374691030827358     
  0.14010000000000000        -0.12251505293390620     
  0.14040000000000002          2.9877444387237011E-003
  0.14069999999999999         0.12671958456349650     
  0.14100000000000001         0.24239172927229760     
  0.14130000000000004         0.34417427819051633     
  0.14160000000000000         0.42718605684981725     
  0.14189999999999997         0.48739023580033342     
  0.14219999999999999         0.52079869837651116     
  0.14250000000000002         0.52447290700264759     
  0.14279999999999998         0.49717204236399104     
  0.14310000000000000         0.44104544697953213     
  0.14339999999999997         0.36014173534655186     
  0.14369999999999999         0.25959003628671506     
  0.14400000000000002         0.14532783836950888     
  0.14429999999999998          2.4561201295188594E-002
  0.14460000000000001         -9.3885379881717634E-002
  0.14490000000000003        -0.19911356767105748     
  0.14520000000000000        -0.28253106101521086     
  0.14550000000000002        -0.33786980406451417     
  0.14579999999999999        -0.36092505986683826     
  0.14610000000000001        -0.34905386872203897     
  0.14640000000000003        -0.30076367228877421     
  0.14670000000000000        -0.21652953608955455     
  0.14699999999999996        -0.10136143139397687     
  0.14729999999999999          3.7216961143127503E-002
  0.14760000000000001         0.19090999081079157     
  0.14789999999999998         0.35143511046937520     
  0.14820000000000000         0.51050301468838921     