  -1.4999999999999999E-002     0.0000000000000000     
  -1.4700000000000000E-002     0.0000000000000000     
  -1.4400000000000000E-002     2.4725447785402162E-035
  -1.4100000000000000E-002     7.4798802403915743E-031
  -1.3800000000000000E-002    -4.3666715909465056E-029
  -1.3500000000000000E-002    -3.1749194202056288E-026
  -1.3200000000000000E-002     4.1615320182628613E-025
  -1.2899999999999998E-002     7.0884338623485638E-024
  -1.2600000000000000E-002    -8.6808129079881791E-023
  -1.2299999999999998E-002     1.3260972732401961E-023
  -1.2000000000000000E-002     1.7750636398454671E-021
  -1.1699999999999999E-002    -4.6724021685893641E-022
  -1.1399999999999999E-002    -2.2588266875825376E-020
  -1.1099999999999999E-002     2.9740201999091994E-021
  -1.0799999999999999E-002     1.4377663535095532E-019
  -1.0499999999999999E-002     2.2083150115612158E-019
  -1.0199999999999999E-002    -8.2584071364139164E-019
  -9.8999999999999991E-003    -2.5823473074270472E-018
  -9.5999999999999992E-003     3.5713378439687305E-018
  -9.2999999999999992E-003     1.3934277157010793E-017
  -8.9999999999999993E-003    -2.3736984268030818E-018
  -8.6999999999999994E-003    -4.3406628989695204E-017
  -8.3999999999999995E-003    -9.6618679206216500E-017
  -8.0999999999999996E-003     1.2404634090939967E-016
  -7.7999999999999988E-003     5.9469003975988050E-016
  -7.4999999999999997E-003    -4.1440801134511042E-016
  -7.1999999999999998E-003    -7.2708463479616340E-016
  -6.8999999999999981E-003    -1.8601140609160267E-015
  -6.5999999999999982E-003    -5.1167906094421704E-016
  -6.3000000000000000E-003     1.5392175523190678E-014
  -6.0000000000000001E-003    -7.4907322432565162E-015
  -5.6999999999999985E-003    -1.2993377462384196E-014
  -5.3999999999999986E-003    -2.8636754884266217E-015
  -5.1000000000000004E-003    -8.2915797241087537E-014
  -4.7999999999999987E-003     2.1571766033705758E-013
  -4.5000000000000005E-003     4.3027826066082368E-014
  -4.1999999999999989E-003    -3.4621797281874255E-013
  -3.8999999999999990E-003     4.9367363222918750E-013
  -3.5999999999999990E-003    -1.5370792957861963E-012
  -3.2999999999999991E-003     1.3531217715214202E-012
  -2.9999999999999992E-003     2.3282816477340857E-012
  -2.6999999999999993E-003    -4.8611477392920905E-012
  -2.3999999999999994E-003     8.2217152895866878E-012
  -2.0999999999999977E-003    -1.4983100049258640E-011
  -1.7999999999999995E-003     4.8202728411735483E-012
  -1.4999999999999979E-003     2.2176027550271106E-011
  -1.1999999999999997E-003    -5.3071354713233268E-011
  -8.9999999999999976E-004     1.2535113856175046E-010
  -5.9999999999999810E-004    -1.6812931429461100E-010
  -2.9999999999999992E-004    -2.8986338934035404E-011
   0.0000000000000000          5.1381444733498597E-010
   3.0000000000000165E-004    -1.1333897529032781E-009
   5.9999999999999984E-004     1.1389537068223998E-009
   9.0000000000000149E-004     9.5986205660657437E-010
   1.2000000000000031E-003    -4.6826898477817663E-009
   1.5000000000000013E-003     5.6678335680908509E-009
   1.8000000000000030E-003     4.8468551629339707E-010
   2.1000000000000012E-003    -1.2028344294248702E-008
   2.3999999999999994E-003     1.6999930830876377E-008
   2.7000000000000010E-003    -1.9646136629108027E-009
   2.9999999999999992E-003    -2.4017211087650530E-008
   3.3000000000000008E-003     3.0450671142770431E-008
   3.6000000000000025E-003    -4.9370211714024124E-009
   3.9000000000000007E-003    -2.8917585445294661E-008
   4.2000000000000023E-003     3.6910707631144976E-008
   4.5000000000000005E-003    -1.0466776261174726E-008
   4.7999999999999987E-003    -1.8929744757919376E-008
   5.1000000000000004E-003     2.4632111344004049E-008
   5.4000000000000020E-003    -1.9654654499940665E-008
   5.7000000000000037E-003     9.3385209997499909E-009
   5.9999999999999984E-003     1.1228442243435497E-008
   6.3000000000000000E-003    -2.0353245696658390E-008
   6.6000000000000017E-003     1.8830648511229470E-008
   6.9000000000000034E-003    -2.0608841797427351E-008
   7.2000000000000015E-003    -1.8028273522732280E-009
   7.5000000000000032E-003     3.5520971981197161E-008
   7.8000000000000014E-003    -2.6581575071525076E-008
   8.0999999999999996E-003     5.7760007751682648E-009
   8.4000000000000012E-003    -1.6443944023885284E-008
   8.7000000000000029E-003    -2.3268040356839966E-008
   9.0000000000000011E-003     1.1066811499822929E-007
   9.2999999999999992E-003     1.3026282691242011E-008
   9.6000000000000009E-003    -1.7834789847615216E-007
   9.8999999999999991E-003    -1.7637500352498631E-007
   1.0200000000000001E-002     2.6110785661790677E-007
   1.0500000000000002E-002     1.5993906055180278E-006
   1.0800000000000004E-002     3.2050447336997045E-006
   1.1099999999999999E-002     4.7375893640390179E-006
   1.1400000000000000E-002     7.5760908102731822E-006
   1.1700000000000002E-002     1.1193935818767899E-005
   1.2000000000000004E-002     1.4847399067788431E-005
   1.2300000000000002E-002     2.7572029292564325E-005
   1.2600000000000000E-002     5.8784461138310275E-005
   1.2900000000000002E-002     9.1464018033538615E-005
   1.3200000000000000E-002     1.0129373579603428E-004
   1.3500000000000002E-002     1.0180648394921295E-004
   1.3800000000000003E-002     1.1869384347365934E-004
   1.4100000000000001E-002     1.4614283667255441E-004
   1.4400000000000000E-002     1.6847050562045657E-004
   1.4700000000000001E-002     1.7673020318320740E-004
   1.4999999999999999E-002     1.5039166053067352E-004
   1.5300000000000001E-002     6.3659376143783067E-005
   1.5600000000000003E-002    -1.1142717662331058E-004
   1.5899999999999997E-002    -4.6359293541449497E-004
   1.6199999999999999E-002    -1.1696579464963374E-003
   1.6500000000000001E-002    -2.4212983152362534E-003
   1.6800000000000002E-002    -4.4023668799986031E-003
   1.7100000000000004E-002    -7.3972721881979953E-003
   1.7400000000000006E-002    -1.1872383242600336E-002
   1.7700000000000000E-002    -1.8401732712190418E-002
   1.8000000000000002E-002    -2.7584244791025569E-002
   1.8300000000000004E-002    -4.0131339910767866E-002
   1.8600000000000005E-002    -5.6922214722727592E-002
   1.8900000000000000E-002    -7.8866221190621283E-002
   1.9200000000000002E-002   -0.10677228615529054     
   1.9500000000000003E-002   -0.14130291247286991     
   1.9799999999999998E-002   -0.18289124028706907     
   2.0100000000000000E-002   -0.23151757912554963     
   2.0400000000000001E-002   -0.28646650845758087     
   2.0700000000000003E-002   -0.34613156833035663     
   2.0999999999999998E-002   -0.40780086413565553     
   2.1299999999999999E-002   -0.46749288599007327     
   2.1600000000000001E-002   -0.51987670821564658     
   2.1900000000000003E-002   -0.55820751782047573     
   2.2200000000000004E-002   -0.57450102735660780     
   2.2500000000000006E-002   -0.55992264027706307     
   2.2800000000000001E-002   -0.50524514656096997     
   2.3100000000000002E-002   -0.40173593810080493     
   2.3400000000000004E-002   -0.24192606055465454     
   2.3699999999999999E-002    -2.0708089234944882E-002
   2.4000000000000000E-002    0.26353657479814457     
   2.4300000000000002E-002    0.60787916848495149     
   2.4599999999999997E-002     1.0040370416727540     
   2.4900000000000005E-002     1.4379632304701968     
   2.5200000000000000E-002     1.8898107896498890     
   2.5499999999999995E-002     2.3345505861756815     
   2.5800000000000003E-002     2.7431765316009540     
   2.6099999999999998E-002     3.0844990394747187     
   2.6400000000000007E-002     3.3274434909071680     
   2.6700000000000002E-002     3.4438104840673152     
   2.6999999999999996E-002     3.4111147106574826     
   2.7300000000000005E-002     3.2149642071144680     
   2.7600000000000000E-002     2.8512949983980587     
   2.7900000000000008E-002     2.3277183523358573     
   2.8200000000000003E-002     1.6637684480626203     
   2.8499999999999998E-002    0.89023098784661903     
   2.8800000000000006E-002     4.7230817530757307E-002
   2.9100000000000001E-002   -0.81901125112851592     
   2.9400000000000003E-002    -1.6595213120240879     
   2.9700000000000004E-002    -2.4267809418610735     
   3.0000000000000006E-002    -3.0790402941655630     
   3.0300000000000001E-002    -3.5836981203697120     
   3.0600000000000002E-002    -3.9206794657294077     
   3.0900000000000004E-002    -4.0842712753663175     
   3.1199999999999999E-002    -4.0832613727516005     
   3.1500000000000007E-002    -3.9402873989042098     
   3.1800000000000002E-002    -3.6892816025164743     
   3.2099999999999997E-002    -3.3729078195100493     
   3.2400000000000005E-002    -3.0382455735024894     
   3.2700000000000000E-002    -2.7324826122447003     
   3.3000000000000002E-002    -2.4984754339503508     
   3.3300000000000003E-002    -2.3709169766893208     
   3.3599999999999998E-002    -2.3730874619623599     
   3.3900000000000000E-002    -2.5146418949125624     
   3.4200000000000001E-002    -2.7906994113362518     
   3.4500000000000003E-002    -3.1815712804833067     
   3.4799999999999998E-002    -3.6544046518063436     
   3.5099999999999999E-002    -4.1649180717270848     
   3.5400000000000001E-002    -4.6604671558943229     
   3.5699999999999996E-002    -5.0840359597025602     
   3.6000000000000004E-002    -5.3775670988037483     
   3.6299999999999999E-002    -5.4870686634797732     
   3.6600000000000008E-002    -5.3655356495622994     
   3.6900000000000002E-002    -4.9770535052166522     
   3.7199999999999997E-002    -4.2996996808889145     
   3.7500000000000006E-002    -3.3277807134552662     
   3.7800000000000000E-002    -2.0735294515218623     
   3.8100000000000009E-002   -0.56668982534072210     
   3.8400000000000004E-002     1.1463865522855343     
   3.8699999999999998E-002     3.0041999920370754     
   3.9000000000000007E-002     4.9338519678202397     
   3.9300000000000002E-002     6.8536400078863302     
   3.9600000000000003E-002     8.6787067731151808     
   3.9900000000000005E-002     10.326201578836447     
   4.0200000000000000E-002     11.719658577532934     
   4.0500000000000001E-002     12.793593806096748     
   4.0800000000000003E-002     13.496777676055359     
   4.1100000000000005E-002     13.793974063380173     
   4.1399999999999999E-002     13.667981799116410     
   4.1700000000000008E-002     13.119267457502016     
   4.2000000000000003E-002     12.165349134645771     
   4.2299999999999997E-002     10.838701824062337     
   4.2600000000000006E-002     9.1833004355428489     
   4.2900000000000001E-002     7.2534307678221310     
   4.3200000000000002E-002     5.1110336675373418     
   4.3500000000000004E-002     2.8259432063253644     
   4.3799999999999999E-002    0.47542189307756622     
   4.4100000000000000E-002    -1.8559277008861699     
   4.4400000000000002E-002    -4.0744000781288143     
   4.4700000000000004E-002    -6.0789930415273004     
   4.4999999999999998E-002    -7.7616789174584513     
   4.5300000000000000E-002    -9.0098382031655824     
   4.5600000000000002E-002    -9.7130053204330782     
   4.5899999999999996E-002    -9.7712444433059176     
   4.6200000000000005E-002    -9.1046950431461795     
   4.6500000000000000E-002    -7.6669669014872213     
   4.6799999999999994E-002    -5.4565044421244950     
   4.7100000000000003E-002    -2.5272999970893220     
   4.7399999999999998E-002     1.0041768134042783     
   4.7700000000000006E-002     4.9578663519668851     
   4.8000000000000001E-002     9.0934181315115410     
   4.8300000000000010E-002     13.122732730981099     
   4.8600000000000004E-002     16.727172157610070     
   4.8899999999999999E-002     19.581501895866509     
   4.9200000000000008E-002     21.379936832062505     
   4.9500000000000002E-002     21.865299141134571     
   4.9800000000000011E-002     20.854417480846777     
   5.0100000000000006E-002     18.259554719522058     
   5.0400000000000000E-002     14.100990552604960     
   5.0700000000000009E-002     8.5124642701049957     
   5.1000000000000004E-002     1.7358391101616206     
   5.1299999999999998E-002    -5.8922046384212123     
   5.1600000000000007E-002    -13.963497749941261     
   5.1900000000000002E-002    -22.027764265528358     
   5.2200000000000010E-002    -29.625198147621376     
   5.2500000000000005E-002    -36.318831281796477     
   5.2800000000000000E-002    -41.724720445898285     
   5.3099999999999994E-002    -45.537995067045998     
   5.3400000000000003E-002    -47.549417495386464     
   5.3699999999999998E-002    -47.659207762489579     
   5.4000000000000006E-002    -45.877507845863867     
   5.4300000000000001E-002    -42.319831288902378     
   5.4599999999999996E-002    -37.193930626204022     
   5.4900000000000004E-002    -30.778344140887690     
   5.5199999999999999E-002    -23.404070786833596     
   5.5499999999999994E-002    -15.430694685192410     
   5.5800000000000002E-002    -7.2217520618571438     
   5.6099999999999997E-002    0.87262719267573274     
   5.6400000000000006E-002     8.5391947031017672     
   5.6700000000000000E-002     15.514228298123118     
   5.6999999999999995E-002     21.590482337348984     
   5.7300000000000004E-002     26.625034782410555     
   5.7599999999999998E-002     30.537585587109618     
   5.7900000000000007E-002     33.306847603485288     
   5.8200000000000002E-002     34.968050676184490     
   5.8499999999999996E-002     35.600075353989304     
   5.8800000000000005E-002     35.315593930045061     
   5.9100000000000000E-002     34.248956247130764     
   5.9400000000000008E-002     32.546426670168415     
   5.9700000000000003E-002     30.355238269244396     
   6.0000000000000012E-002     27.815111143414043     
   6.0300000000000006E-002     25.049454933860389     
   6.0600000000000001E-002     22.158754267519509     
   6.0900000000000010E-002     19.219002968903169     
   6.1200000000000004E-002     16.281850810297573     
   6.1500000000000013E-002     13.377120489377365     
   6.1800000000000008E-002     10.517407619184800     
   6.2100000000000002E-002     7.7020587113936987     
   6.2399999999999997E-002     4.9234175118495509     
   6.2700000000000006E-002     2.1740085850296862     
   6.3000000000000000E-002   -0.54629649451455520     
   6.3300000000000009E-002    -3.2263154074012803     
   6.3600000000000004E-002    -5.8390513741639722     
   6.3899999999999998E-002    -8.3437347456816546     
   6.4199999999999993E-002    -10.689015445389462     
   6.4500000000000002E-002    -12.814223380869363     
   6.4800000000000010E-002    -14.655834824045080     
   6.5100000000000005E-002    -16.152480062797341     
   6.5400000000000000E-002    -17.251171797243884     
   6.5700000000000008E-002    -17.915637397914718     
   6.5999999999999989E-002    -18.128000524878008     
   6.6299999999999998E-002    -17.893809598390700     
   6.6600000000000006E-002    -17.240548354562875     
   6.6900000000000001E-002    -16.216008085979663     
   6.7199999999999996E-002    -14.884892759720472     
   6.7500000000000004E-002    -13.324927368821546     
   6.7800000000000013E-002    -11.621089514344483     
   6.8099999999999994E-002    -9.8586675407315791     
   6.8400000000000002E-002    -8.1182926913142595     
   6.8700000000000011E-002    -6.4678411936134177     
   6.8999999999999992E-002    -4.9608974696085237     
   6.9300000000000000E-002    -3.6331838342018674     
   6.9600000000000009E-002    -2.5007382280742867     
   6.9900000000000004E-002    -1.5612078398670817     
   7.0199999999999999E-002   -0.79451315186280658     
   7.0500000000000007E-002   -0.16700160787350271     
   7.0800000000000016E-002    0.36417816722224450     
   7.1099999999999997E-002    0.84422708142916969     
   7.1400000000000005E-002     1.3177030835894410     
   7.1700000000000000E-002     1.8235722749865650     
   7.1999999999999995E-002     2.3886683639574184     
   7.2300000000000003E-002     3.0274167979258109     
   7.2600000000000012E-002     3.7370960254244308     
   7.2900000000000006E-002     4.5001123189908441     
   7.3200000000000001E-002     5.2838053839705426     
   7.3499999999999996E-002     6.0484089570486326     
   7.3800000000000004E-002     6.7461687247180731     
   7.4099999999999999E-002     7.3297002453054549     
   7.4400000000000008E-002     7.7545795617693365     
   7.4700000000000003E-002     7.9829505718135056     
   7.5000000000000011E-002     7.9906247902984830     
   7.5299999999999992E-002     7.7676752160608693     
   7.5600000000000001E-002     7.3205967650527715     
   7.5900000000000009E-002     6.6697967993297844     
   7.6200000000000004E-002     5.8495214501818076     
   7.6499999999999999E-002     4.9030740028426285     
   7.6800000000000007E-002     3.8813310957072469     
   7.7099999999999988E-002     2.8375952183143500     
   7.7399999999999997E-002     1.8260253586032222     
   7.7700000000000005E-002    0.89443097096491231     
   7.8000000000000014E-002     8.1565101181876265E-002
   7.8299999999999995E-002   -0.58330836839253541     
   7.8600000000000003E-002    -1.0852095258077656     
   7.8900000000000012E-002    -1.4205327512743839     
   7.9199999999999993E-002    -1.5990084754388494     
   7.9500000000000001E-002    -1.6408496506640859     
   7.9800000000000010E-002    -1.5756596398528431     
   8.0100000000000018E-002    -1.4390804777274346     
   8.0399999999999999E-002    -1.2686380066287022     
   8.0700000000000008E-002    -1.1008047325908175     
   8.1000000000000003E-002   -0.96763972961071398     
   8.1299999999999997E-002   -0.89400141465134286     
   8.1600000000000006E-002   -0.89492666421941880     
   8.1900000000000014E-002   -0.97576290271455179     
   8.2199999999999995E-002    -1.1296366008153789     
   8.2500000000000004E-002    -1.3414101716661899     
   8.2799999999999999E-002    -1.5884208482680138     
   8.3100000000000007E-002    -1.8429496547076405     
   8.3400000000000002E-002    -2.0771936978987102     
   8.3700000000000011E-002    -2.2636561210393773     
   8.4000000000000005E-002    -2.3802885072001443     
   8.4300000000000000E-002    -2.4120773223390701     
   8.4599999999999995E-002    -2.3536148193922943     
   8.4900000000000003E-002    -2.2082477096874396     
   8.5199999999999998E-002    -1.9888275025719064     
   8.5500000000000007E-002    -1.7137814789010197     
   8.5800000000000001E-002    -1.4080214440961969     
   8.6100000000000010E-002    -1.0968802398984543     
   8.6399999999999991E-002   -0.80571569697912127     
   8.6699999999999999E-002   -0.55613763842669162     
   8.7000000000000008E-002   -0.36179852913661609     
   8.7300000000000003E-002   -0.22984533243641520     
   8.7599999999999997E-002   -0.15845547256021700     
   8.7900000000000006E-002   -0.13865773536580123     
   8.8200000000000014E-002   -0.15543092629236249     
   8.8499999999999995E-002   -0.18948836690899346     
   8.8800000000000004E-002   -0.21928054111231146     
   8.9100000000000013E-002   -0.22529270610682306     
   8.9399999999999993E-002   -0.19246288892710900     
   8.9700000000000002E-002   -0.11170002634829200     
   9.0000000000000011E-002     1.7621013779559110E-002
   9.0299999999999991E-002    0.19033338446112058     
   9.0600000000000000E-002    0.39360244447257353     
   9.0900000000000009E-002    0.61088394228443366     
   9.1200000000000017E-002    0.82164041895038686     
   9.1499999999999998E-002     1.0040978866838977     
   9.1800000000000007E-002     1.1390753992871452     
   9.2100000000000001E-002     1.2113821705312655     
   9.2399999999999996E-002     1.2124409312956115     
   9.2700000000000005E-002     1.1396531238542220     
   9.3000000000000013E-002    0.99752827189791982     
   9.3300000000000008E-002    0.79510852209274552     
   9.3600000000000003E-002    0.54616443723565045     
   9.3899999999999997E-002    0.26683914805521380     
   9.4200000000000006E-002    -2.4449224624535831E-002
   9.4500000000000001E-002   -0.30943090701600318     
   9.4800000000000009E-002   -0.57188566257569551     
   9.5100000000000004E-002   -0.79784316890718843     
   9.5399999999999999E-002   -0.97700039809187533     
   9.5699999999999993E-002    -1.1005986895339588     
   9.6000000000000002E-002    -1.1639775599679969     
   9.6300000000000011E-002    -1.1640764910373922     
   9.6600000000000005E-002    -1.1009866664408274     
   9.6900000000000000E-002   -0.97755614169676397     
   9.7200000000000009E-002   -0.79848014012601787     
   9.7499999999999989E-002   -0.57190840469937754     
   9.7799999999999998E-002   -0.30704251669250432     
   9.8100000000000007E-002    -1.6360765029460364E-002
   9.8400000000000015E-002    0.28632109248136067     
   9.8699999999999996E-002    0.58560570359941455     
   9.9000000000000005E-002    0.86653883960135158     
   9.9300000000000013E-002     1.1146227950552690     
   9.9599999999999994E-002     1.3165605094879571     
   9.9900000000000003E-002     1.4624619369140810     
  0.10020000000000001          1.5440837923626320     
  0.10049999999999999          1.5589294783156307     
  0.10080000000000000          1.5087056979656839     
  0.10110000000000001          1.3997450190281147     
  0.10140000000000000          1.2411803978453335     
  0.10170000000000000          1.0459883544951074     
  0.10200000000000001         0.82749786085784838     
  0.10230000000000002         0.60164464925555228     
  0.10260000000000000         0.38391611133273973     
  0.10290000000000001         0.18911370054877280     
  0.10320000000000000          2.9586964103519048E-002
  0.10350000000000001         -8.5698119199388578E-002
  0.10380000000000000        -0.15186867756669703     
  0.10410000000000001        -0.16710607894185281     
  0.10440000000000001        -0.13371958803402589     
  0.10470000000000000         -5.7172079842197909E-002
  0.10500000000000000          5.3471873368058337E-002
  0.10530000000000000         0.18673075734387118     
  0.10560000000000000         0.33026606676571979     
  0.10590000000000001         0.47132347960210619     
  0.10620000000000000         0.59738911844671205     
  0.10650000000000001         0.69787000416911638     
  0.10679999999999999         0.76450205487849976     
  0.10710000000000000         0.79321464068608571     
  0.10740000000000001         0.78316741506695942     
  0.10770000000000000         0.73667292614759905     
  0.10800000000000000         0.65784110620840797     
  0.10830000000000001         0.55289976936336993     
  0.10859999999999999         0.42926448585130844     
  0.10890000000000000         0.29635605579197000     
  0.10920000000000001         0.16352429837391619     
  0.10950000000000001          3.7914012567862393E-002
  0.10979999999999999         -7.5679883076725657E-002
  0.11009999999999999        -0.17546833406684048     
  0.11040000000000001        -0.26081887742939130     
  0.11070000000000001        -0.33253381785883318     
  0.11100000000000000        -0.39270173204149761     
  0.11130000000000000        -0.44541244793180901     
  0.11160000000000002        -0.49673869894035028     
  0.11190000000000001        -0.55204663939510101     
  0.11220000000000001        -0.61618682506129718     
  0.11250000000000000        -0.69086604611526914     
  0.11280000000000000        -0.77729841899752916     
  0.11309999999999999        -0.87639517401666367     
  0.11340000000000001        -0.98645987041940186     
  0.11369999999999998         -1.1037847213307035     
  0.11400000000000000         -1.2228301471796532     
  0.11430000000000000         -1.3372365635942689     
  0.11460000000000002         -1.4408741344458298     
  0.11489999999999999         -1.5298716033870170     
  0.11520000000000001         -1.5997542515120864     
  0.11550000000000001         -1.6466306375176740     
  0.11580000000000000         -1.6673021678950275     
  0.11609999999999999         -1.6608899988837231     
  0.11640000000000002         -1.6298469234901813     
  0.11670000000000001         -1.5780731088709810     
  0.11700000000000001         -1.5099379692520305     
  0.11730000000000000         -1.4281369925619656     
  0.11760000000000000         -1.3353468068676686     
  0.11789999999999999         -1.2349999968098961     
  0.11820000000000001         -1.1306732950440155     
  0.11850000000000001         -1.0247931017949867     
  0.11880000000000000        -0.91791863400372464     
  0.11910000000000000        -0.80823699532157145     
  0.11940000000000002        -0.69200690044501956     
  0.11970000000000001        -0.56671888212312749     
  0.12000000000000001        -0.42939769187215915     
  0.12030000000000000        -0.27668323998890521     
  0.12060000000000000        -0.10494838814021717     
  0.12089999999999999          8.8718409229790629E-002
  0.12119999999999999         0.30569440100881945     
  0.12150000000000001         0.54494176513777992     
  0.12180000000000001         0.80390298493761825     
  0.12210000000000000          1.0779323749242922     
  0.12239999999999999          1.3607209101248834     
  0.12270000000000002          1.6441365754579536     
  0.12300000000000001          1.9184737034848962     
  0.12330000000000001          2.1729136417332602     
  0.12360000000000000          2.3976932568464555     
  0.12390000000000000          2.5830893317506445     
  0.12419999999999999          2.7206122461746260     
  0.12450000000000001          2.8045620946102781     
  0.12480000000000001          2.8299435376093913     
  0.12509999999999999          2.7957964015210854     
  0.12540000000000001          2.7042023879860615     
  0.12570000000000003          2.5584970425026778     
  0.12600000000000000          2.3641259317622967     
  0.12630000000000002          2.1286709502024923     
  0.12659999999999999          1.8604250128409989     
  0.12690000000000001          1.5692377341021455     
  0.12719999999999998          1.2645371985702676     
  0.12750000000000000         0.95373982329001650     
  0.12780000000000002         0.64234190121634860     
  0.12809999999999999         0.33685266916364009     
  0.12840000000000001          4.1911385146461755E-002
  0.12869999999999998        -0.23794623915608504     
  0.12900000000000000        -0.50043660388112898     
  0.12930000000000003        -0.74582583204198827     
  0.12959999999999999        -0.97513809375658100     
  0.12990000000000002         -1.1890969792622397     
  0.13019999999999998         -1.3863884702733813     
  0.13050000000000000         -1.5654154520924735     
  0.13080000000000003         -1.7253722404365561     
  0.13109999999999999         -1.8661330957954094     
  0.13140000000000002         -1.9876579572344930     
  0.13169999999999998         -2.0869515900116435     
  0.13200000000000001         -2.1591433754872296     
  0.13229999999999997         -2.2004317349128883     
  0.13260000000000000         -2.2064971311501300     
  0.13290000000000002         -2.1762092501330841     
  0.13319999999999999         -2.1087192327202868     
  0.13350000000000001         -2.0025103519411576     
  0.13380000000000003         -1.8576268237800353     
  0.13410000000000000         -1.6749816035128753     
  0.13440000000000002         -1.4575657680358129     
  0.13469999999999999         -1.2109668348019862     
  0.13500000000000001        -0.94109260952380946     
  0.13529999999999998        -0.65327622918210371     
  0.13560000000000000        -0.35450884297351676     
  0.13590000000000002         -5.1053866192888681E-002
  0.13619999999999999         0.25030520779807025     
  0.13650000000000001         0.54274817492283300     
  0.13680000000000003         0.82154391202941202     
  0.13710000000000000          1.0797993557570977     
  0.13740000000000002          1.3129995466441078     
  0.13769999999999999          1.5155720665406438     
  0.13800000000000001          1.6834887943922898     
  0.13829999999999998          1.8139092722250927     
  0.13860000000000000          1.9039481210294964     
  0.13890000000000002          1.9522157871262253     
  0.13919999999999999          1.9572247705706363     
  0.13950000000000001          1.9173951493390557     
  0.13979999999999998          1.8336788570161537     
  0.14010000000000000          1.7080374098720315     
  0.14040000000000002          1.5438490271289482     
  0.14069999999999999          1.3446299898418810     
  0.14100000000000001          1.1142070462644076     
  0.14130000000000004         0.85684180287009326     
  0.14160000000000000         0.57849654274284190     
  0.14189999999999997         0.28646094708539904     
  0.14219999999999999         -1.1657045926145290E-002
  0.14250000000000002        -0.30706837009764881     
  0.14279999999999998        -0.59223098793518247     
  0.14310000000000000        -0.85912021905192626     
  0.14339999999999997         -1.1002008681119637     
  0.14369999999999999         -1.3081809737073640     
  0.14400000000000002         -1.4774289593942758     
  0.14429999999999998         -1.6034363475752900     
  0.14460000000000001         -1.6839869467767559     
  0.14490000000000003         -1.7195392656532480     
  0.14520000000000000         -1.7119435940902101     
  0.14550000000000002         -1.6653428517585618     
  0.14579999999999999         -1.5842998318484147     
  0.14610000000000001         -1.4744796077196687     
  0.14640000000000003         -1.3418033532750444     
  0.14670000000000000         -1.1918374785071064     
  0.14699999999999996         -1.0297310093906851     
  0.14729999999999999        -0.86060380402158276     
  0.14760000000000001        -0.68680561347385949     
  0.14789999999999998        -0.51144155779684808     
  0.14820000000000000        -0.33620902241983547     