  -1.4999999999999999E-002     0.0000000000000000     
  -1.4700000000000000E-002     0.0000000000000000     
  -1.4400000000000000E-002     0.0000000000000000     
  -1.4100000000000000E-002     0.0000000000000000     
  -1.3800000000000000E-002     0.0000000000000000     
  -1.3500000000000000E-002     0.0000000000000000     
  -1.3200000000000000E-002     0.0000000000000000     
  -1.2899999999999998E-002     0.0000000000000000     
  -1.2600000000000000E-002     0.0000000000000000     
  -1.2299999999999998E-002     0.0000000000000000     
  -1.2000000000000000E-002     0.0000000000000000     
  -1.1699999999999999E-002     0.0000000000000000     
  -1.1399999999999999E-002     0.0000000000000000     
  -1.1099999999999999E-002     0.0000000000000000     
  -1.0799999999999999E-002     0.0000000000000000     
  -1.0499999999999999E-002     0.0000000000000000     
  -1.0199999999999999E-002     0.0000000000000000     
  -9.8999999999999991E-003     0.0000000000000000     
  -9.5999999999999992E-003     0.0000000000000000     
  -9.2999999999999992E-003     0.0000000000000000     
  -8.9999999999999993E-003     0.0000000000000000     
  -8.6999999999999994E-003     0.0000000000000000     
  -8.3999999999999995E-003     0.0000000000000000     
  -8.0999999999999996E-003     0.0000000000000000     
  -7.7999999999999988E-003     0.0000000000000000     
  -7.4999999999999997E-003     0.0000000000000000     
  -7.1999999999999998E-003     0.0000000000000000     
  -6.8999999999999981E-003     0.0000000000000000     
  -6.5999999999999982E-003     0.0000000000000000     
  -6.3000000000000000E-003     0.0000000000000000     
  -6.0000000000000001E-003     0.0000000000000000     
  -5.6999999999999985E-003     0.0000000000000000     
  -5.3999999999999986E-003     0.0000000000000000     
  -5.1000000000000004E-003     0.0000000000000000     
  -4.7999999999999987E-003     0.0000000000000000     
  -4.5000000000000005E-003     0.0000000000000000     
  -4.1999999999999989E-003     0.0000000000000000     
  -3.8999999999999990E-003     0.0000000000000000     
  -3.5999999999999990E-003     0.0000000000000000     
  -3.2999999999999991E-003     0.0000000000000000     
  -2.9999999999999992E-003     0.0000000000000000     
  -2.6999999999999993E-003     0.0000000000000000     
  -2.3999999999999994E-003     0.0000000000000000     
  -2.0999999999999977E-003     0.0000000000000000     
  -1.7999999999999995E-003     0.0000000000000000     
  -1.4999999999999979E-003     0.0000000000000000     
  -1.1999999999999997E-003     0.0000000000000000     
  -8.9999999999999976E-004     0.0000000000000000     
  -5.9999999999999810E-004     0.0000000000000000     
  -2.9999999999999992E-004     0.0000000000000000     
   0.0000000000000000          0.0000000000000000     
   3.0000000000000165E-004     0.0000000000000000     
   5.9999999999999984E-004     0.0000000000000000     
   9.0000000000000149E-004     0.0000000000000000     
   1.2000000000000031E-003     0.0000000000000000     
   1.5000000000000013E-003     0.0000000000000000     
   1.8000000000000030E-003     0.0000000000000000     
   2.1000000000000012E-003     0.0000000000000000     
   2.3999999999999994E-003     0.0000000000000000     
   2.7000000000000010E-003     0.0000000000000000     
   2.9999999999999992E-003     2.1183626585045711E-037
   3.3000000000000008E-003    -1.2837774344124704E-036
   3.6000000000000025E-003     4.3251131935836829E-036
   3.9000000000000007E-003    -8.2126661867022361E-036
   4.2000000000000023E-003     3.9938555222534128E-035
   4.5000000000000005E-003    -1.9752480041599726E-035
   4.7999999999999987E-003    -1.8502153754123119E-034
   5.1000000000000004E-003     1.0238429726097460E-033
   5.4000000000000020E-003    -2.2425456896902987E-033
   5.7000000000000037E-003     1.6474425208854135E-033
   5.9999999999999984E-003     6.3919293849308743E-033
   6.3000000000000000E-003    -1.4656676672127435E-032
   6.6000000000000017E-003     5.6147255326206706E-033
   6.9000000000000034E-003     3.5731791172199828E-032
   7.2000000000000015E-003    -9.9344327392757497E-032
   7.5000000000000032E-003     9.3327652034081059E-032
   7.8000000000000014E-003     1.4537564328456984E-031
   8.0999999999999996E-003    -5.9711013433194849E-031
   8.4000000000000012E-003     7.1234475933528725E-031
   8.7000000000000029E-003     4.0095132953715083E-031
   9.0000000000000011E-003    -2.7145730001496649E-030
   9.2999999999999992E-003     3.8088054121899538E-030
   9.6000000000000009E-003    -1.1180619936160689E-031
   9.8999999999999991E-003    -7.6163473921260041E-030
   1.0200000000000001E-002     1.0807729039794795E-029
   1.0500000000000002E-002    -3.1324680196031981E-030
   1.0800000000000004E-002    -1.9433554447698130E-031
   1.1099999999999999E-002    -2.8606454836549595E-029
   1.1400000000000000E-002     6.0514316198815873E-029
   1.1700000000000002E-002     5.1504805082041035E-029
   1.2000000000000004E-002    -4.4721178971519340E-028
   1.2300000000000002E-002     8.9630134967050466E-028
   1.2600000000000000E-002    -5.7233623888679135E-028
   1.2900000000000002E-002    -1.4522844360786348E-027
   1.3200000000000000E-002     5.0340633705607811E-027
   1.3500000000000002E-002    -8.0622198323565277E-027
   1.3800000000000003E-002     6.3520158387313931E-027
   1.4100000000000001E-002     6.4839534058651484E-027
   1.4400000000000000E-002    -3.7738454531975935E-026
   1.4700000000000001E-002     8.4308211389742425E-026
   1.4999999999999999E-002    -1.0445873664315036E-025
   1.5300000000000001E-002    -3.6922141436806719E-027
   1.5600000000000003E-002     3.4802252754323880E-025
   1.5899999999999997E-002    -8.5673952185865858E-025
   1.6199999999999999E-002     1.0424926167112898E-024
   1.6500000000000001E-002     2.0435828849568888E-027
   1.6800000000000002E-002    -3.0151708119340001E-024
   1.7100000000000004E-002     7.2119596645389463E-024
   1.7400000000000006E-002    -8.5826092443389941E-024
   1.7700000000000000E-002    -3.9876681390050139E-025
   1.8000000000000002E-002     2.5869098352009773E-023
   1.8300000000000004E-002    -5.9001830120085086E-023
   1.8600000000000005E-002     5.9938730288284706E-023
   1.8900000000000000E-002     3.3794047141085607E-023
   1.9200000000000002E-002    -2.3816921287758986E-022
   1.9500000000000003E-002     4.0689769422966396E-022
   1.9799999999999998E-002    -2.0499646415987652E-022
   2.0100000000000000E-002    -6.2169709868849546E-022
   2.0400000000000001E-002     1.6906169686008486E-021
   2.0700000000000003E-002    -1.6927891527485388E-021
   2.0999999999999998E-002    -7.5499259656957520E-022
   2.1299999999999999E-002     5.0459388903220372E-021
   2.1600000000000001E-002    -7.1795936194083025E-021
   2.1900000000000003E-002     1.9404070929806137E-021
   2.2200000000000004E-002     1.0973057083478158E-020
   2.2500000000000006E-002    -2.1973380998843907E-020
   2.2800000000000001E-002     1.5302161881469060E-020
   2.3100000000000002E-002     1.7017238664806138E-020
   2.3400000000000004E-002    -5.9540541080186422E-020
   2.3699999999999999E-002     6.7706480811385352E-020
   2.4000000000000000E-002     1.8416378842556619E-020
   2.4300000000000002E-002    -2.1929760883249957E-019
   2.4599999999999997E-002     3.8903411171242355E-019
   2.4900000000000005E-002    -9.3651682040133749E-020
   2.5200000000000000E-002    -1.1467669970731689E-018
   2.5499999999999995E-002     2.8623363712777563E-018
   2.5800000000000003E-002    -2.4146510945607436E-018
   2.6099999999999998E-002    -4.6222212694370265E-018
   2.6400000000000007E-002     2.0370930171307707E-017
   2.6700000000000002E-002    -3.2726519667639147E-017
   2.6999999999999996E-002    -7.2031079458931805E-018
   2.7300000000000005E-002     1.6769706189146252E-016
   2.7600000000000000E-002    -3.3477008260958984E-016
   2.7900000000000008E-002    -4.8304479496670601E-017
   2.8200000000000003E-002     1.3063915122524054E-015
   2.8499999999999998E-002    -1.7555202083208912E-015
   2.8800000000000006E-002    -6.0456668229345618E-016
   2.9100000000000001E-002     1.6859139324938077E-015
   2.9400000000000003E-002    -2.6158209899997119E-015
   2.9700000000000004E-002     3.6336534644733423E-014
   3.0000000000000006E-002    -6.6558265374495445E-014
   3.0300000000000001E-002    -2.2783540824112101E-013
   3.0600000000000002E-002     8.6443680090130019E-013
   3.0900000000000004E-002     1.7359730894709170E-013
   3.1199999999999999E-002    -5.0123540374413344E-012
   3.1500000000000007E-002     6.0995396655959552E-012
   3.1800000000000002E-002     1.1786494536474265E-011
   3.2099999999999997E-002    -3.2197884973092839E-011
   3.2400000000000005E-002     3.0235227151463240E-013
   3.2700000000000000E-002     4.0286206132091197E-011
   3.3000000000000002E-002     7.3136406033866195E-011
   3.3300000000000003E-002    -5.8296282993799145E-011
   3.3599999999999998E-002    -9.6670185144594454E-010
   3.3900000000000000E-002     1.9669351095534049E-009
   3.4200000000000001E-002     2.2091842529332818E-009
   3.4500000000000003E-002    -1.2290816207789201E-008
   3.4799999999999998E-002     9.0282551679140695E-009
   3.5099999999999999E-002     2.9770241536562095E-008
   3.5400000000000001E-002    -6.9003839578200782E-008
   3.5699999999999996E-002    -2.7876301306826049E-009
   3.6000000000000004E-002     1.8433438133112330E-007
   3.6299999999999999E-002    -5.8393122730621958E-008
   3.6600000000000008E-002     1.3524489887322318E-006
   3.6900000000000002E-002     8.7808872365178674E-006
   3.7199999999999997E-002     2.4859863220487590E-005
   3.7500000000000006E-002     4.9291840438021483E-005
   3.7800000000000000E-002     7.5396175437427519E-005
   3.8100000000000009E-002     9.7902129716772858E-005
   3.8400000000000004E-002     1.3322364589322472E-004
   3.8699999999999998E-002     2.0622894861924620E-004
   3.9000000000000007E-002     3.2310628722560081E-004
   3.9300000000000002E-002     4.8537491290120277E-004
   3.9600000000000003E-002     7.0935971838393080E-004
   3.9900000000000005E-002     1.0275084784705786E-003
   4.0200000000000000E-002     1.4839951905407864E-003
   4.0500000000000001E-002     2.1128443992793960E-003
   4.0800000000000003E-002     2.9416849858425842E-003
   4.1100000000000005E-002     4.0253733624126100E-003
   4.1399999999999999E-002     5.4264605829560620E-003
   4.1700000000000008E-002     7.1797132011053189E-003
   4.2000000000000003E-002     9.3040386355664577E-003
   4.2299999999999997E-002     1.1800167505662018E-002
   4.2600000000000006E-002     1.4629686160609612E-002
   4.2900000000000001E-002     1.7706046964211897E-002
   4.3200000000000002E-002     2.0866649860334298E-002
   4.3500000000000004E-002     2.3842116130321531E-002
   4.3799999999999999E-002     2.6235635991249687E-002
   4.4100000000000000E-002     2.7511337579647188E-002
   4.4400000000000002E-002     2.7036397381051992E-002
   4.4700000000000004E-002     2.4105598187453475E-002
   4.4999999999999998E-002     1.7906708896543725E-002
   4.5300000000000000E-002     7.5687712658320562E-003
   4.5600000000000002E-002    -7.6658760932205583E-003
   4.5899999999999996E-002    -2.8332391448960593E-002
   4.6200000000000005E-002    -5.4676334903811907E-002
   4.6500000000000000E-002    -8.6487498203028076E-002
   4.6799999999999994E-002   -0.12293499269898783     
   4.7100000000000003E-002   -0.16248627632172899     
   4.7399999999999998E-002   -0.20282733614014387     
   4.7700000000000006E-002   -0.24085594641077457     
   4.8000000000000001E-002   -0.27279641399200494     
   4.8300000000000010E-002   -0.29436659767830109     
   4.8600000000000004E-002   -0.30104560285373638     
   4.8899999999999999E-002   -0.28852068856853458     
   4.9200000000000008E-002   -0.25316425493180622     
   4.9500000000000002E-002   -0.19247964785495714     
   4.9800000000000011E-002   -0.10558698339330208     
   5.0100000000000006E-002     6.3444790166868534E-003
   5.0400000000000000E-002    0.13983810005592845     
   5.0700000000000009E-002    0.28908809345328645     
   5.1000000000000004E-002    0.44613010815935628     
   5.1299999999999998E-002    0.60122153901964259     
   5.1600000000000007E-002    0.74350315385878973     
   5.1900000000000002E-002    0.86188719321700225     
   5.2200000000000010E-002    0.94600242397937184     
   5.2500000000000005E-002    0.98721242617041804     
   5.2800000000000000E-002    0.97949980482139476     
   5.3099999999999994E-002    0.92018853717484150     
   5.3400000000000003E-002    0.81036577376483665     
   5.3699999999999998E-002    0.65497484527252570     
   5.4000000000000006E-002    0.46256095898918648     
   5.4300000000000001E-002    0.24452902015543593     
   5.4599999999999996E-002     1.4285124832786537E-002
   5.4900000000000004E-002   -0.21390093832607743     
   5.5199999999999999E-002   -0.42617437037589201     
   5.5499999999999994E-002   -0.61024250824894355     
   5.5800000000000002E-002   -0.75640964880600392     
   5.6099999999999997E-002   -0.85837983244375105     
   5.6400000000000006E-002   -0.91352452840011322     
   5.6700000000000000E-002   -0.92306796332778296     
   5.6999999999999995E-002   -0.89176342593323810     
   5.7300000000000004E-002   -0.82736299127209745     
   5.7599999999999998E-002   -0.73967383803684128     
   5.7900000000000007E-002   -0.63962946638752338     
   5.8200000000000002E-002   -0.53837321573605024     
   5.8499999999999996E-002   -0.44617559561837217     
   5.8800000000000005E-002   -0.37171382773953066     
   5.9100000000000000E-002   -0.32120316865430593     
   5.9400000000000008E-002   -0.29804679556856717     
   5.9700000000000003E-002   -0.30256986565239763     
   6.0000000000000012E-002   -0.33195846032623660     
   6.0300000000000006E-002   -0.38053281599487415     
   6.0600000000000001E-002   -0.44003308542582309     
   6.0900000000000010E-002   -0.50035183890851687     
   6.1200000000000004E-002   -0.55022172567797334     
   6.1500000000000013E-002   -0.57813035078030350     
   6.1800000000000008E-002   -0.57330713485252272     
   6.2100000000000002E-002   -0.52653731730618547     
   6.2399999999999997E-002   -0.43121941457602636     
   6.2700000000000006E-002   -0.28418585895263254     
   6.3000000000000000E-002    -8.6118107888558171E-002
   6.3300000000000009E-002    0.15814739748357623     
   6.3600000000000004E-002    0.43941331570872461     
   6.3899999999999998E-002    0.74476885324140851     
   6.4199999999999993E-002     1.0580988885345421     
   6.4500000000000002E-002     1.3610991089977167     
   6.4800000000000010E-002     1.6347165107174868     
   6.5100000000000005E-002     1.8602309711734741     
   6.5400000000000000E-002     2.0206794855280044     
   6.5700000000000008E-002     2.1021996294873992     
   6.5999999999999989E-002     2.0950700469985515     
   6.6299999999999998E-002     1.9942426337746659     
   6.6600000000000006E-002     1.8001067274548279     
   6.6900000000000001E-002     1.5181278314163935     
   6.7199999999999996E-002     1.1585863916395402     
   6.7500000000000004E-002    0.73621044527722901     
   6.7800000000000013E-002    0.26880818744967627     
   6.8099999999999994E-002   -0.22342622793308373     
   6.8400000000000002E-002   -0.71885526731565230     
   6.8700000000000011E-002    -1.1961765991731392     
   6.8999999999999992E-002    -1.6348805000767153     
   6.9300000000000000E-002    -2.0158892273146929     
   6.9600000000000009E-002    -2.3229187634973361     
   6.9900000000000004E-002    -2.5430617208806718     
   7.0199999999999999E-002    -2.6666729544069279     
   7.0500000000000007E-002    -2.6883235906951359     
   7.0800000000000016E-002    -2.6067435142415980     
   7.1099999999999997E-002    -2.4249312737025051     
   7.1400000000000005E-002    -2.1502004773656500     
   7.1700000000000000E-002    -1.7939011901237674     
   7.1999999999999995E-002    -1.3711263641146083     
   7.2300000000000003E-002   -0.90004564708891621     
   7.2600000000000012E-002   -0.40103771146144507     
   7.2900000000000006E-002    0.10409432785677265     
   7.3200000000000001E-002    0.59295897428434197     
   7.3499999999999996E-002     1.0445208126134362     
   7.3800000000000004E-002     1.4394020377750711     
   7.4099999999999999E-002     1.7611862831624265     
   7.4400000000000008E-002     1.9977372140166980     
   7.4700000000000003E-002     2.1411108253864146     
   7.5000000000000011E-002     2.1881795132117574     
   7.5299999999999992E-002     2.1409157597125343     
   7.5600000000000001E-002     2.0056605164661576     
   7.5900000000000009E-002     1.7926788183102791     
   7.6200000000000004E-002     1.5159561346449260     
   7.6499999999999999E-002     1.1913809985941217     
   7.6800000000000007E-002    0.83671911932813525     
   7.7099999999999988E-002    0.47054814554356816     
   7.7399999999999997E-002    0.11108503608759768     
   7.7700000000000005E-002   -0.22400779862976986     
   7.8000000000000014E-002   -0.51879975612723861     
   7.8299999999999995E-002   -0.75937512610533742     
   7.8600000000000003E-002   -0.93426378535694377     
   7.8900000000000012E-002    -1.0352099925599063     
   7.9199999999999993E-002    -1.0576523558928790     
   7.9500000000000001E-002    -1.0009506757090385     
   7.9800000000000010E-002   -0.86877166899499869     
   8.0100000000000018E-002   -0.66934358908506497     
   8.0399999999999999E-002   -0.41495353703449767     
   8.0700000000000008E-002   -0.12183007899334999     
   8.1000000000000003E-002    0.19031054329961278     
   8.1299999999999997E-002    0.49999127900727847     
   8.1600000000000006E-002    0.78497784495754530     
   8.1900000000000014E-002     1.0237258039216819     
   8.2199999999999995E-002     1.1972367788501823     
   8.2500000000000004E-002     1.2906745771276820     
   8.2799999999999999E-002     1.2943570632683481     
   8.3100000000000007E-002     1.2051464884019860     
   8.3400000000000002E-002     1.0267863274175761     
   8.3700000000000011E-002    0.76967195204065431     
   8.4000000000000005E-002    0.45037058864926527     
   8.4300000000000000E-002     9.0376140408361783E-002
   8.4599999999999995E-002   -0.28561754035927867     
   8.4900000000000003E-002   -0.65152081532032358     
   8.5199999999999998E-002   -0.98175111002606297     
   8.5500000000000007E-002    -1.2537032834289945     
   8.5800000000000001E-002    -1.4487712637356389     
   8.6100000000000010E-002    -1.5543663565304087     
   8.6399999999999991E-002    -1.5644808326985109     
   8.6699999999999999E-002    -1.4800823252993520     
   8.7000000000000008E-002    -1.3090506373781943     
   8.7300000000000003E-002    -1.0653375431957564     
   8.7599999999999997E-002   -0.76793204442939866     
   8.7900000000000006E-002   -0.43958002832039567     
   8.8200000000000014E-002   -0.10492567154962548     
   8.8499999999999995E-002    0.21117133129983251     
   8.8800000000000004E-002    0.48510486068928105     
   8.9100000000000013E-002    0.69685112410217231     
   8.9399999999999993E-002    0.83032063751827867     
   8.9700000000000002E-002    0.87525979409416177     
   9.0000000000000011E-002    0.82759350809345444     
   9.0299999999999991E-002    0.68972306835722974     
   9.0600000000000000E-002    0.47058131829941041     
   9.0900000000000009E-002    0.18507558628457288     
   9.1200000000000017E-002   -0.14725323136393914     
   9.1499999999999998E-002   -0.50309668117267037     
   9.1800000000000007E-002   -0.85741809583475237     
   9.2100000000000001E-002    -1.1846482296657941     
   9.2399999999999996E-002    -1.4611304773127738     
   9.2700000000000005E-002    -1.6670083019985582     
   9.3000000000000013E-002    -1.7868730788227551     
   9.3300000000000008E-002    -1.8119881576704331     
   9.3600000000000003E-002    -1.7405267011702397     
   9.3899999999999997E-002    -1.5774022103046628     
   9.4200000000000006E-002    -1.3344616801414277     
   9.4500000000000001E-002    -1.0291003014688316     
   9.4800000000000009E-002   -0.68236490346425460     
   9.5100000000000004E-002   -0.31784425154921137     
   9.5399999999999999E-002     4.1330630635909152E-002
   9.5699999999999993E-002    0.37413540883340146     
   9.6000000000000002E-002    0.66335787128111956     
   9.6300000000000011E-002    0.89730147163544638     
   9.6600000000000005E-002     1.0708843662939231     
   9.6900000000000000E-002     1.1851095971107812     
   9.7200000000000009E-002     1.2469871310654963     
   9.7499999999999989E-002     1.2686199303507060     
   9.7799999999999998E-002     1.2643957258347069     
   9.8100000000000007E-002     1.2505157744080384     
   9.8400000000000015E-002     1.2419014479651129     
   9.8699999999999996E-002     1.2505348419972102     
   9.9000000000000005E-002     1.2836696190143999     
   9.9300000000000013E-002     1.3433342148710168     
   9.9599999999999994E-002     1.4257541859660414     
   9.9900000000000003E-002     1.5213639020813505     
  0.10020000000000001          1.6167669620578997     
  0.10049999999999999          1.6946672534468883     
  0.10080000000000000          1.7367889941813950     
  0.10110000000000001          1.7258799658437849     
  0.10140000000000000          1.6469503435909765     
  0.10170000000000000          1.4894478297275131     
  0.10200000000000001          1.2477837356783796     
  0.10230000000000002         0.92282166385705100     
  0.10260000000000000         0.52192278838307860     
  0.10290000000000001          5.8459395368348016E-002
  0.10320000000000000        -0.44845513263432613     
  0.10350000000000001        -0.97591528916273962     
  0.10380000000000000         -1.4975692482920679     
  0.10410000000000001         -1.9851371447549737     
  0.10440000000000001         -2.4106189524581811     
  0.10470000000000000         -2.7471760319552256     
  0.10500000000000000         -2.9712435323003019     
  0.10530000000000000         -3.0627160786611949     
  0.10560000000000000         -3.0073397664048489     
  0.10590000000000001         -2.7966828386301095     
  0.10620000000000000         -2.4295476907032101     
  0.10650000000000001         -1.9123695569844910     
  0.10679999999999999         -1.2589525244150921     
  0.10710000000000000        -0.49091930819871576     
  0.10740000000000001         0.36354550689634213     
  0.10770000000000000          1.2695463246650696     
  0.10800000000000000          2.1882007392018448     
  0.10830000000000001          3.0768597404692342     
  0.10859999999999999          3.8923641493198886     
  0.10890000000000000          4.5930896901026470     
  0.10920000000000001          5.1401607501320594     
  0.10950000000000001          5.5017763243272348     
  0.10979999999999999          5.6529400552815146     
  0.11009999999999999          5.5788127252835293     
  0.11040000000000001          5.2754993951182403     
  0.11070000000000001          4.7503235605408936     
  0.11100000000000000          4.0215918437910467     
  0.11130000000000000          3.1177844340164835     
  0.11160000000000002          2.0767181463153177     
  0.11190000000000001         0.94299062411491308     
  0.11220000000000001        -0.23442008532250724     
  0.11250000000000000         -1.4049223316902417     
  0.11280000000000000         -2.5187386496188049     
  0.11309999999999999         -3.5293467595349002     
  0.11340000000000001         -4.3966763738393349     
  0.11369999999999998         -5.0886497037248128     
  0.11400000000000000         -5.5826433991090303     
  0.11430000000000000         -5.8668114374615170     
  0.11460000000000002         -5.9401263721793622     
  0.11489999999999999         -5.8126424820564759     
  0.11520000000000001         -5.5048157759749810     
  0.11550000000000001         -5.0456965955714885     
  0.11580000000000000         -4.4718415991362139     
  0.11609999999999999         -3.8244811133142802     
  0.11640000000000002         -3.1478261849502349     
  0.11670000000000001         -2.4861453356823304     
  0.11700000000000001         -1.8812493422460865     
  0.11730000000000000         -1.3692381129437980     
  0.11760000000000000        -0.97879253676578593     
  0.11789999999999999        -0.72883195104483711     
  0.11820000000000001        -0.62718804025965380     
  0.11850000000000001        -0.66916602520074231     
  0.11880000000000000        -0.83799130781688058     
  0.11910000000000000         -1.1050523039582871     
  0.11940000000000002         -1.4309504730617126     
  0.11970000000000001         -1.7692168594009585     
  0.12000000000000001         -2.0681196629799370     
  0.12030000000000000         -2.2747457301242990     
  0.12060000000000000         -2.3388923814107399     
  0.12089999999999999         -2.2173387930384023     
  0.12119999999999999         -1.8776135516070243     
  0.12150000000000001         -1.3018767318113882     
  0.12180000000000001        -0.48893308047772877     
  0.12210000000000000         0.54447697708310550     
  0.12239999999999999          1.7633719313076992     
  0.12270000000000002          3.1150448684372529     
  0.12300000000000001          4.5321572848686742     
  0.12330000000000001          5.9370308885545011     
  0.12360000000000000          7.2463878169274452     
  0.12390000000000000          8.3770635022262478     
  0.12419999999999999          9.2506849566744940     
  0.12450000000000001          9.8008360187821335     
  0.12480000000000001          9.9770381484087949     
  0.12509999999999999          9.7496995891236828     
  0.12540000000000001          9.1113934824533480     
  0.12570000000000003          8.0786027949380177     
  0.12600000000000000          6.6907233690836403     
  0.12630000000000002          5.0078252441471802     
  0.12659999999999999          3.1073804436921408     
  0.12690000000000001          1.0783955715269475     
  0.12719999999999998        -0.98381245377316207     
  0.12750000000000000         -2.9824560948140979     
  0.12780000000000002         -4.8255234884487130     
  0.12809999999999999         -6.4314397359725355     
  0.12840000000000001         -7.7327045105483627     
  0.12869999999999998         -8.6794986015360767     
  0.12900000000000000         -9.2405598141358158     
  0.12930000000000003         -9.4054134863416383     
  0.12959999999999999         -9.1838812230999807     
  0.12990000000000002         -8.6045229414864401     
  0.13019999999999998         -7.7119110742637158     
  0.13050000000000000         -6.5642456213465490     
  0.13080000000000003         -5.2307746736525544     
  0.13109999999999999         -3.7865558383343636     
  0.13140000000000002         -2.3107632294436802     
  0.13169999999999998        -0.87988521641815631     
  0.13200000000000001         0.43420944896831892     
  0.13229999999999997          1.5675165572022056     
  0.13260000000000000          2.4691550626359815     
  0.13290000000000002          3.1018936631805132     
  0.13319999999999999          3.4461142799659745     
  0.13350000000000001          3.5002573870371996     
  0.13380000000000003          3.2807280742233713     
  0.13410000000000000          2.8221458636373051     
  0.13440000000000002          2.1748572127146431     
  0.13469999999999999          1.4017094942459623     
  0.13500000000000001         0.57519124409211120     
  0.13529999999999998        -0.22816957020714845     
  0.13560000000000000        -0.93311737017524821     
  0.13590000000000002         -1.4707231968074264     
  0.13619999999999999         -1.7842624408316625     
  0.13650000000000001         -1.8337730033423829     
  0.13680000000000003         -1.6004986030377584     
  0.13710000000000000         -1.0889523269756376     
  0.13740000000000002        -0.32819712301063608     
  0.13769999999999999         0.62934241875555919     
  0.13800000000000001          1.7112964159851689     
  0.13829999999999998          2.8303476216694312     
  0.13860000000000000          3.8907282248549606     
  0.13890000000000002          4.7975157230678338     
  0.13919999999999999          5.4655626523640111     
  0.13950000000000001          5.8286394822889580     
  0.13979999999999998          5.8462560338565197     
  0.14010000000000000          5.5104446097892428     
  0.14040000000000002          4.8491258293776180     
  0.14069999999999999          3.9258959946882879     
  0.14100000000000001          2.8358065368289584     
  0.14130000000000004          1.6977916383131553     
  0.14160000000000000         0.64174682991996557     
  0.14189999999999997        -0.20177268350204480     
  0.14219999999999999        -0.71730032370634922     
  0.14250000000000002        -0.81937057922136924     
  0.14279999999999998        -0.46449854094038467     
  0.14310000000000000         0.33975339114925507     
  0.14339999999999997          1.5317603121970371     
  0.14369999999999999          2.9958472277134622     
  0.14400000000000002          4.5700318549795282     
  0.14429999999999998          6.0584955735679733     
  0.14460000000000001          7.2487882533834878     
  0.14490000000000003          7.9329004599427613     
  0.14520000000000000          7.9285430904145322     
  0.14550000000000002          7.1007282168663961     
  0.14579999999999999          5.3792049918279039     
  0.14610000000000001          2.7708689336594801     
  0.14640000000000003        -0.63240481212725586     
  0.14670000000000000         -4.6581910722191502     
  0.14699999999999996         -9.0605405840512212     
  0.14729999999999999         -13.538081200020988     
  0.14760000000000001         -17.756953553129087     
  0.14789999999999998         -21.379255285908155     
  0.14820000000000000         -24.090624271854544     