  -1.4999999999999999E-002     0.0000000000000000     
  -1.4700000000000000E-002     0.0000000000000000     
  -1.4400000000000000E-002     0.0000000000000000     
  -1.4100000000000000E-002     0.0000000000000000     
  -1.3800000000000000E-002     0.0000000000000000     
  -1.3500000000000000E-002     0.0000000000000000     
  -1.3200000000000000E-002     0.0000000000000000     
  -1.2899999999999998E-002     0.0000000000000000     
  -1.2600000000000000E-002     0.0000000000000000     
  -1.2299999999999998E-002     0.0000000000000000     
  -1.2000000000000000E-002     0.0000000000000000     
  -1.1699999999999999E-002     0.0000000000000000     
  -1.1399999999999999E-002     0.0000000000000000     
  -1.1099999999999999E-002     0.0000000000000000     
  -1.0799999999999999E-002     0.0000000000000000     
  -1.0499999999999999E-002     0.0000000000000000     
  -1.0199999999999999E-002     0.0000000000000000     
  -9.8999999999999991E-003     0.0000000000000000     
  -9.5999999999999992E-003     0.0000000000000000     
  -9.2999999999999992E-003     0.0000000000000000     
  -8.9999999999999993E-003     0.0000000000000000     
  -8.6999999999999994E-003     0.0000000000000000     
  -8.3999999999999995E-003     0.0000000000000000     
  -8.0999999999999996E-003     0.0000000000000000     
  -7.7999999999999988E-003     0.0000000000000000     
  -7.4999999999999997E-003     0.0000000000000000     
  -7.1999999999999998E-003     0.0000000000000000     
  -6.8999999999999981E-003     0.0000000000000000     
  -6.5999999999999982E-003     0.0000000000000000     
  -6.3000000000000000E-003     0.0000000000000000     
  -6.0000000000000001E-003     0.0000000000000000     
  -5.6999999999999985E-003     0.0000000000000000     
  -5.3999999999999986E-003     0.0000000000000000     
  -5.1000000000000004E-003     0.0000000000000000     
  -4.7999999999999987E-003     0.0000000000000000     
  -4.5000000000000005E-003     0.0000000000000000     
  -4.1999999999999989E-003     0.0000000000000000     
  -3.8999999999999990E-003     0.0000000000000000     
  -3.5999999999999990E-003     0.0000000000000000     
  -3.2999999999999991E-003     0.0000000000000000     
  -2.9999999999999992E-003     0.0000000000000000     
  -2.6999999999999993E-003     0.0000000000000000     
  -2.3999999999999994E-003     0.0000000000000000     
  -2.0999999999999977E-003     0.0000000000000000     
  -1.7999999999999995E-003     0.0000000000000000     
  -1.4999999999999979E-003     0.0000000000000000     
  -1.1999999999999997E-003     0.0000000000000000     
  -8.9999999999999976E-004     0.0000000000000000     
  -5.9999999999999810E-004     0.0000000000000000     
  -2.9999999999999992E-004     0.0000000000000000     
   0.0000000000000000          0.0000000000000000     
   3.0000000000000165E-004     0.0000000000000000     
   5.9999999999999984E-004     0.0000000000000000     
   9.0000000000000149E-004     3.2472881305624431E-073
   1.2000000000000031E-003    -3.8142966144614316E-065
   1.5000000000000013E-003    -1.9532520836984116E-063
   1.8000000000000030E-003     1.3378632323175935E-062
   2.1000000000000012E-003    -2.1784542089693768E-036
   2.3999999999999994E-003    -1.1737929679548349E-034
   2.7000000000000010E-003     3.2091466357070733E-034
   2.9999999999999992E-003    -1.6237636975567646E-033
   3.3000000000000008E-003     4.5973580061376639E-033
   3.6000000000000025E-003    -7.5890170695712413E-033
   3.9000000000000007E-003    -2.7941499149639523E-034
   4.2000000000000023E-003     3.5765400993748720E-032
   4.5000000000000005E-003    -9.6168743584301407E-032
   4.7999999999999987E-003     1.0075583306781211E-031
   5.1000000000000004E-003     1.5203564436160996E-031
   5.4000000000000020E-003    -8.1256591995453709E-031
   5.7000000000000037E-003     1.4038548896203992E-030
   5.9999999999999984E-003    -2.2487164052940619E-031
   6.3000000000000000E-003    -4.6895563973419880E-030
   6.6000000000000017E-003     1.1292335419731061E-029
   6.9000000000000034E-003    -8.3237683606845850E-030
   7.2000000000000015E-003    -1.9939114563293554E-029
   7.5000000000000032E-003     6.7335852052241128E-029
   7.8000000000000014E-003    -7.3341331939910939E-029
   8.0999999999999996E-003    -5.2931174449223073E-029
   8.4000000000000012E-003     2.9956925588143073E-028
   8.7000000000000029E-003    -4.1214562237556507E-028
   9.0000000000000011E-003     3.8707707367229155E-029
   9.2999999999999992E-003     7.3929114808531346E-028
   9.6000000000000009E-003    -1.1513628938183925E-027
   9.8999999999999991E-003     7.8662200243792473E-028
   1.0200000000000001E-002    -1.2283620179330493E-027
   1.0500000000000002E-002     4.4479923934614720E-027
   1.0800000000000004E-002    -5.4631723649206866E-027
   1.1099999999999999E-002    -1.2613367738407202E-026
   1.1400000000000000E-002     6.2849049530390141E-026
   1.1700000000000002E-002    -1.1405465636890474E-025
   1.2000000000000004E-002     6.4381561868012979E-026
   1.2300000000000002E-002     2.0906457562532471E-025
   1.2600000000000000E-002    -7.1203793172123267E-025
   1.2900000000000002E-002     1.1698815174459765E-024
   1.3200000000000000E-002    -9.0109405301217332E-025
   1.3500000000000002E-002    -1.1878276822350364E-024
   1.3800000000000003E-002     6.0313154899052279E-024
   1.4100000000000001E-002    -1.2332972260387567E-023
   1.4400000000000000E-002     1.3103253463021166E-023
   1.4700000000000001E-002     5.1690993871322796E-024
   1.4999999999999999E-002    -5.2876582444076510E-023
   1.5300000000000001E-002     1.1384532664386636E-022
   1.5600000000000003E-002    -1.2215862334395935E-022
   1.5899999999999997E-002    -2.7117962860334523E-023
   1.6199999999999999E-002     3.9990801002807276E-022
   1.6500000000000001E-002    -8.7597752868448376E-022
   1.6800000000000002E-002     9.9259959438586875E-022
   1.7100000000000004E-002     5.0864346611699540E-023
   1.7400000000000006E-002    -2.8929275057049308E-021
   1.7700000000000000E-002     6.6869280469300009E-021
   1.8000000000000002E-002    -7.4259860494145112E-021
   1.8300000000000004E-002    -1.6754782555614596E-021
   1.8600000000000005E-002     2.3959655346778301E-020
   1.8900000000000000E-002    -4.7147940128951161E-020
   1.9200000000000002E-002     3.6566575440662827E-020
   1.9500000000000003E-002     4.4286670157356017E-020
   1.9799999999999998E-002    -1.7699916327805091E-019
   2.0100000000000000E-002     2.3724530940209513E-019
   2.0400000000000001E-002    -4.2982856347324994E-020
   2.0700000000000003E-002    -4.4422605136049853E-019
   2.0999999999999998E-002     8.9174769517669702E-019
   2.1299999999999999E-002    -6.5734721235890449E-019
   2.1600000000000001E-002    -6.4618111513440060E-019
   2.1900000000000003E-002     2.3865702756711990E-018
   2.2200000000000004E-002    -2.7853137989658717E-018
   2.2500000000000006E-002     9.6428721932088442E-020
   2.2800000000000001E-002     5.2804056452904290E-018
   2.3100000000000002E-002    -9.1444691512380314E-018
   2.3400000000000004E-002     3.9384820505420268E-018
   2.3699999999999999E-002     1.6339897834490398E-017
   2.4000000000000000E-002    -4.2596510593755670E-017
   2.4300000000000002E-002     3.1447472853240774E-017
   2.4599999999999997E-002     8.3514491635538060E-017
   2.4900000000000005E-002    -2.8700260378778043E-016
   2.5200000000000000E-002     3.2568126993954216E-016
   2.5499999999999995E-002     2.2384021191524435E-016
   2.5800000000000003E-002    -1.4902032499413912E-015
   2.6099999999999998E-002     2.8491656102920486E-015
   2.6400000000000007E-002    -2.3062517697807062E-015
   2.6700000000000002E-002    -5.2386472211765140E-015
   2.6999999999999996E-002     2.3163485756976857E-014
   2.7300000000000005E-002    -2.6424236882932802E-014
   2.7600000000000000E-002    -4.1042536021354400E-014
   2.7900000000000008E-002     1.2323681837130710E-013
   2.8200000000000003E-002     3.0443183191572197E-014
   2.8499999999999998E-002    -1.9962020604959644E-013
   2.8800000000000006E-002    -7.0141689368807775E-013
   2.9100000000000001E-002     1.0454875342995542E-012
   2.9400000000000003E-002     5.7486067110260855E-012
   2.9700000000000004E-002    -1.1522115772763107E-011
   3.0000000000000006E-002    -2.4692181534674936E-011
   3.0300000000000001E-002     8.2646958637323374E-011
   3.0600000000000002E-002     5.2060389594010887E-011
   3.0900000000000004E-002    -4.3914780185049485E-010
   3.1199999999999999E-002     2.3554389819246581E-010
   3.1500000000000007E-002     1.4362913949274076E-009
   3.1800000000000002E-002    -2.4517041933349023E-009
   3.2099999999999997E-002    -1.4042403568918842E-009
   3.2400000000000005E-002     8.0386292836064343E-009
   3.2700000000000000E-002    -7.1791823390351183E-009
   3.3000000000000002E-002    -6.5208957796296740E-009
   3.3300000000000003E-002     2.5803796774523005E-008
   3.3599999999999998E-002    -3.8222532139212201E-008
   3.3900000000000000E-002    -3.2952227599862419E-008
   3.4200000000000001E-002     2.1426358325026935E-007
   3.4500000000000003E-002     8.4393522461601240E-007
   3.4799999999999998E-002     3.4863683603310973E-006
   3.5099999999999999E-002     9.6465951694814839E-006
   3.5400000000000001E-002     1.8337597656963782E-005
   3.5699999999999996E-002     2.8656948000276497E-005
   3.6000000000000004E-002     4.1086684882391386E-005
   3.6299999999999999E-002     5.7613000763202847E-005
   3.6600000000000008E-002     8.3979000155018376E-005
   3.6900000000000002E-002     1.2815899219904776E-004
   3.7199999999999997E-002     1.9770325034060919E-004
   3.7500000000000006E-002     2.9993196880466700E-004
   3.7800000000000000E-002     4.4322374655976916E-004
   3.8100000000000009E-002     6.4422021268879185E-004
   3.8400000000000004E-002     9.2996488131987041E-004
   3.8699999999999998E-002     1.3207173944160564E-003
   3.9000000000000007E-002     1.8339193269388411E-003
   3.9300000000000002E-002     2.5098933984372403E-003
   3.9600000000000003E-002     3.3894016214769456E-003
   3.9900000000000005E-002     4.4935336786719078E-003
   4.0200000000000000E-002     5.8615078000805142E-003
   4.0500000000000001E-002     7.5470121763410308E-003
   4.0800000000000003E-002     9.5717014541387285E-003
   4.1100000000000005E-002     1.1930844983482713E-002
   4.1399999999999999E-002     1.4609628690191268E-002
   4.1700000000000008E-002     1.7565537702377752E-002
   4.2000000000000003E-002     2.0734964550864373E-002
   4.2299999999999997E-002     2.4039708876545135E-002
   4.2600000000000006E-002     2.7354194871837101E-002
   4.2900000000000001E-002     3.0498286122261624E-002
   4.3200000000000002E-002     3.3274991131385004E-002
   4.3500000000000004E-002     3.5507453591460028E-002
   4.3799999999999999E-002     3.7035784031803985E-002
   4.4100000000000000E-002     3.7703017326281008E-002
   4.4400000000000002E-002     3.7367327915223798E-002
   4.4700000000000004E-002     3.5962245409318555E-002
   4.4999999999999998E-002     3.3473501917949233E-002
   4.5300000000000000E-002     2.9907594303157398E-002
   4.5600000000000002E-002     2.5280775967177743E-002
   4.5899999999999996E-002     1.9591344420722429E-002
   4.6200000000000005E-002     1.2728082022357578E-002
   4.6500000000000000E-002     4.4249685662881670E-003
   4.6799999999999994E-002    -5.7823491936577600E-003
   4.7100000000000003E-002    -1.8620207395855185E-002
   4.7399999999999998E-002    -3.5108277100472304E-002
   4.7700000000000006E-002    -5.6490797310188842E-002
   4.8000000000000001E-002    -8.4199966982760097E-002
   4.8300000000000010E-002   -0.11966125347449624     
   4.8600000000000004E-002   -0.16414394877454763     
   4.8899999999999999E-002   -0.21845391503457223     
   4.9200000000000008E-002   -0.28270538444483845     
   4.9500000000000002E-002   -0.35601921819906213     
   4.9800000000000011E-002   -0.43629997021281974     
   5.0100000000000006E-002   -0.52012260849131065     
   5.0400000000000000E-002   -0.60268594903630290     
   5.0700000000000009E-002   -0.67797805869162264     
   5.1000000000000004E-002   -0.73903628045827729     
   5.1299999999999998E-002   -0.77855475379486305     
   5.1600000000000007E-002   -0.78933806561244213     
   5.1900000000000002E-002   -0.76507533574830577     
   5.2200000000000010E-002   -0.70108050670143041     
   5.2500000000000005E-002   -0.59487718440004489     
   5.2800000000000000E-002   -0.44681146330260574     
   5.3099999999999994E-002   -0.26028286470530870     
   5.3400000000000003E-002    -4.2028475677254935E-002
   5.3699999999999998E-002    0.19838671897376581     
   5.4000000000000006E-002    0.44888302195951707     
   5.4300000000000001E-002    0.69576898163136391     
   5.4599999999999996E-002    0.92460355466222266     
   5.4900000000000004E-002     1.1214263793800123     
   5.5199999999999999E-002     1.2738641870064453     
   5.5499999999999994E-002     1.3719681874293623     
   5.5800000000000002E-002     1.4095398550899394     
   5.6099999999999997E-002     1.3841071470622361     
   5.6400000000000006E-002     1.2978682826450227     
   5.6700000000000000E-002     1.1569425133344979     
   5.6999999999999995E-002    0.97152068381636969     
   5.7300000000000004E-002    0.75462247535921778     
   5.7599999999999998E-002    0.52142925085485503     
   5.7900000000000007E-002    0.28804153642311142     
   5.8200000000000002E-002     7.0020719319377284E-002
   5.8499999999999996E-002   -0.11838962733500427     
   5.8800000000000005E-002   -0.26577473693891579     
   5.9100000000000000E-002   -0.36385865351716012     
   5.9400000000000008E-002   -0.40865768557428672     
   5.9700000000000003E-002   -0.39993931543406236     
   6.0000000000000012E-002   -0.34187232168211068     
   6.0300000000000006E-002   -0.24187471112219361     
   6.0600000000000001E-002   -0.11057566086993573     
   6.0900000000000010E-002     3.9691573621682089E-002
   6.1200000000000004E-002    0.19541179177755147     
   6.1500000000000013E-002    0.34334030115454844     
   6.1800000000000008E-002    0.47110879137073680     
   6.2100000000000002E-002    0.56823039124386876     
   6.2399999999999997E-002    0.62692344597019978     
   6.2700000000000006E-002    0.64224214085784892     
   6.3000000000000000E-002    0.61267329254291858     
   6.3300000000000009E-002    0.53947891017402216     
   6.3600000000000004E-002    0.42742501074452166     
   6.3899999999999998E-002    0.28321851759432293     
   6.4199999999999993E-002    0.11603451511269705     
   6.4500000000000002E-002    -6.4104333988828907E-002
   6.4800000000000010E-002   -0.24617830063504631     
   6.5100000000000005E-002   -0.41932775371900416     
   6.5400000000000000E-002   -0.57349287446723085     
   6.5700000000000008E-002   -0.69979738384875556     
   6.5999999999999989E-002   -0.79135691540661524     
   6.6299999999999998E-002   -0.84332114115918100     
   6.6600000000000006E-002   -0.85381889240081421     
   6.6900000000000001E-002   -0.82351833720515233     
   6.7199999999999996E-002   -0.75603199386875097     
   6.7500000000000004E-002   -0.65791249907210347     
   6.7800000000000013E-002   -0.53814936589514739     
   6.8099999999999994E-002   -0.40798727878034291     
   6.8400000000000002E-002   -0.27974925984139282     
   6.8700000000000011E-002   -0.16681103837953160     
   6.8999999999999992E-002    -8.1665330801840949E-002
   6.9300000000000000E-002    -3.5315862342829386E-002
   6.9600000000000009E-002    -3.6337483728797214E-002
   6.9900000000000004E-002    -8.9266950276344167E-002
   7.0199999999999999E-002   -0.19457797689807860     
   7.0500000000000007E-002   -0.34734608729151856     
   7.0800000000000016E-002   -0.53835212617536676     
   7.1099999999999997E-002   -0.75322949627453917     
   7.1400000000000005E-002   -0.97452491396129703     
   7.1700000000000000E-002    -1.1824961284265725     
   7.1999999999999995E-002    -1.3569049186303601     
   7.2300000000000003E-002    -1.4787939079118844     
   7.2600000000000012E-002    -1.5323576134188093     
   7.2900000000000006E-002    -1.5064969351847712     
   7.3200000000000001E-002    -1.3957276503306266     
   7.3499999999999996E-002    -1.2014383091476224     
   7.3800000000000004E-002   -0.93085365115292440     
   7.4099999999999999E-002   -0.59769335498450282     
   7.4400000000000008E-002   -0.21969263483309062     
   7.4700000000000003E-002    0.18147023975453397     
   7.5000000000000011E-002    0.58373934385504789     
   7.5299999999999992E-002    0.96473170239333028     
   7.5600000000000001E-002     1.3049137105542277     
   7.5900000000000009E-002     1.5879762857927546     
   7.6200000000000004E-002     1.8021220598176257     
   7.6499999999999999E-002     1.9407626932039908     
   7.6800000000000007E-002     2.0019395782405160     
   7.7099999999999988E-002     1.9888909166942237     
   7.7399999999999997E-002     1.9077061586997162     
   7.7700000000000005E-002     1.7683900638784797     
   7.8000000000000014E-002     1.5821087291058364     
   7.8299999999999995E-002     1.3618223505409159     
   7.8600000000000003E-002     1.1199671996678224     
   7.8900000000000012E-002    0.86938664716001635     
   7.9199999999999993E-002    0.62153217611367595     
   7.9500000000000001E-002    0.38711998620625115     
   7.9800000000000010E-002    0.17517886950857506     
   8.0100000000000018E-002    -6.6833586264351671E-003
   8.0399999999999999E-002   -0.15241376726468564     
   8.0700000000000008E-002   -0.25849129271496374     
   8.1000000000000003E-002   -0.32310441491694347     
   8.1299999999999997E-002   -0.34749018429453521     
   8.1600000000000006E-002   -0.33506874609839382     
   8.1900000000000014E-002   -0.29220474469306024     
   8.2199999999999995E-002   -0.22791774918664623     
   8.2500000000000004E-002   -0.15315786355499994     
   8.2799999999999999E-002    -8.0499149712300419E-002
   8.3100000000000007E-002    -2.3211630070103684E-002
   8.3400000000000002E-002     5.9630292891490596E-003
   8.3700000000000011E-002    -4.1100089190926250E-003
   8.4000000000000005E-002    -6.1704368818050005E-002
   8.4300000000000000E-002   -0.17147562024145124     
   8.4599999999999995E-002   -0.33303750085057693     
   8.4900000000000003E-002   -0.54158323380095397     
   8.5199999999999998E-002   -0.78662879323244317     
   8.5500000000000007E-002    -1.0537379627269627     
   8.5800000000000001E-002    -1.3244038568435632     
   8.6100000000000010E-002    -1.5779694122566286     
   8.6399999999999991E-002    -1.7930360840574795     
   8.6699999999999999E-002    -1.9489930627744954     
   8.7000000000000008E-002    -2.0284791843211640     
   8.7300000000000003E-002    -2.0178759799919352     
   8.7599999999999997E-002    -1.9098606621924210     
   8.7900000000000006E-002    -1.7031780775286391     
   8.8200000000000014E-002    -1.4040167390300156     
   8.8499999999999995E-002    -1.0250335753212871     
   8.8800000000000004E-002   -0.58522429023257272     
   8.9100000000000013E-002   -0.10841459772914967     
   8.9399999999999993E-002    0.37824158414814701     
   8.9700000000000002E-002    0.84611823692993759     
   9.0000000000000011E-002     1.2671425036638806     
   9.0299999999999991E-002     1.6166996622258261     
   9.0600000000000000E-002     1.8735894732441083     
   9.0900000000000009E-002     2.0236700199417457     
   9.1200000000000017E-002     2.0595388832784089     
   9.1499999999999998E-002     1.9817859123850774     
   9.1800000000000007E-002     1.7992284238131449     
   9.2100000000000001E-002     1.5271953038164459     
   9.2399999999999996E-002     1.1884649458935215     
   9.2700000000000005E-002    0.80947970108053946     
   9.3000000000000013E-002    0.42036414564347857     
   9.3300000000000008E-002     5.1300299800858755E-002
   9.3600000000000003E-002   -0.26849207417829341     
   9.3899999999999997E-002   -0.51339157682876924     
   9.4200000000000006E-002   -0.66359109314206222     
   9.4500000000000001E-002   -0.70572565329703585     
   9.4800000000000009E-002   -0.63458611053870739     
   9.5100000000000004E-002   -0.45308913054245087     
   9.5399999999999999E-002   -0.17281825199933598     
   9.5699999999999993E-002    0.18771221754106607     
   9.6000000000000002E-002    0.60367923627039699     
   9.6300000000000011E-002     1.0459488862531650     
   9.6600000000000005E-002     1.4833689172908713     
   9.6900000000000000E-002     1.8844882815746391     
   9.7200000000000009E-002     2.2201275241467573     
   9.7499999999999989E-002     2.4649812542439515     
   9.7799999999999998E-002     2.5992883862888121     
   9.8100000000000007E-002     2.6098696185034669     
   9.8400000000000015E-002     2.4899443275927551     
   9.8699999999999996E-002     2.2405393834453844     
   9.9000000000000005E-002     1.8677696285652663     
   9.9300000000000013E-002     1.3842304795732088     
   9.9599999999999994E-002    0.80657190020376124     
   9.9900000000000003E-002    0.15525116010381798     
  0.10020000000000001        -0.54673811464368249     
  0.10049999999999999         -1.2744751604998614     
  0.10080000000000000         -2.0008766388047445     
  0.10110000000000001         -2.6984887082816340     
  0.10140000000000000         -3.3381745911788423     
  0.10170000000000000         -3.8910036225907834     
  0.10200000000000001         -4.3277218426461017     
  0.10230000000000002         -4.6209456853872446     
  0.10260000000000000         -4.7462656186583612     
  0.10290000000000001         -4.6841151072743417     
  0.10320000000000000         -4.4220549013417232     
  0.10350000000000001         -3.9566741861277301     
  0.10380000000000000         -3.2956924801815681     
  0.10410000000000001         -2.4590778184155764     
  0.10440000000000001         -1.4790523548236645     
  0.10470000000000000        -0.39966860328337239     
  0.10500000000000000         0.72513918749627448     
  0.10530000000000000          1.8349761619118627     
  0.10560000000000000          2.8668632455327856     
  0.10590000000000001          3.7594344747790847     
  0.10620000000000000          4.4581988054950150     
  0.10650000000000001          4.9194629332185587     
  0.10679999999999999          5.1148273907982471     
  0.10710000000000000          5.0329010164479175     
  0.10740000000000001          4.6812731520916468     
  0.10770000000000000          4.0853329947173558     
  0.10800000000000000          3.2873912618482470     
  0.10830000000000001          2.3422968661611034     
  0.10859999999999999          1.3146375230981775     
  0.10890000000000000         0.27225193436832706     
  0.10920000000000001        -0.71763917969830848     
  0.10950000000000001         -1.5939407283351164     
  0.10979999999999999         -2.3059791360141113     
  0.11009999999999999         -2.8159130824461185     
  0.11040000000000001         -3.1017004127635541     
  0.11070000000000001         -3.1573334573141278     
  0.11100000000000000         -2.9927609486954978     
  0.11130000000000000         -2.6321375529742985     
  0.11160000000000002         -2.1117589259470204     
  0.11190000000000001         -1.4774916796355073     
  0.11220000000000001        -0.78084823791505653     
  0.11250000000000000         -7.7149969286223183E-002
  0.11280000000000000         0.57938337088055314     
  0.11309999999999999          1.1364777028476447     
  0.11340000000000001          1.5479041100947586     
  0.11369999999999998          1.7746803205988055     
  0.11400000000000000          1.7875846814933158     
  0.11430000000000000          1.5693387618471228     
  0.11460000000000002          1.1142254066011466     
  0.11489999999999999         0.43191681366821000     
  0.11520000000000001        -0.45480224270438208     
  0.11550000000000001         -1.5070919414206576     
  0.11580000000000000         -2.6742056578586828     
  0.11609999999999999         -3.8915959985156001     
  0.11640000000000002         -5.0871271531119735     
  0.11670000000000001         -6.1819171402830557     
  0.11700000000000001         -7.0974687866771209     
  0.11730000000000000         -7.7597140223014911     
  0.11760000000000000         -8.1047776500633422     
  0.11789999999999999         -8.0858900528913242     
  0.11820000000000001         -7.6751748578031354     
  0.11850000000000001         -6.8707457013183646     
  0.11880000000000000         -5.6945928887676782     
  0.11910000000000000         -4.1953891018189502     
  0.11940000000000002         -2.4428748808379943     
  0.11970000000000001        -0.52574563811490715     
  0.12000000000000001          1.4559881073048284     
  0.12030000000000000          3.3989271939670935     
  0.12060000000000000          5.2020173095429607     
  0.12089999999999999          6.7775578475639113     
  0.12119999999999999          8.0524286927306878     
  0.12150000000000001          8.9788221536842023     
  0.12180000000000001          9.5316289439789372     
  0.12210000000000000          9.7121117329568989     
  0.12239999999999999          9.5440618394061048     
  0.12270000000000002          9.0708657284878651     
  0.12300000000000001          8.3508444041282033     
  0.12330000000000001          7.4491514702154360     
  0.12360000000000000          6.4355305630364761     
  0.12390000000000000          5.3741863783485737     
  0.12419999999999999          4.3241093953779890     
  0.12450000000000001          3.3328293118399706     
  0.12480000000000001          2.4370053672568188     
  0.12509999999999999          1.6612120777062063     
  0.12540000000000001          1.0198833014110917     
  0.12570000000000003         0.51935411473752491     
  0.12600000000000000         0.15927363666527383     
  0.12630000000000002         -6.4530833868360477E-002
  0.12659999999999999        -0.15885256083301463     
  0.12690000000000001        -0.13303745104579989     
  0.12719999999999998          1.8868519492026966E-003
  0.12750000000000000         0.23050886985640195     
  0.12780000000000002         0.53393454974340226     
  0.12809999999999999         0.88613195649532039     
  0.12840000000000001          1.2549108864668015     
  0.12869999999999998          1.6020325764725472     
  0.12900000000000000          1.8831211321335319     
  0.12930000000000003          2.0533402724282279     
  0.12959999999999999          2.0674560360422070     
  0.12990000000000002          1.8905426069499578     
  0.13019999999999998          1.4967867674068074     
  0.13050000000000000         0.88051147505500804     
  0.13080000000000003          5.3520788698804493E-002
  0.13109999999999999        -0.94820986793236828     
  0.13140000000000002         -2.0696758636390320     
  0.13169999999999998         -3.2382807199503154     
  0.13200000000000001         -4.3709990428950585     
  0.13229999999999997         -5.3837501386465068     
  0.13260000000000000         -6.1984044809999226     
  0.13290000000000002         -6.7550923065936601     
  0.13319999999999999         -7.0162712761458277     
  0.13350000000000001         -6.9771782648802425     
  0.13380000000000003         -6.6625077177081309     
  0.13410000000000000         -6.1307813807370843     
  0.13440000000000002         -5.4625470627626820     
  0.13469999999999999         -4.7590191681325553     
  0.13500000000000001         -4.1230409777668529     
  0.13529999999999998         -3.6536606231618816     
  0.13560000000000000         -3.4285198247188498     
  0.13590000000000002         -3.4964922402635410     
  0.13619999999999999         -3.8687735252091442     
  0.13650000000000001         -4.5135109558973170     
  0.13680000000000003         -5.3605853888053927     
  0.13710000000000000         -6.3005791504839932     
  0.13740000000000002         -7.2014798768374684     
  0.13769999999999999         -7.9132703143239302     
  0.13800000000000001         -8.2910429952594491     
  0.13829999999999998         -8.2018151986596095     
  0.13860000000000000         -7.5461129797436017     
  0.13890000000000002         -6.2654222288738195     
  0.13919999999999999         -4.3511808654663335     
  0.13950000000000001         -1.8518925306704490     
  0.13979999999999998          1.1341704479677661     
  0.14010000000000000          4.4562235798283387     
  0.14040000000000002          7.9303250256327287     
  0.14069999999999999          11.344407426305358     
  0.14100000000000001          14.479812818825787     
  0.14130000000000004          17.125150717692232     
  0.14160000000000000          19.092283125285142     
  0.14189999999999997          20.232440673090117     
  0.14219999999999999          20.443637440524753     
  0.14250000000000002          19.684125388262551     
  0.14279999999999998          17.967662229953824     
  0.14310000000000000          15.371635778133367     
  0.14339999999999997          12.021973960898499     
  0.14369999999999999          8.0950960334005071     
  0.14400000000000002          3.7943058074230076     
  0.14429999999999998        -0.65166133780630608     
  0.14460000000000001         -5.0147302026857759     
  0.14490000000000003         -9.0717297422326499     
  0.14520000000000000         -12.625252660416630     
  0.14550000000000002         -15.510600842745447     
  0.14579999999999999         -17.604095137005423     
  0.14610000000000001         -18.831964072249157     
  0.14640000000000003         -19.164628492171950     
  0.14670000000000000         -18.624980395546920     
  0.14699999999999996         -17.270730432524548     
  0.14729999999999999         -15.202717259943332     
  0.14760000000000001         -12.539607525251856     
  0.14789999999999998         -9.4238382030113961     
  0.14820000000000000         -6.0001908783486595     