  -1.4999999999999999E-002     0.0000000000000000     
  -1.4700000000000000E-002     0.0000000000000000     
  -1.4400000000000000E-002     0.0000000000000000     
  -1.4100000000000000E-002     0.0000000000000000     
  -1.3800000000000000E-002     0.0000000000000000     
  -1.3500000000000000E-002     0.0000000000000000     
  -1.3200000000000000E-002     0.0000000000000000     
  -1.2899999999999998E-002     0.0000000000000000     
  -1.2600000000000000E-002     0.0000000000000000     
  -1.2299999999999998E-002     0.0000000000000000     
  -1.2000000000000000E-002     0.0000000000000000     
  -1.1699999999999999E-002     0.0000000000000000     
  -1.1399999999999999E-002     0.0000000000000000     
  -1.1099999999999999E-002     0.0000000000000000     
  -1.0799999999999999E-002     0.0000000000000000     
  -1.0499999999999999E-002     0.0000000000000000     
  -1.0199999999999999E-002     0.0000000000000000     
  -9.8999999999999991E-003     0.0000000000000000     
  -9.5999999999999992E-003     0.0000000000000000     
  -9.2999999999999992E-003     0.0000000000000000     
  -8.9999999999999993E-003     0.0000000000000000     
  -8.6999999999999994E-003     0.0000000000000000     
  -8.3999999999999995E-003     0.0000000000000000     
  -8.0999999999999996E-003     0.0000000000000000     
  -7.7999999999999988E-003     0.0000000000000000     
  -7.4999999999999997E-003     0.0000000000000000     
  -7.1999999999999998E-003     0.0000000000000000     
  -6.8999999999999981E-003     0.0000000000000000     
  -6.5999999999999982E-003     0.0000000000000000     
  -6.3000000000000000E-003     0.0000000000000000     
  -6.0000000000000001E-003     0.0000000000000000     
  -5.6999999999999985E-003     0.0000000000000000     
  -5.3999999999999986E-003     0.0000000000000000     
  -5.1000000000000004E-003     0.0000000000000000     
  -4.7999999999999987E-003     0.0000000000000000     
  -4.5000000000000005E-003     0.0000000000000000     
  -4.1999999999999989E-003     0.0000000000000000     
  -3.8999999999999990E-003     0.0000000000000000     
  -3.5999999999999990E-003     0.0000000000000000     
  -3.2999999999999991E-003     0.0000000000000000     
  -2.9999999999999992E-003     0.0000000000000000     
  -2.6999999999999993E-003     0.0000000000000000     
  -2.3999999999999994E-003     0.0000000000000000     
  -2.0999999999999977E-003     0.0000000000000000     
  -1.7999999999999995E-003     0.0000000000000000     
  -1.4999999999999979E-003     0.0000000000000000     
  -1.1999999999999997E-003     0.0000000000000000     
  -8.9999999999999976E-004     0.0000000000000000     
  -5.9999999999999810E-004     0.0000000000000000     
  -2.9999999999999992E-004     0.0000000000000000     
   0.0000000000000000          0.0000000000000000     
   3.0000000000000165E-004     0.0000000000000000     
   5.9999999999999984E-004     0.0000000000000000     
   9.0000000000000149E-004     0.0000000000000000     
   1.2000000000000031E-003     0.0000000000000000     
   1.5000000000000013E-003     0.0000000000000000     
   1.8000000000000030E-003     0.0000000000000000     
   2.1000000000000012E-003     0.0000000000000000     
   2.3999999999999994E-003     0.0000000000000000     
   2.7000000000000010E-003     0.0000000000000000     
   2.9999999999999992E-003     0.0000000000000000     
   3.3000000000000008E-003     0.0000000000000000     
   3.6000000000000025E-003     0.0000000000000000     
   3.9000000000000007E-003     0.0000000000000000     
   4.2000000000000023E-003     0.0000000000000000     
   4.5000000000000005E-003     0.0000000000000000     
   4.7999999999999987E-003     0.0000000000000000     
   5.1000000000000004E-003     0.0000000000000000     
   5.4000000000000020E-003     0.0000000000000000     
   5.7000000000000037E-003     0.0000000000000000     
   5.9999999999999984E-003     0.0000000000000000     
   6.3000000000000000E-003     0.0000000000000000     
   6.6000000000000017E-003     0.0000000000000000     
   6.9000000000000034E-003     0.0000000000000000     
   7.2000000000000015E-003     0.0000000000000000     
   7.5000000000000032E-003     0.0000000000000000     
   7.8000000000000014E-003     0.0000000000000000     
   8.0999999999999996E-003     0.0000000000000000     
   8.4000000000000012E-003     0.0000000000000000     
   8.7000000000000029E-003     0.0000000000000000     
   9.0000000000000011E-003     0.0000000000000000     
   9.2999999999999992E-003     0.0000000000000000     
   9.6000000000000009E-003     0.0000000000000000     
   9.8999999999999991E-003     0.0000000000000000     
   1.0200000000000001E-002     0.0000000000000000     
   1.0500000000000002E-002     0.0000000000000000     
   1.0800000000000004E-002     0.0000000000000000     
   1.1099999999999999E-002     0.0000000000000000     
   1.1400000000000000E-002     0.0000000000000000     
   1.1700000000000002E-002     0.0000000000000000     
   1.2000000000000004E-002     0.0000000000000000     
   1.2300000000000002E-002     0.0000000000000000     
   1.2600000000000000E-002     0.0000000000000000     
   1.2900000000000002E-002     0.0000000000000000     
   1.3200000000000000E-002     0.0000000000000000     
   1.3500000000000002E-002     0.0000000000000000     
   1.3800000000000003E-002     0.0000000000000000     
   1.4100000000000001E-002     0.0000000000000000     
   1.4400000000000000E-002     0.0000000000000000     
   1.4700000000000001E-002     0.0000000000000000     
   1.4999999999999999E-002     0.0000000000000000     
   1.5300000000000001E-002     0.0000000000000000     
   1.5600000000000003E-002     0.0000000000000000     
   1.5899999999999997E-002     0.0000000000000000     
   1.6199999999999999E-002     0.0000000000000000     
   1.6500000000000001E-002     0.0000000000000000     
   1.6800000000000002E-002     0.0000000000000000     
   1.7100000000000004E-002     0.0000000000000000     
   1.7400000000000006E-002     0.0000000000000000     
   1.7700000000000000E-002     0.0000000000000000     
   1.8000000000000002E-002     0.0000000000000000     
   1.8300000000000004E-002     0.0000000000000000     
   1.8600000000000005E-002     0.0000000000000000     
   1.8900000000000000E-002     0.0000000000000000     
   1.9200000000000002E-002     0.0000000000000000     
   1.9500000000000003E-002     0.0000000000000000     
   1.9799999999999998E-002     0.0000000000000000     
   2.0100000000000000E-002     0.0000000000000000     
   2.0400000000000001E-002     0.0000000000000000     
   2.0700000000000003E-002    -5.0658857969670987E-051
   2.0999999999999998E-002    -5.7019976828884690E-050
   2.1299999999999999E-002     3.3513631907700416E-049
   2.1600000000000001E-002    -1.3518848043362868E-050
   2.1900000000000003E-002    -1.2133965034471182E-048
   2.2200000000000004E-002    -7.6906644592436401E-037
   2.2500000000000006E-002    -5.1117917878021107E-036
   2.2800000000000001E-002     8.1329242925567491E-035
   2.3100000000000002E-002    -2.9750102866679386E-035
   2.3400000000000004E-002    -1.8403976637619059E-034
   2.3699999999999999E-002     5.3545170427328811E-034
   2.4000000000000000E-002    -2.0245821731467136E-033
   2.4300000000000002E-002     4.6392093051416124E-033
   2.4599999999999997E-002    -7.7119367358273822E-033
   2.4900000000000005E-002     6.5790927611723674E-033
   2.5200000000000000E-002     5.0110416892474365E-033
   2.5499999999999995E-002    -3.0690023878255467E-032
   2.5800000000000003E-002     6.0779588641400152E-032
   2.6099999999999998E-002    -5.5668549716589649E-032
   2.6400000000000007E-002    -5.7023295213646429E-032
   2.6700000000000002E-002     3.4268375462006993E-031
   2.6999999999999996E-002    -7.5335634346829777E-031
   2.7300000000000005E-002     1.0654748720329947E-030
   2.7600000000000000E-002    -1.2398448431766720E-030
   2.7900000000000008E-002     2.9739060999961499E-030
   2.8200000000000003E-002    -1.3782589016059599E-029
   2.8499999999999998E-002     5.5890540302495128E-029
   2.8800000000000006E-002    -1.8236644090740652E-028
   2.9100000000000001E-002     4.9597606583289691E-028
   2.9400000000000003E-002    -1.1444925916242172E-027
   2.9700000000000004E-002     2.2450027769713968E-027
   3.0000000000000006E-002    -3.7090139280893772E-027
   3.0300000000000001E-002     4.8250941666801202E-027
   3.0600000000000002E-002    -2.0650676847622406E-027
   3.0900000000000004E-002    -2.1774740349164453E-026
   3.1199999999999999E-002     1.3448464265979624E-025
   3.1500000000000007E-002    -5.3767090645314478E-025
   3.1800000000000002E-002     1.6645279360314537E-024
   3.2099999999999997E-002    -4.0712976181383850E-024
   3.2400000000000005E-002     7.5485870596416957E-024
   3.2700000000000000E-002    -8.6544882143872214E-024
   3.3000000000000002E-002    -3.1126287280464656E-024
   3.3300000000000003E-002     4.5170268831118730E-023
   3.3599999999999998E-002    -1.1778806214663577E-022
   3.3900000000000000E-002     1.1521996477344112E-022
   3.4200000000000001E-002     3.1027208466612147E-022
   3.4500000000000003E-002    -1.4314646172459838E-021
   3.4799999999999998E-002     8.6592339599475012E-022
   3.5099999999999999E-002     1.3184627969310028E-020
   3.5400000000000001E-002    -6.3334550048190385E-020
   3.5699999999999996E-002     1.3226261410217068E-019
   3.6000000000000004E-002     8.9638486938341145E-021
   3.6299999999999999E-002    -9.5368620684995247E-019
   3.6600000000000008E-002     2.9467983952496471E-018
   3.6900000000000002E-002    -2.9977541982908251E-018
   3.7199999999999997E-002    -8.3280021694527286E-018
   3.7500000000000006E-002     3.8560812419149695E-017
   3.7800000000000000E-002    -5.6318515075642299E-017
   3.8100000000000009E-002    -5.0520756437760813E-017
   3.8400000000000004E-002     3.8562934206944779E-016
   3.8699999999999998E-002    -6.5554273437732576E-016
   3.9000000000000007E-002    -2.3610525460320782E-016
   3.9300000000000002E-002     3.3031329866409979E-015
   3.9600000000000003E-002    -5.9673317439866880E-015
   3.9900000000000005E-002    -1.1502388865244168E-015
   4.0200000000000000E-002     2.6188968984706915E-014
   4.0500000000000001E-002    -4.8140429143231123E-014
   4.0800000000000003E-002    -4.4423682422178958E-015
   4.1100000000000005E-002     1.9078770645659949E-013
   4.1399999999999999E-002    -3.7491553698121370E-013
   4.1700000000000008E-002     1.0268250791848334E-013
   4.2000000000000003E-002     1.1236194040429214E-012
   4.2299999999999997E-002    -3.0750234443302928E-012
   4.2600000000000006E-002     3.4369003661085538E-012
   4.2900000000000001E-002     4.5305332384986743E-012
   4.3200000000000002E-002    -2.9569559801524532E-011
   4.3500000000000004E-002     5.3707254701338174E-011
   4.3799999999999999E-002     2.0366377404974289E-011
   4.4100000000000000E-002    -3.0366511290233712E-010
   4.4400000000000002E-002     5.2805947345998695E-010
   4.4700000000000004E-002     3.0196725440290093E-010
   4.4999999999999998E-002    -2.7815470589307159E-009
   4.5300000000000000E-002     3.7874422063541341E-009
   4.5600000000000002E-002     4.9732474044083172E-009
   4.5899999999999996E-002    -2.4932947769393185E-008
   4.6200000000000005E-002     1.4812665890493543E-008
   4.6500000000000000E-002     8.9536516373945691E-008
   4.6799999999999994E-002    -1.8689852553916898E-007
   4.7100000000000003E-002    -2.7521703647260732E-007
   4.7399999999999998E-002     2.0858806725808016E-006
   4.7700000000000006E-002     8.2325116230008317E-006
   4.8000000000000001E-002     1.6192081221673745E-005
   4.8300000000000010E-002     2.3099486353969993E-005
   4.8600000000000004E-002     2.9352220310867581E-005
   4.8899999999999999E-002     3.9689110932015966E-005
   4.9200000000000008E-002     6.0230739219317185E-005
   4.9500000000000002E-002     9.4451866115507555E-005
   4.9800000000000011E-002     1.4444462087481475E-004
   5.0100000000000006E-002     2.1713453587674379E-004
   5.0400000000000000E-002     3.2340391102086741E-004
   5.0700000000000009E-002     4.7147086838395782E-004
   5.1000000000000004E-002     6.7109747312407242E-004
   5.1299999999999998E-002     9.4042332709254274E-004
   5.1600000000000007E-002     1.3003457377394536E-003
   5.1900000000000002E-002     1.7697739881621989E-003
   5.2200000000000010E-002     2.3674687566335641E-003
   5.2500000000000005E-002     3.1107249371308200E-003
   5.2800000000000000E-002     4.0136929297831412E-003
   5.3099999999999994E-002     5.0879865605779678E-003
   5.3400000000000003E-002     6.3330097849302984E-003
   5.3699999999999998E-002     7.7245105003863586E-003
   5.4000000000000006E-002     9.2182196871282360E-003
   5.4300000000000001E-002     1.0749385748185798E-002
   5.4599999999999996E-002     1.2223128336838952E-002
   5.4900000000000004E-002     1.3516643260567089E-002
   5.5199999999999999E-002     1.4484292158458641E-002
   5.5499999999999994E-002     1.4954889558655838E-002
   5.5800000000000002E-002     1.4745790994202894E-002
   5.6099999999999997E-002     1.3692114180320940E-002
   5.6400000000000006E-002     1.1656651079147219E-002
   5.6700000000000000E-002     8.5427834794494280E-003
   5.6999999999999995E-002     4.3263188660674764E-003
   5.7300000000000004E-002    -9.2291442351200145E-004
   5.7599999999999998E-002    -7.0455260235312471E-003
   5.7900000000000007E-002    -1.3784321096800091E-002
   5.8200000000000002E-002    -2.0800768675362066E-002
   5.8499999999999996E-002    -2.7728471571455044E-002
   5.8800000000000005E-002    -3.4222051610084847E-002
   5.9100000000000000E-002    -3.9994069112304166E-002
   5.9400000000000008E-002    -4.4889220435896812E-002
   5.9700000000000003E-002    -4.8975413871037390E-002
   6.0000000000000012E-002    -5.2595774687705051E-002
   6.0300000000000006E-002    -5.6341908741066198E-002
   6.0600000000000001E-002    -6.1056163713372524E-002
   6.0900000000000010E-002    -6.7791012276542481E-002
   6.1200000000000004E-002    -7.7670616600084300E-002
   6.1500000000000013E-002    -9.1712256558607250E-002
   6.1800000000000008E-002   -0.11065502224967606     
   6.2100000000000002E-002   -0.13474745012216402     
   6.2399999999999997E-002   -0.16356389596594084     
   6.2700000000000006E-002   -0.19587724172995313     
   6.3000000000000000E-002   -0.22958848009456045     
   6.3300000000000009E-002   -0.26168036442533538     
   6.3600000000000004E-002   -0.28844472593468012     
   6.3899999999999998E-002   -0.30571803127413621     
   6.4199999999999993E-002   -0.30926772492369498     
   6.4500000000000002E-002   -0.29515721820797564     
   6.4800000000000010E-002   -0.26021512686241666     
   6.5100000000000005E-002   -0.20251674245515891     
   6.5400000000000000E-002   -0.12171766937454653     
   6.5700000000000008E-002    -1.9314177911538458E-002
   6.5999999999999989E-002    0.10121128589332974     
   6.6299999999999998E-002    0.23450142682283140     
   6.6600000000000006E-002    0.37360278199955355     
   6.6900000000000001E-002    0.51034534284836741     
   6.7199999999999996E-002    0.63588053172409376     
   6.7500000000000004E-002    0.74141913720217290     
   6.7800000000000013E-002    0.81883925165139848     
   6.8099999999999994E-002    0.86132639529335675     
   6.8400000000000002E-002    0.86395358863029947     
   6.8700000000000011E-002    0.82418900517710747     
   6.8999999999999992E-002    0.74205213565318973     
   6.9300000000000000E-002    0.62026476651978868     
   6.9600000000000009E-002    0.46412840307847253     
   6.9900000000000004E-002    0.28136664493771613     
   7.0199999999999999E-002     8.1541149963082468E-002
   7.0500000000000007E-002   -0.12437178972399872     
   7.0800000000000016E-002   -0.32471913083335591     
   7.1099999999999997E-002   -0.50778376998973762     
   7.1400000000000005E-002   -0.66261953027230536     
   7.1700000000000000E-002   -0.77962523592993560     
   7.1999999999999995E-002   -0.85126984008004525     
   7.2300000000000003E-002   -0.87266945733699797     
   7.2600000000000012E-002   -0.84207743318815831     
   7.2900000000000006E-002   -0.76111161646973180     
   7.3200000000000001E-002   -0.63478481739681847     
   7.3499999999999996E-002   -0.47150757913874602     
   7.3800000000000004E-002   -0.28262367886439915     
   7.4099999999999999E-002    -8.1877195129808344E-002
   7.4400000000000008E-002    0.11553654704285360     
   7.4700000000000003E-002    0.29394978132838689     
   7.5000000000000011E-002    0.43839549829377056     
   7.5299999999999992E-002    0.53588986166317321     
   7.5600000000000001E-002    0.57645445787350391     
   7.5900000000000009E-002    0.55434733303526540     
   7.6200000000000004E-002    0.46859061334185942     
   7.6499999999999999E-002    0.32345294503264799     
   7.6800000000000007E-002    0.12833632009204377     
   7.7099999999999988E-002   -0.10262393799990470     
   7.7399999999999997E-002   -0.35166109274273161     
   7.7700000000000005E-002   -0.59867686764452521     
   7.8000000000000014E-002   -0.82277119943370391     
   7.8299999999999995E-002    -1.0040525279374075     
   7.8600000000000003E-002    -1.1253647885790423     
   7.8900000000000012E-002    -1.1737278778079043     
   7.9199999999999993E-002    -1.1414897512508744     
   7.9500000000000001E-002    -1.0270376264010990     
   7.9800000000000010E-002   -0.83496886912041646     
   8.0100000000000018E-002   -0.57565367430173076     
   8.0399999999999999E-002   -0.26422765808500293     
   8.0700000000000008E-002     8.0569255600928757E-002
   8.1000000000000003E-002    0.43796340255150074     
   8.1299999999999997E-002    0.78698659873656174     
   8.1600000000000006E-002     1.1080000522999442     
   8.1900000000000014E-002     1.3840221315833472     
   8.2199999999999995E-002     1.6018151216485854     
   8.2500000000000004E-002     1.7525676676781317     
   8.2799999999999999E-002     1.8319691617045395     
   8.3100000000000007E-002     1.8403674562802725     
   8.3400000000000002E-002     1.7817278100218608     
   8.3700000000000011E-002     1.6634830413225379     
   8.4000000000000005E-002     1.4950928842496241     
   8.4300000000000000E-002     1.2875763303268934     
   8.4599999999999995E-002     1.0523630472552861     
   8.4900000000000003E-002    0.80097574548864081     
   8.5199999999999998E-002    0.54398155390077529     
   8.5500000000000007E-002    0.29102742482362143     
   8.5800000000000001E-002     5.0488105341195459E-002
   8.6100000000000010E-002   -0.17067425780798959     
   8.6399999999999991E-002   -0.36688209655027920     
   8.6699999999999999E-002   -0.53392071796849139     
   8.7000000000000008E-002   -0.66897083723784712     
   8.7300000000000003E-002   -0.77041156571560032     
   8.7599999999999997E-002   -0.83804912872477744     
   8.7900000000000006E-002   -0.87279637149161382     
   8.8200000000000014E-002   -0.87675018552577721     
   8.8499999999999995E-002   -0.85315050055502684     
   8.8800000000000004E-002   -0.80608691055021631     
   8.9100000000000013E-002   -0.74061013429421896     
   8.9399999999999993E-002   -0.66211874334036591     
   8.9700000000000002E-002   -0.57651604122565958     
   9.0000000000000011E-002   -0.48952487851805571     
   9.0299999999999991E-002   -0.40684664804436349     
   9.0600000000000000E-002   -0.33360910755500506     
   9.0900000000000009E-002   -0.27407297588349316     
   9.1200000000000017E-002   -0.23164920330824865     
   9.1499999999999998E-002   -0.20838978417953030     
   9.1800000000000007E-002   -0.20533054294324227     
   9.2100000000000001E-002   -0.22185601716247666     
   9.2399999999999996E-002   -0.25621484368752290     
   9.2700000000000005E-002   -0.30517826898377148     
   9.3000000000000013E-002   -0.36459322030921737     
   9.3300000000000008E-002   -0.42904700013136787     
   9.3600000000000003E-002   -0.49291102266331621     
   9.3899999999999997E-002   -0.54978315318017090     
   9.4200000000000006E-002   -0.59393040815949472     
   9.4500000000000001E-002   -0.61939506502818897     
   9.4800000000000009E-002   -0.62185066073610973     
   9.5100000000000004E-002   -0.59763222481057221     
   9.5399999999999999E-002   -0.54501563297624500     
   9.5699999999999993E-002   -0.46363434625812949     
   9.6000000000000002E-002   -0.35504908224158982     
   9.6300000000000011E-002   -0.22271923464928944     
   9.6600000000000005E-002    -7.1486004361835054E-002
   9.6900000000000000E-002     9.1999602193026539E-002
   9.7200000000000009E-002    0.26033471046998125     
   9.7499999999999989E-002    0.42493663174186486     
   9.7799999999999998E-002    0.57735017882297901     
   9.8100000000000007E-002    0.70876632167669862     
   9.8400000000000015E-002    0.81109933247167287     
   9.8699999999999996E-002    0.87710349171575808     
   9.9000000000000005E-002    0.90113805407740577     
   9.9300000000000013E-002    0.87921171365195305     
   9.9599999999999994E-002    0.80969958800235864     
   9.9900000000000003E-002    0.69326156008030126     
  0.10020000000000001         0.53345602695329131     
  0.10049999999999999         0.33625474812167344     
  0.10080000000000000         0.11052184301728309     
  0.10110000000000001        -0.13296111713216091     
  0.10140000000000000        -0.38140379527846713     
  0.10170000000000000        -0.62131940374385419     
  0.10200000000000001        -0.83850227822794099     
  0.10230000000000002         -1.0199177172702056     
  0.10260000000000000         -1.1537470735176643     
  0.10290000000000001         -1.2310773066157543     
  0.10320000000000000         -1.2457392165792647     
  0.10350000000000001         -1.1958707540362268     
  0.10380000000000000         -1.0831820954133282     
  0.10410000000000001        -0.91387420964928912     
  0.10440000000000001        -0.69751566873434068     
  0.10470000000000000        -0.44724941590744166     
  0.10500000000000000        -0.17849269908901741     
  0.10530000000000000          9.2278729686709721E-002
  0.10560000000000000         0.34784462666321270     
  0.10590000000000001         0.57213389569518736     
  0.10620000000000000         0.75094091700402998     
  0.10650000000000001         0.87299585289868908     
  0.10679999999999999         0.93070197208441985     
  0.10710000000000000         0.92058360842790465     
  0.10740000000000001         0.84389239978790942     
  0.10770000000000000         0.70617962468254769     
  0.10800000000000000         0.51724535958299311     
  0.10830000000000001         0.29067231083101158     
  0.10859999999999999          4.2617178020951614E-002
  0.10890000000000000        -0.20857574469719356     
  0.10920000000000001        -0.44417773540735955     
  0.10950000000000001        -0.64560602917089727     
  0.10979999999999999        -0.79626266955276026     
  0.11009999999999999        -0.88195441988108081     
  0.11040000000000001        -0.89283793060848604     
  0.11070000000000001        -0.82314365111306120     
  0.11100000000000000        -0.67250650287544822     
  0.11130000000000000        -0.44548829758760961     
  0.11160000000000002        -0.15193222078520593     
  0.11190000000000001         0.19389812753033650     
  0.11220000000000001         0.57420182030058786     
  0.11250000000000000         0.96824335545994678     
  0.11280000000000000          1.3542172828027721     
  0.11309999999999999          1.7099673640319748     
  0.11340000000000001          2.0150034297324884     
  0.11369999999999998          2.2509386393079454     
  0.11400000000000000          2.4033219659443352     
  0.11430000000000000          2.4619369351891924     
  0.11460000000000002          2.4213363978224729     
  0.11489999999999999          2.2816417088611272     
  0.11520000000000001          2.0477960006303513     
  0.11550000000000001          1.7296056675541698     
  0.11580000000000000          1.3412152492608902     
  0.11609999999999999         0.90020626806038240     
  0.11640000000000002         0.42694789569835301     
  0.11670000000000001         -5.6995004325833924E-002
  0.11700000000000001        -0.52877872126710579     
  0.11730000000000000        -0.96682791602939078     
  0.11760000000000000         -1.3507851216453488     
  0.11789999999999999         -1.6635103072135591     
  0.11820000000000001         -1.8910074081191302     
  0.11850000000000001         -2.0243463371961830     
  0.11880000000000000         -2.0599164833703099     
  0.11910000000000000         -1.9997051845842093     
  0.11940000000000002         -1.8517779027510923     
  0.11970000000000001         -1.6296163739594316     
  0.12000000000000001         -1.3519393174884358     
  0.12030000000000000         -1.0412759777061429     
  0.12060000000000000        -0.72286898119943155     
  0.12089999999999999        -0.42258644575319204     
  0.12119999999999999        -0.16521040307953469     
  0.12150000000000001          2.7937050941083594E-002
  0.12180000000000001         0.14006515205500103     
  0.12210000000000000         0.16176243286464290     
  0.12239999999999999          9.0857528028525175E-002
  0.12270000000000002         -6.5919035833277129E-002
  0.12300000000000001        -0.29408614617680029     
  0.12330000000000001        -0.57166298086370815     
  0.12360000000000000        -0.87123258780683444     
  0.12390000000000000         -1.1620886506874260     
  0.12419999999999999         -1.4126535823205366     
  0.12450000000000001         -1.5936217458280977     
  0.12480000000000001         -1.6804914598804459     
  0.12509999999999999         -1.6558157298480292     
  0.12540000000000001         -1.5109945592432059     
  0.12570000000000003         -1.2470277565920895     
  0.12600000000000000        -0.87474387668994558     
  0.12630000000000002        -0.41346376531624673     
  0.12659999999999999         0.11059630879515589     
  0.12690000000000001         0.66651500558663113     
  0.12719999999999998          1.2218291915482757     
  0.12750000000000000          1.7447917640247035     
  0.12780000000000002          2.2075219350228137     
  0.12809999999999999          2.5875058382945237     
  0.12840000000000001          2.8699681975628235     
  0.12869999999999998          3.0471129639372623     
  0.12900000000000000          3.1193728670235075     
  0.12930000000000003          3.0933947786358438     
  0.12959999999999999          2.9817416888512573     
  0.12990000000000002          2.7996466376852540     
  0.13019999999999998          2.5646174165355400     
  0.13050000000000000          2.2934539523373196     
  0.13080000000000003          2.0018761354274806     
  0.13109999999999999          1.7019684501119112     
  0.13140000000000002          1.4032747918387813     
  0.13169999999999998          1.1109472669595299     
  0.13200000000000001         0.82758141909540139     
  0.13229999999999997         0.55242110378003129     
  0.13260000000000000         0.28335169691525491     
  0.13290000000000002          1.6627903472290678E-002
  0.13319999999999999        -0.25102094006246373     
  0.13350000000000001        -0.52293551751356204     
  0.13380000000000003        -0.80080117258919192     
  0.13410000000000000         -1.0853079778152781     
  0.13440000000000002         -1.3748863043564012     
  0.13469999999999999         -1.6665434025984658     
  0.13500000000000001         -1.9555428486514184     
  0.13529999999999998         -2.2358017496436724     
  0.13560000000000000         -2.5000656236981031     
  0.13590000000000002         -2.7400496632013089     
  0.13619999999999999         -2.9476040053470092     
  0.13650000000000001         -3.1140101592878064     
  0.13680000000000003         -3.2312694198055607     
  0.13710000000000000         -3.2914708201907112     
  0.13740000000000002         -3.2883732772455576     
  0.13769999999999999         -3.2159209595654961     
  0.13800000000000001         -3.0701420523784453     
  0.13829999999999998         -2.8481438237595702     
  0.13860000000000000         -2.5492408208560038     
  0.13890000000000002         -2.1741554527411187     
  0.13919999999999999         -1.7265879762466678     
  0.13950000000000001         -1.2122623453690395     
  0.13979999999999998        -0.64043683069438406     
  0.14010000000000000         -2.2931376388502886E-002
  0.14040000000000002         0.62443752248039264     
  0.14069999999999999          1.2824402600375884     
  0.14100000000000001          1.9289738693717353     
  0.14130000000000004          2.5388534808121803     
  0.14160000000000000          3.0855293974475106     
  0.14189999999999997          3.5416153118641294     
  0.14219999999999999          3.8816946114451980     
  0.14250000000000002          4.0827227102978041     
  0.14279999999999998          4.1272158973228903     
  0.14310000000000000          4.0046477540837984     
  0.14339999999999997          3.7132151211408040     
  0.14369999999999999          3.2604784904491599     
  0.14400000000000002          2.6641404418181769     
  0.14429999999999998          1.9510802864575569     
  0.14460000000000001          1.1564373470723059     
  0.14490000000000003         0.32067352219073081     
  0.14520000000000000        -0.51222111218109223     
  0.14550000000000002         -1.2992395988003365     
  0.14579999999999999         -2.0000329903519356     
  0.14610000000000001         -2.5814138373729900     
  0.14640000000000003         -3.0183680970308462     
  0.14670000000000000         -3.2968560142904808     
  0.14699999999999996         -3.4128650048203490     
  0.14729999999999999         -3.3734570269764297     
  0.14760000000000001         -3.1937182554201318     
  0.14789999999999998         -2.8966689578633846     
  0.14820000000000000         -2.5086222015869102     