  -1.4999999999999999E-002     0.0000000000000000     
  -1.4700000000000000E-002     0.0000000000000000     
  -1.4400000000000000E-002     0.0000000000000000     
  -1.4100000000000000E-002     0.0000000000000000     
  -1.3800000000000000E-002     0.0000000000000000     
  -1.3500000000000000E-002     0.0000000000000000     
  -1.3200000000000000E-002     0.0000000000000000     
  -1.2899999999999998E-002     0.0000000000000000     
  -1.2600000000000000E-002     0.0000000000000000     
  -1.2299999999999998E-002     0.0000000000000000     
  -1.2000000000000000E-002     0.0000000000000000     
  -1.1699999999999999E-002     0.0000000000000000     
  -1.1399999999999999E-002     0.0000000000000000     
  -1.1099999999999999E-002     0.0000000000000000     
  -1.0799999999999999E-002     0.0000000000000000     
  -1.0499999999999999E-002     0.0000000000000000     
  -1.0199999999999999E-002     0.0000000000000000     
  -9.8999999999999991E-003     0.0000000000000000     
  -9.5999999999999992E-003     0.0000000000000000     
  -9.2999999999999992E-003     0.0000000000000000     
  -8.9999999999999993E-003     0.0000000000000000     
  -8.6999999999999994E-003     0.0000000000000000     
  -8.3999999999999995E-003     0.0000000000000000     
  -8.0999999999999996E-003     0.0000000000000000     
  -7.7999999999999988E-003     0.0000000000000000     
  -7.4999999999999997E-003     0.0000000000000000     
  -7.1999999999999998E-003     0.0000000000000000     
  -6.8999999999999981E-003     0.0000000000000000     
  -6.5999999999999982E-003     0.0000000000000000     
  -6.3000000000000000E-003     0.0000000000000000     
  -6.0000000000000001E-003     0.0000000000000000     
  -5.6999999999999985E-003     0.0000000000000000     
  -5.3999999999999986E-003     0.0000000000000000     
  -5.1000000000000004E-003     0.0000000000000000     
  -4.7999999999999987E-003     0.0000000000000000     
  -4.5000000000000005E-003     0.0000000000000000     
  -4.1999999999999989E-003     0.0000000000000000     
  -3.8999999999999990E-003     0.0000000000000000     
  -3.5999999999999990E-003     0.0000000000000000     
  -3.2999999999999991E-003     0.0000000000000000     
  -2.9999999999999992E-003     0.0000000000000000     
  -2.6999999999999993E-003     0.0000000000000000     
  -2.3999999999999994E-003     0.0000000000000000     
  -2.0999999999999977E-003     0.0000000000000000     
  -1.7999999999999995E-003     0.0000000000000000     
  -1.4999999999999979E-003     0.0000000000000000     
  -1.1999999999999997E-003     0.0000000000000000     
  -8.9999999999999976E-004     0.0000000000000000     
  -5.9999999999999810E-004     0.0000000000000000     
  -2.9999999999999992E-004     0.0000000000000000     
   0.0000000000000000          0.0000000000000000     
   3.0000000000000165E-004     0.0000000000000000     
   5.9999999999999984E-004     0.0000000000000000     
   9.0000000000000149E-004     0.0000000000000000     
   1.2000000000000031E-003     0.0000000000000000     
   1.5000000000000013E-003     0.0000000000000000     
   1.8000000000000030E-003     0.0000000000000000     
   2.1000000000000012E-003     0.0000000000000000     
   2.3999999999999994E-003     0.0000000000000000     
   2.7000000000000010E-003     0.0000000000000000     
   2.9999999999999992E-003     0.0000000000000000     
   3.3000000000000008E-003     0.0000000000000000     
   3.6000000000000025E-003     0.0000000000000000     
   3.9000000000000007E-003     0.0000000000000000     
   4.2000000000000023E-003     0.0000000000000000     
   4.5000000000000005E-003     0.0000000000000000     
   4.7999999999999987E-003     0.0000000000000000     
   5.1000000000000004E-003     0.0000000000000000     
   5.4000000000000020E-003     0.0000000000000000     
   5.7000000000000037E-003     0.0000000000000000     
   5.9999999999999984E-003     0.0000000000000000     
   6.3000000000000000E-003     0.0000000000000000     
   6.6000000000000017E-003     0.0000000000000000     
   6.9000000000000034E-003     0.0000000000000000     
   7.2000000000000015E-003     0.0000000000000000     
   7.5000000000000032E-003     0.0000000000000000     
   7.8000000000000014E-003     0.0000000000000000     
   8.0999999999999996E-003     0.0000000000000000     
   8.4000000000000012E-003     0.0000000000000000     
   8.7000000000000029E-003     0.0000000000000000     
   9.0000000000000011E-003     0.0000000000000000     
   9.2999999999999992E-003     0.0000000000000000     
   9.6000000000000009E-003     0.0000000000000000     
   9.8999999999999991E-003     0.0000000000000000     
   1.0200000000000001E-002     0.0000000000000000     
   1.0500000000000002E-002     0.0000000000000000     
   1.0800000000000004E-002     0.0000000000000000     
   1.1099999999999999E-002     0.0000000000000000     
   1.1400000000000000E-002     0.0000000000000000     
   1.1700000000000002E-002     0.0000000000000000     
   1.2000000000000004E-002     0.0000000000000000     
   1.2300000000000002E-002     0.0000000000000000     
   1.2600000000000000E-002     0.0000000000000000     
   1.2900000000000002E-002     0.0000000000000000     
   1.3200000000000000E-002     0.0000000000000000     
   1.3500000000000002E-002     0.0000000000000000     
   1.3800000000000003E-002     0.0000000000000000     
   1.4100000000000001E-002     0.0000000000000000     
   1.4400000000000000E-002     0.0000000000000000     
   1.4700000000000001E-002     0.0000000000000000     
   1.4999999999999999E-002     0.0000000000000000     
   1.5300000000000001E-002     0.0000000000000000     
   1.5600000000000003E-002     0.0000000000000000     
   1.5899999999999997E-002     0.0000000000000000     
   1.6199999999999999E-002     0.0000000000000000     
   1.6500000000000001E-002     0.0000000000000000     
   1.6800000000000002E-002     0.0000000000000000     
   1.7100000000000004E-002     0.0000000000000000     
   1.7400000000000006E-002     0.0000000000000000     
   1.7700000000000000E-002     0.0000000000000000     
   1.8000000000000002E-002     0.0000000000000000     
   1.8300000000000004E-002     0.0000000000000000     
   1.8600000000000005E-002     0.0000000000000000     
   1.8900000000000000E-002     0.0000000000000000     
   1.9200000000000002E-002     0.0000000000000000     
   1.9500000000000003E-002     0.0000000000000000     
   1.9799999999999998E-002     0.0000000000000000     
   2.0100000000000000E-002     0.0000000000000000     
   2.0400000000000001E-002     0.0000000000000000     
   2.0700000000000003E-002     0.0000000000000000     
   2.0999999999999998E-002     0.0000000000000000     
   2.1299999999999999E-002     0.0000000000000000     
   2.1600000000000001E-002     0.0000000000000000     
   2.1900000000000003E-002     0.0000000000000000     
   2.2200000000000004E-002     0.0000000000000000     
   2.2500000000000006E-002     0.0000000000000000     
   2.2800000000000001E-002     0.0000000000000000     
   2.3100000000000002E-002     0.0000000000000000     
   2.3400000000000004E-002     0.0000000000000000     
   2.3699999999999999E-002     0.0000000000000000     
   2.4000000000000000E-002     0.0000000000000000     
   2.4300000000000002E-002     0.0000000000000000     
   2.4599999999999997E-002     0.0000000000000000     
   2.4900000000000005E-002     0.0000000000000000     
   2.5200000000000000E-002     0.0000000000000000     
   2.5499999999999995E-002     0.0000000000000000     
   2.5800000000000003E-002     0.0000000000000000     
   2.6099999999999998E-002     0.0000000000000000     
   2.6400000000000007E-002     0.0000000000000000     
   2.6700000000000002E-002     0.0000000000000000     
   2.6999999999999996E-002     0.0000000000000000     
   2.7300000000000005E-002     0.0000000000000000     
   2.7600000000000000E-002     0.0000000000000000     
   2.7900000000000008E-002     0.0000000000000000     
   2.8200000000000003E-002     0.0000000000000000     
   2.8499999999999998E-002     0.0000000000000000     
   2.8800000000000006E-002     0.0000000000000000     
   2.9100000000000001E-002     0.0000000000000000     
   2.9400000000000003E-002     0.0000000000000000     
   2.9700000000000004E-002    -1.4205899114082923E-072
   3.0000000000000006E-002    -2.6101677692465057E-064
   3.0300000000000001E-002     4.7112771197396706E-064
   3.0600000000000002E-002     7.2642531466619687E-045
   3.0900000000000004E-002     1.0765171385148056E-036
   3.1199999999999999E-002     2.6293426246872214E-035
   3.1500000000000007E-002    -1.5721546312704699E-034
   3.1800000000000002E-002     1.2946481723740409E-034
   3.2099999999999997E-002    -1.5311467967103187E-033
   3.2400000000000005E-002     9.4388536175974367E-033
   3.2700000000000000E-002    -3.2249197559140249E-032
   3.3000000000000002E-002     8.9976658296629313E-032
   3.3300000000000003E-002    -2.1270324941563864E-031
   3.3599999999999998E-002     3.9545924226675892E-031
   3.3900000000000000E-002    -3.9432764112521596E-031
   3.4200000000000001E-002    -8.8625310291120276E-031
   3.4500000000000003E-002     6.8160442934772657E-030
   3.4799999999999998E-002    -2.5390139995077718E-029
   3.5099999999999999E-002     7.0480839360254491E-029
   3.5400000000000001E-002    -1.5320541829072499E-028
   3.5699999999999996E-002     2.4020310381968809E-028
   3.6000000000000004E-002    -1.3780593310260721E-028
   3.6299999999999999E-002    -7.3039822727674321E-028
   3.6600000000000008E-002     3.5723388734889986E-027
   3.6900000000000002E-002    -1.0097417744545375E-026
   3.7199999999999997E-002     2.1087975341099506E-026
   3.7500000000000006E-002    -3.2556424423870370E-026
   3.7800000000000000E-002     2.9638338590315968E-026
   3.8100000000000009E-002     1.8669538857493190E-026
   3.8400000000000004E-002    -1.6229480920143034E-025
   3.8699999999999998E-002     4.9401756224518691E-025
   3.9000000000000007E-002    -1.2850693865956589E-024
   3.9300000000000002E-002     3.3489004710520071E-024
   3.9600000000000003E-002    -8.3029746632625014E-024
   3.9900000000000005E-002     1.6505637672586311E-023
   4.0200000000000000E-002    -1.6627603982200747E-023
   4.0500000000000001E-002    -3.9989077139638052E-023
   4.0800000000000003E-002     2.6467302016697322E-022
   4.1100000000000005E-002    -7.5960372060819191E-022
   4.1399999999999999E-002     1.2205400911790949E-021
   4.1700000000000008E-002    -4.8725753720906488E-023
   4.2000000000000003E-002    -6.2368050310989152E-021
   4.2299999999999997E-002     1.9928740844439786E-020
   4.2600000000000006E-002    -2.9565062233052672E-020
   4.2900000000000001E-002    -1.1785085488187555E-020
   4.3200000000000002E-002     1.8637055196135867E-019
   4.3500000000000004E-002    -4.9977500441419118E-019
   4.3799999999999999E-002     5.4170568117251759E-019
   4.4100000000000000E-002     9.8318430826631790E-019
   4.4400000000000002E-002    -5.9343129340805316E-018
   4.4700000000000004E-002     1.3075658748132625E-017
   4.4999999999999998E-002    -7.8717934927010946E-018
   4.5300000000000000E-002    -4.8771574921367992E-017
   4.5600000000000002E-002     1.9272919810126626E-016
   4.5899999999999996E-002    -2.9804378753241998E-016
   4.6200000000000005E-002    -2.2376415636089644E-016
   4.6500000000000000E-002     2.2952889478978175E-015
   4.6799999999999994E-002    -4.9706599199992263E-015
   4.7100000000000003E-002     4.2048179796954397E-016
   4.7399999999999998E-002     2.5662962785463046E-014
   4.7700000000000006E-002    -6.4021182502776235E-014
   4.8000000000000001E-002     1.4955729598722174E-014
   4.8300000000000010E-002     2.9052529911979535E-013
   4.8600000000000004E-002    -6.7484474186124100E-013
   4.8899999999999999E-002    -1.2469585220652225E-013
   4.9200000000000008E-002     3.7061632461045491E-012
   4.9500000000000002E-002    -6.7782664600350514E-012
   4.9800000000000011E-002    -4.6319232631040480E-012
   5.0100000000000006E-002     4.0809744952455708E-011
   5.0400000000000000E-002    -6.0641524350287361E-011
   5.0700000000000009E-002    -3.7484631867713969E-011
   5.1000000000000004E-002     2.4656388823826146E-010
   5.1299999999999998E-002    -2.5254332947581765E-010
   5.1600000000000007E-002    -8.9425143229956239E-011
   5.1900000000000002E-002    -3.3976002580529929E-010
   5.2200000000000010E-002     2.3298582713702797E-009
   5.2500000000000005E-002     1.2705495765487003E-009
   5.2800000000000000E-002    -2.6149885436257248E-008
   5.3099999999999994E-002     4.9594403858909719E-008
   5.3400000000000003E-002     6.6227904432951387E-008
   5.3699999999999998E-002    -4.2771196779318505E-007
   5.4000000000000006E-002     1.4399609300270257E-007
   5.4300000000000001E-002     3.3450816587736114E-006
   5.4599999999999996E-002     6.5088373450253022E-006
   5.4900000000000004E-002     9.4142195696913438E-006
   5.5199999999999999E-002     1.5718565691904440E-005
   5.5499999999999994E-002     2.3135911346283308E-005
   5.5800000000000002E-002     2.9574096933898925E-005
   5.6099999999999997E-002     4.1384867735961653E-005
   5.6400000000000006E-002     6.5748025829774945E-005
   5.6700000000000000E-002     1.0503125503762071E-004
   5.6999999999999995E-002     1.5680644465157118E-004
   5.7300000000000004E-002     2.2073699444789989E-004
   5.7599999999999998E-002     3.0663498424745309E-004
   5.7900000000000007E-002     4.2947514937632898E-004
   5.8200000000000002E-002     5.9776269110784906E-004
   5.8499999999999996E-002     8.1349721740601316E-004
   5.8800000000000005E-002     1.0826818007264275E-003
   5.9100000000000000E-002     1.4095923173336395E-003
   5.9400000000000008E-002     1.7897663352827232E-003
   5.9700000000000003E-002     2.2181921750660219E-003
   6.0000000000000012E-002     2.6792920698336868E-003
   6.0300000000000006E-002     3.1337521005050007E-003
   6.0600000000000001E-002     3.5260649767826159E-003
   6.0900000000000010E-002     3.7786003064930159E-003
   6.1200000000000004E-002     3.7780266117508829E-003
   6.1500000000000013E-002     3.3852809035293764E-003
   6.1800000000000008E-002     2.4367884811416613E-003
   6.2100000000000002E-002     7.4129393341964081E-004
   6.2399999999999997E-002    -1.8940317368212809E-003
   6.2700000000000006E-002    -5.6522506306988596E-003
   6.3000000000000000E-002    -1.0699087581215355E-002
   6.3300000000000009E-002    -1.7144690922606336E-002
   6.3600000000000004E-002    -2.5000312893660500E-002
   6.3899999999999998E-002    -3.4126351967841993E-002
   6.4199999999999993E-002    -4.4201447845751737E-002
   6.4500000000000002E-002    -5.4717755923155705E-002
   6.4800000000000010E-002    -6.4953139863199630E-002
   6.5100000000000005E-002    -7.3942995363322050E-002
   6.5400000000000000E-002    -8.0508506481680189E-002
   6.5700000000000008E-002    -8.3318723873490971E-002
   6.5999999999999989E-002    -8.0973497203201059E-002
   6.6299999999999998E-002    -7.2106814695343843E-002
   6.6600000000000006E-002    -5.5510847846106270E-002
   6.6900000000000001E-002    -3.0307933178738991E-002
   6.7199999999999996E-002     3.8893573948021432E-003
   6.7500000000000004E-002     4.6853571391108510E-002
   6.7800000000000013E-002     9.7621618138910127E-002
   6.8099999999999994E-002    0.15440235783251610     
   6.8400000000000002E-002    0.21460839758883943     
   6.8700000000000011E-002    0.27490993888349435     
   6.8999999999999992E-002    0.33137404379895269     
   6.9300000000000000E-002    0.37971883393289757     
   6.9600000000000009E-002    0.41561480677555834     
   6.9900000000000004E-002    0.43501286986256243     
   7.0199999999999999E-002    0.43452041627560234     
   7.0500000000000007E-002    0.41178723491024549     
   7.0800000000000016E-002    0.36576026072404089     
   7.1099999999999997E-002    0.29693081480219230     
   7.1400000000000005E-002    0.20744967110858109     
   7.1700000000000000E-002    0.10108721079410780     
   7.1999999999999995E-002    -1.6889985491026598E-002
   7.2300000000000003E-002   -0.14004139383900693     
   7.2600000000000012E-002   -0.26123034535634643     
   7.2900000000000006E-002   -0.37307020418174430     
   7.3200000000000001E-002   -0.46845465135638992     
   7.3499999999999996E-002   -0.54115312405672145     
   7.3800000000000004E-002   -0.58633588780563639     
   7.4099999999999999E-002   -0.60092472038065137     
   7.4400000000000008E-002   -0.58384608254400305     
   7.4700000000000003E-002   -0.53621344864722442     
   7.5000000000000011E-002   -0.46119134844656090     
   7.5299999999999992E-002   -0.36378871779025707     
   7.5600000000000001E-002   -0.25049906538559619     
   7.5900000000000009E-002   -0.12875082858477682     
   7.6200000000000004E-002    -6.4400431705778690E-003
   7.6499999999999999E-002    0.10867616370159595     
   7.6800000000000007E-002    0.20954952800404505     
   7.7099999999999988E-002    0.29025348550114932     
   7.7399999999999997E-002    0.34635185626897352     
   7.7700000000000005E-002    0.37509366248779780     
   7.8000000000000014E-002    0.37555446593862191     
   7.8299999999999995E-002    0.34851922997686496     
   7.8600000000000003E-002    0.29623361916893670     
   7.8900000000000012E-002    0.22233531983056795     
   7.9199999999999993E-002    0.13143153250872242     
   7.9500000000000001E-002     2.8652903872576858E-002
   7.9800000000000010E-002    -8.0598211646124809E-002
   8.0100000000000018E-002   -0.19095052480705069     
   8.0399999999999999E-002   -0.29735290526653108     
   8.0700000000000008E-002   -0.39531215381328544     
   8.1000000000000003E-002   -0.48102440639474370     
   8.1299999999999997E-002   -0.55133353752138392     
   8.1600000000000006E-002   -0.60385440777064625     
   8.1900000000000014E-002   -0.63698654305286939     
   8.2199999999999995E-002   -0.64968978274096667     
   8.2500000000000004E-002   -0.64154349686231049     
   8.2799999999999999E-002   -0.61266963651165496     
   8.3100000000000007E-002   -0.56361078277462717     
   8.3400000000000002E-002   -0.49536531342416662     
   8.3700000000000011E-002   -0.40929546279348489     
   8.4000000000000005E-002   -0.30717738965213476     
   8.4300000000000000E-002   -0.19125036595426911     
   8.4599999999999995E-002    -6.3998109761000149E-002
   8.4900000000000003E-002     7.1480175890860309E-002
   8.5199999999999998E-002    0.21181031681690463     
   8.5500000000000007E-002    0.35326462369274825     
   8.5800000000000001E-002    0.49171259157852915     
   8.6100000000000010E-002    0.62301914829694405     
   8.6399999999999991E-002    0.74282025044784683     
   8.6699999999999999E-002    0.84690736314496051     
   8.7000000000000008E-002    0.93146161684975048     
   8.7300000000000003E-002    0.99300478257311797     
   8.7599999999999997E-002     1.0286669563057176     
   8.7900000000000006E-002     1.0364001820944049     
   8.8200000000000014E-002     1.0151953533103946     
   8.8499999999999995E-002    0.96493159173470044     
   8.8800000000000004E-002    0.88661281838206174     
   8.9100000000000013E-002    0.78254746149284860     
   8.9399999999999993E-002    0.65604471130164821     
   8.9700000000000002E-002    0.51139568492551823     
   9.0000000000000011E-002    0.35394924348592649     
   9.0299999999999991E-002    0.18983891345712520     
   9.0600000000000000E-002     2.5538422261885876E-002
   9.0900000000000009E-002   -0.13214277952993236     
   9.1200000000000017E-002   -0.27652543280540598     
   9.1499999999999998E-002   -0.40163042436462426     
   9.1800000000000007E-002   -0.50214671222418727     
   9.2100000000000001E-002   -0.57419918990223695     
   9.2399999999999996E-002   -0.61558656848707372     
   9.2700000000000005E-002   -0.62584798487018634     
   9.3000000000000013E-002   -0.60662584500257177     
   9.3300000000000008E-002   -0.56159453677697924     
   9.3600000000000003E-002   -0.49614455514957589     
   9.3899999999999997E-002   -0.41717901191425105     
   9.4200000000000006E-002   -0.33262913939886601     
   9.4500000000000001E-002   -0.25082963375723361     
   9.4800000000000009E-002   -0.17972057856908380     
   9.5100000000000004E-002   -0.12625598800765753     
   9.5399999999999999E-002    -9.5876313198988858E-002
   9.5699999999999993E-002    -9.1756171969262307E-002
   9.6000000000000002E-002   -0.11458100280148624     
   9.6300000000000011E-002   -0.16249370382092446     
   9.6600000000000005E-002   -0.23103172753081549     
   9.6900000000000000E-002   -0.31351166481561038     
   9.7200000000000009E-002   -0.40163480583044459     
   9.7499999999999989E-002   -0.48614811081830367     
   9.7799999999999998E-002   -0.55762534378752060     
   9.8100000000000007E-002   -0.60709648267907734     
   9.8400000000000015E-002   -0.62699930755336619     
   9.8699999999999996E-002   -0.61198084457721980     
   9.9000000000000005E-002   -0.55892371126263507     
   9.9300000000000013E-002   -0.46747892241856681     
   9.9599999999999994E-002   -0.34039460975902930     
   9.9900000000000003E-002   -0.18287407987017981     
  0.10020000000000001         -2.4824630767468062E-003
  0.10049999999999999         0.19104383603926015     
  0.10080000000000000         0.38677632185361577     
  0.10110000000000001         0.57312213426238989     
  0.10140000000000000         0.73843638852566074     
  0.10170000000000000         0.87163375337566773     
  0.10200000000000001         0.96302746092818547     
  0.10230000000000002          1.0049036570078538     
  0.10260000000000000         0.99153624269670892     
  0.10290000000000001         0.92017500010931030     
  0.10320000000000000         0.79102127374175435     
  0.10350000000000001         0.60717569717806319     
  0.10380000000000000         0.37512110986630604     
  0.10410000000000001         0.10412732288030351     
  0.10440000000000001        -0.19389167150501441     
  0.10470000000000000        -0.50470059308391968     
  0.10500000000000000        -0.81242261994535236     
  0.10530000000000000         -1.1001329240805864     
  0.10560000000000000         -1.3509542717869780     
  0.10590000000000001         -1.5486268738821214     
  0.10620000000000000         -1.6784872727434319     
  0.10650000000000001         -1.7285871214786499     
  0.10679999999999999         -1.6903686237814795     
  0.10710000000000000         -1.5595925781664848     
  0.10740000000000001         -1.3365385304153456     
  0.10770000000000000         -1.0266080917993565     
  0.10800000000000000        -0.64042793581663870     
  0.10830000000000001        -0.19317255540831033     
  0.10859999999999999         0.29587205795677313     
  0.10890000000000000         0.80408196335870652     
  0.10920000000000001          1.3069835685910884     
  0.10950000000000001          1.7794527712513228     
  0.10979999999999999          2.1973857514036306     
  0.11009999999999999          2.5391206318075832     
  0.11040000000000001          2.7868046295727078     
  0.11070000000000001          2.9274861324264942     
  0.11100000000000000          2.9540855391998031     
  0.11130000000000000          2.8657836436744342     
  0.11160000000000002          2.6677934679986528     
  0.11190000000000001          2.3709961974978402     
  0.11220000000000001          1.9914210705919588     
  0.11250000000000000          1.5487498983089474     
  0.11280000000000000          1.0650126761775838     
  0.11309999999999999         0.56336342408789730     
  0.11340000000000001          6.6578842256326570E-002
  0.11369999999999998        -0.40424703805795964     
  0.11400000000000000        -0.83068011731998770     
  0.11430000000000000         -1.1978447230281866     
  0.11460000000000002         -1.4945282679749730     
  0.11489999999999999         -1.7139935200980851     
  0.11520000000000001         -1.8533637208781297     
  0.11550000000000001         -1.9135521326501113     
  0.11580000000000000         -1.8986869730475286     
  0.11609999999999999         -1.8158838444625784     
  0.11640000000000002         -1.6744491775434558     
  0.11670000000000001         -1.4848556273938531     
  0.11700000000000001         -1.2590977941265047     
  0.11730000000000000         -1.0096549827876784     
  0.11760000000000000        -0.74864481742939981     
  0.11789999999999999        -0.48839166080385105     
  0.11820000000000001        -0.24047212057698791     
  0.11850000000000001         -1.5287571191001990E-002
  0.11880000000000000         0.17779024961885298     
  0.11910000000000000         0.33092524874751095     
  0.11940000000000002         0.43801789579693973     
  0.11970000000000001         0.49511375052443596     
  0.12000000000000001         0.50036316161319550     
  0.12030000000000000         0.45421703813026459     
  0.12060000000000000         0.35985135390816875     
  0.12089999999999999         0.22285720336344436     
  0.12119999999999999          5.1112591811636451E-002
  0.12150000000000001        -0.14526803469933738     
  0.12180000000000001        -0.35442494645888667     
  0.12210000000000000        -0.56323998094850714     
  0.12239999999999999        -0.75830076717320605     
  0.12270000000000002        -0.92645393113803087     
  0.12300000000000001         -1.0551980544549575     
  0.12330000000000001         -1.1344431438038891     
  0.12360000000000000         -1.1565272606365109     
  0.12390000000000000         -1.1166770266401977     
  0.12419999999999999         -1.0142097301780373     
  0.12450000000000001        -0.85191612027403163     
  0.12480000000000001        -0.63624261792262027     
  0.12509999999999999        -0.37699463404075945     
  0.12540000000000001         -8.6766033815882521E-002
  0.12570000000000003         0.21998959311483945     
  0.12600000000000000         0.52789377182169872     
  0.12630000000000002         0.82099740230663110     
  0.12659999999999999          1.0844641734509002     
  0.12690000000000001          1.3052112832131839     
  0.12719999999999998          1.4720748413971354     
  0.12750000000000000          1.5769263242448626     
  0.12780000000000002          1.6147434444957784     
  0.12809999999999999          1.5838956575180267     
  0.12840000000000001          1.4856811523891194     
  0.12869999999999998          1.3246923476777386     
  0.12900000000000000          1.1084376403742964     
  0.12930000000000003         0.84649162243187126     
  0.12959999999999999         0.55080860112382013     
  0.12990000000000002         0.23490510664638481     
  0.13019999999999998         -8.6703491092419246E-002
  0.13050000000000000        -0.39887582446816738     
  0.13080000000000003        -0.68662081893865745     
  0.13109999999999999        -0.93551753323345610     
  0.13140000000000002         -1.1328275012705569     
  0.13169999999999998         -1.2681834489569701     
  0.13200000000000001         -1.3341580415821610     
  0.13229999999999997         -1.3271521122975003     
  0.13260000000000000         -1.2477874567240590     
  0.13290000000000002         -1.1010976869986993     
  0.13319999999999999        -0.89648317067253702     
  0.13350000000000001        -0.64731960703005720     
  0.13380000000000003        -0.36986046715557580     
  0.13410000000000000         -8.2454869247602453E-002
  0.13440000000000002         0.19597610227767961     
  0.13469999999999999         0.44736852249458209     
  0.13500000000000001         0.65595548049620755     
  0.13529999999999998         0.80924509459932159     
  0.13560000000000000         0.89915935599375796     
  0.13590000000000002         0.92246375906856848     
  0.13619999999999999         0.88065134057447381     
  0.13650000000000001         0.77962987429482611     
  0.13680000000000003         0.62894218285307268     
  0.13710000000000000         0.44093435496290473     
  0.13740000000000002         0.22943818464627935     
  0.13769999999999999          8.3143889832134939E-003
  0.13800000000000001        -0.20914927938838207     
  0.13829999999999998        -0.41102643782708048     
  0.13860000000000000        -0.58779572136437741     
  0.13890000000000002        -0.73256264602282750     
  0.13919999999999999        -0.84050963660064737     
  0.13950000000000001        -0.90908853489029950     
  0.13979999999999998        -0.93804995511234612     
  0.14010000000000000        -0.92859129494386028     
  0.14040000000000002        -0.88274906611901205     
  0.14069999999999999        -0.80356221134970396     
  0.14100000000000001        -0.69496427952660167     
  0.14130000000000004        -0.56090771412573870     
  0.14160000000000000        -0.40564745213600290     
  0.14189999999999997        -0.23403028988296473     
  0.14219999999999999         -5.1286974500646274E-002
  0.14250000000000002         0.13711829051161314     
  0.14279999999999998         0.32544028057408830     
  0.14310000000000000         0.50736360794101276     
  0.14339999999999997         0.67659710670426432     
  0.14369999999999999         0.82708029586659126     
  0.14400000000000002         0.95296631745696980     
  0.14429999999999998          1.0490896541304695     
  0.14460000000000001          1.1112273764410403     
  0.14490000000000003          1.1365833113256958     
  0.14520000000000000          1.1234602761323103     
  0.14550000000000002          1.0718897420902120     
  0.14579999999999999         0.98345206673059848     
  0.14610000000000001         0.86128215636714511     
  0.14640000000000003         0.71004884276612945     
  0.14670000000000000         0.53534786952855207     
  0.14699999999999996         0.34402095576151603     
  0.14729999999999999         0.14354586173315864     
  0.14760000000000001         -5.8567417388120269E-002
  0.14789999999999998        -0.25450607996995145     
  0.14820000000000000        -0.43680721104051617     