  -1.4999999999999999E-002     0.0000000000000000     
  -1.4700000000000000E-002     0.0000000000000000     
  -1.4400000000000000E-002     0.0000000000000000     
  -1.4100000000000000E-002     0.0000000000000000     
  -1.3800000000000000E-002     0.0000000000000000     
  -1.3500000000000000E-002     0.0000000000000000     
  -1.3200000000000000E-002     0.0000000000000000     
  -1.2899999999999998E-002     0.0000000000000000     
  -1.2600000000000000E-002     0.0000000000000000     
  -1.2299999999999998E-002     0.0000000000000000     
  -1.2000000000000000E-002     0.0000000000000000     
  -1.1699999999999999E-002     0.0000000000000000     
  -1.1399999999999999E-002     0.0000000000000000     
  -1.1099999999999999E-002     0.0000000000000000     
  -1.0799999999999999E-002     0.0000000000000000     
  -1.0499999999999999E-002     0.0000000000000000     
  -1.0199999999999999E-002     0.0000000000000000     
  -9.8999999999999991E-003     0.0000000000000000     
  -9.5999999999999992E-003     0.0000000000000000     
  -9.2999999999999992E-003     0.0000000000000000     
  -8.9999999999999993E-003     0.0000000000000000     
  -8.6999999999999994E-003     0.0000000000000000     
  -8.3999999999999995E-003     0.0000000000000000     
  -8.0999999999999996E-003     0.0000000000000000     
  -7.7999999999999988E-003     0.0000000000000000     
  -7.4999999999999997E-003     0.0000000000000000     
  -7.1999999999999998E-003     0.0000000000000000     
  -6.8999999999999981E-003     0.0000000000000000     
  -6.5999999999999982E-003     0.0000000000000000     
  -6.3000000000000000E-003     0.0000000000000000     
  -6.0000000000000001E-003     0.0000000000000000     
  -5.6999999999999985E-003     0.0000000000000000     
  -5.3999999999999986E-003     0.0000000000000000     
  -5.1000000000000004E-003     0.0000000000000000     
  -4.7999999999999987E-003     0.0000000000000000     
  -4.5000000000000005E-003     0.0000000000000000     
  -4.1999999999999989E-003     0.0000000000000000     
  -3.8999999999999990E-003     0.0000000000000000     
  -3.5999999999999990E-003     0.0000000000000000     
  -3.2999999999999991E-003     0.0000000000000000     
  -2.9999999999999992E-003     0.0000000000000000     
  -2.6999999999999993E-003     0.0000000000000000     
  -2.3999999999999994E-003     0.0000000000000000     
  -2.0999999999999977E-003     0.0000000000000000     
  -1.7999999999999995E-003     0.0000000000000000     
  -1.4999999999999979E-003     0.0000000000000000     
  -1.1999999999999997E-003     0.0000000000000000     
  -8.9999999999999976E-004     0.0000000000000000     
  -5.9999999999999810E-004     0.0000000000000000     
  -2.9999999999999992E-004     0.0000000000000000     
   0.0000000000000000          0.0000000000000000     
   3.0000000000000165E-004     0.0000000000000000     
   5.9999999999999984E-004     0.0000000000000000     
   9.0000000000000149E-004     0.0000000000000000     
   1.2000000000000031E-003     0.0000000000000000     
   1.5000000000000013E-003     0.0000000000000000     
   1.8000000000000030E-003     0.0000000000000000     
   2.1000000000000012E-003     0.0000000000000000     
   2.3999999999999994E-003     0.0000000000000000     
   2.7000000000000010E-003     0.0000000000000000     
   2.9999999999999992E-003     0.0000000000000000     
   3.3000000000000008E-003     0.0000000000000000     
   3.6000000000000025E-003     0.0000000000000000     
   3.9000000000000007E-003     0.0000000000000000     
   4.2000000000000023E-003     0.0000000000000000     
   4.5000000000000005E-003     0.0000000000000000     
   4.7999999999999987E-003     0.0000000000000000     
   5.1000000000000004E-003     0.0000000000000000     
   5.4000000000000020E-003     0.0000000000000000     
   5.7000000000000037E-003     0.0000000000000000     
   5.9999999999999984E-003     0.0000000000000000     
   6.3000000000000000E-003     0.0000000000000000     
   6.6000000000000017E-003     0.0000000000000000     
   6.9000000000000034E-003     0.0000000000000000     
   7.2000000000000015E-003     0.0000000000000000     
   7.5000000000000032E-003     0.0000000000000000     
   7.8000000000000014E-003     0.0000000000000000     
   8.0999999999999996E-003     0.0000000000000000     
   8.4000000000000012E-003     0.0000000000000000     
   8.7000000000000029E-003     0.0000000000000000     
   9.0000000000000011E-003     0.0000000000000000     
   9.2999999999999992E-003     0.0000000000000000     
   9.6000000000000009E-003     0.0000000000000000     
   9.8999999999999991E-003     0.0000000000000000     
   1.0200000000000001E-002     0.0000000000000000     
   1.0500000000000002E-002     0.0000000000000000     
   1.0800000000000004E-002     0.0000000000000000     
   1.1099999999999999E-002     0.0000000000000000     
   1.1400000000000000E-002     0.0000000000000000     
   1.1700000000000002E-002     0.0000000000000000     
   1.2000000000000004E-002     0.0000000000000000     
   1.2300000000000002E-002     0.0000000000000000     
   1.2600000000000000E-002     0.0000000000000000     
   1.2900000000000002E-002     0.0000000000000000     
   1.3200000000000000E-002     0.0000000000000000     
   1.3500000000000002E-002     0.0000000000000000     
   1.3800000000000003E-002     0.0000000000000000     
   1.4100000000000001E-002     0.0000000000000000     
   1.4400000000000000E-002     0.0000000000000000     
   1.4700000000000001E-002     0.0000000000000000     
   1.4999999999999999E-002     0.0000000000000000     
   1.5300000000000001E-002     0.0000000000000000     
   1.5600000000000003E-002     0.0000000000000000     
   1.5899999999999997E-002     0.0000000000000000     
   1.6199999999999999E-002     0.0000000000000000     
   1.6500000000000001E-002     0.0000000000000000     
   1.6800000000000002E-002     0.0000000000000000     
   1.7100000000000004E-002     0.0000000000000000     
   1.7400000000000006E-002     0.0000000000000000     
   1.7700000000000000E-002     0.0000000000000000     
   1.8000000000000002E-002     0.0000000000000000     
   1.8300000000000004E-002     0.0000000000000000     
   1.8600000000000005E-002     0.0000000000000000     
   1.8900000000000000E-002     0.0000000000000000     
   1.9200000000000002E-002     0.0000000000000000     
   1.9500000000000003E-002     0.0000000000000000     
   1.9799999999999998E-002     0.0000000000000000     
   2.0100000000000000E-002     0.0000000000000000     
   2.0400000000000001E-002     0.0000000000000000     
   2.0700000000000003E-002     0.0000000000000000     
   2.0999999999999998E-002     0.0000000000000000     
   2.1299999999999999E-002     0.0000000000000000     
   2.1600000000000001E-002     0.0000000000000000     
   2.1900000000000003E-002     0.0000000000000000     
   2.2200000000000004E-002     0.0000000000000000     
   2.2500000000000006E-002     0.0000000000000000     
   2.2800000000000001E-002     0.0000000000000000     
   2.3100000000000002E-002     0.0000000000000000     
   2.3400000000000004E-002     0.0000000000000000     
   2.3699999999999999E-002     0.0000000000000000     
   2.4000000000000000E-002     0.0000000000000000     
   2.4300000000000002E-002     0.0000000000000000     
   2.4599999999999997E-002     0.0000000000000000     
   2.4900000000000005E-002     0.0000000000000000     
   2.5200000000000000E-002     0.0000000000000000     
   2.5499999999999995E-002     0.0000000000000000     
   2.5800000000000003E-002     6.0707106778840463E-044
   2.6099999999999998E-002    -3.5682669025033382E-043
   2.6400000000000007E-002    -5.8138526923413799E-037
   2.6700000000000002E-002     1.8849545239420380E-035
   2.6999999999999996E-002    -2.4162628065226743E-034
   2.7300000000000005E-002     6.3289933922210791E-034
   2.7600000000000000E-002    -4.9208599929914015E-034
   2.7900000000000008E-002    -2.3804765519558478E-034
   2.8200000000000003E-002    -1.1416279565565921E-033
   2.8499999999999998E-002     1.6420635499994615E-032
   2.8800000000000006E-002    -1.0634710683356332E-031
   2.9100000000000001E-002     5.1267480889283820E-031
   2.9400000000000003E-002    -2.0602181924091247E-030
   2.9700000000000004E-002     7.3191871911168279E-030
   3.0000000000000006E-002    -2.3741643228469835E-029
   3.0300000000000001E-002     7.1475059984729817E-029
   3.0600000000000002E-002    -2.0079139291873438E-028
   3.0900000000000004E-002     5.2469716193566616E-028
   3.1199999999999999E-002    -1.2598637431372135E-027
   3.1500000000000007E-002     2.7064520141362027E-027
   3.1800000000000002E-002    -4.8906540178835368E-027
   3.2099999999999997E-002     6.0524713211267628E-027
   3.2400000000000005E-002     1.9951206218119244E-027
   3.2700000000000000E-002    -4.5520200830503114E-026
   3.3000000000000002E-002     1.9316191433628948E-025
   3.3300000000000003E-002    -5.9556050627668485E-025
   3.3599999999999998E-002     1.5227681448093936E-024
   3.3900000000000000E-002    -3.3197734177856463E-024
   3.4200000000000001E-002     6.0710971130557626E-024
   3.4500000000000003E-002    -8.5839741082158444E-024
   3.4799999999999998E-002     6.1413050624695079E-024
   3.5099999999999999E-002     1.3751136217956260E-023
   3.5400000000000001E-002    -7.9387893118995792E-023
   3.5699999999999996E-002     2.4975292017755861E-022
   3.6000000000000004E-002    -6.2950774311770289E-022
   3.6299999999999999E-002     1.3188889711700066E-021
   3.6600000000000008E-002    -2.0986291785345156E-021
   3.6900000000000002E-002     1.6054959994330265E-021
   3.7199999999999997E-002     3.6617501381155008E-021
   3.7500000000000006E-002    -1.8781666101525465E-020
   3.7800000000000000E-002     4.6795347028252156E-020
   3.8100000000000009E-002    -8.5983400873901847E-020
   3.8400000000000004E-002     1.2974130654635088E-019
   3.8699999999999998E-002    -1.0841863932285535E-019
   3.9000000000000007E-002    -4.2045815460272256E-019
   3.9300000000000002E-002     2.8508805727301361E-018
   3.9600000000000003E-002    -8.8494506187411547E-018
   3.9900000000000005E-002     1.3714629254116570E-017
   4.0200000000000000E-002     9.9682776994462719E-018
   4.0500000000000001E-002    -1.2063886846174796E-016
   4.0800000000000003E-002     3.3793496566875658E-016
   4.1100000000000005E-002    -3.9946580838868028E-016
   4.1399999999999999E-002    -5.5658442819673246E-016
   4.1700000000000008E-002     3.6801554425687775E-015
   4.2000000000000003E-002    -8.1487879958586672E-015
   4.2299999999999997E-002     6.6195080096461806E-015
   4.2600000000000006E-002     1.7392423578644883E-014
   4.2900000000000001E-002    -7.8697959747646586E-014
   4.3200000000000002E-002     1.5058851558366181E-013
   4.3500000000000004E-002    -9.2129596332436075E-014
   4.3799999999999999E-002    -3.9688488853657678E-013
   4.4100000000000000E-002     1.5455481006474445E-012
   4.4400000000000002E-002    -2.5532526187019185E-012
   4.4700000000000004E-002     7.7864418539215429E-014
   4.4999999999999998E-002     1.0830869849422062E-011
   4.5300000000000000E-002    -2.7125337672869052E-011
   4.5600000000000002E-002     2.0032340315545187E-011
   4.5899999999999996E-002     6.1109847817046259E-011
   4.6200000000000005E-002    -2.0422819396750582E-010
   4.6500000000000000E-002     1.8248341295667740E-010
   4.6799999999999994E-002     3.6822365533557264E-010
   4.7100000000000003E-002    -1.1770571427636550E-009
   4.7399999999999998E-002     5.4711084904088289E-010
   4.7700000000000006E-002     2.4204716326385118E-009
   4.8000000000000001E-002    -2.8122972692237406E-009
   4.8300000000000010E-002    -3.6591834453262435E-009
   4.8600000000000004E-002    -9.5467316741894216E-010
   4.8899999999999999E-002     2.2265165904038524E-008
   4.9200000000000008E-002     3.4527134199561682E-008
   4.9500000000000002E-002    -1.8377459602966924E-007
   4.9800000000000011E-002    -2.1006082996609148E-007
   5.0100000000000006E-002     1.6192183498687198E-006
   5.0400000000000000E-002     5.9056208191660211E-006
   5.0700000000000009E-002     1.0657490455553672E-005
   5.1000000000000004E-002     1.4562990662792738E-005
   5.1299999999999998E-002     1.9397459409335028E-005
   5.1600000000000007E-002     2.8188327285002504E-005
   5.1900000000000002E-002     4.2857512228464939E-005
   5.2200000000000010E-002     6.3739435965120186E-005
   5.2500000000000005E-002     9.3797986407652455E-005
   5.2800000000000000E-002     1.4165777796945248E-004
   5.3099999999999994E-002     2.1484820313686634E-004
   5.3400000000000003E-002     3.1489888697475491E-004
   5.3699999999999998E-002     4.4666353439018654E-004
   5.4000000000000006E-002     6.2561620020627567E-004
   5.4300000000000001E-002     8.6554432858890662E-004
   5.4599999999999996E-002     1.1725193572852859E-003
   5.4900000000000004E-002     1.5591208945516680E-003
   5.5199999999999999E-002     2.0436310961546894E-003
   5.5499999999999994E-002     2.6342029935525349E-003
   5.5800000000000002E-002     3.3285535665381945E-003
   5.6099999999999997E-002     4.1212573997285590E-003
   5.6400000000000006E-002     4.9990238267046501E-003
   5.6700000000000000E-002     5.9344940879222305E-003
   5.6999999999999995E-002     6.8822503788126873E-003
   5.7300000000000004E-002     7.7672891045204480E-003
   5.7599999999999998E-002     8.4998656984568936E-003
   5.7900000000000007E-002     8.9948963986632730E-003
   5.8200000000000002E-002     9.1541881378604771E-003
   5.8499999999999996E-002     8.8541991059927112E-003
   5.8800000000000005E-002     7.9885871573611815E-003
   5.9100000000000000E-002     6.4968726542391098E-003
   5.9400000000000008E-002     4.3529715553962817E-003
   5.9700000000000003E-002     1.5779922576383803E-003
   6.0000000000000012E-002    -1.7288737193171043E-003
   6.0300000000000006E-002    -5.4026797547161937E-003
   6.0600000000000001E-002    -9.2179788838360702E-003
   6.0900000000000010E-002    -1.2887108071440398E-002
   6.1200000000000004E-002    -1.6092124993484513E-002
   6.1500000000000013E-002    -1.8547211412074396E-002
   6.1800000000000008E-002    -2.0039113078066891E-002
   6.2100000000000002E-002    -2.0476470939250327E-002
   6.2399999999999997E-002    -1.9941235723081190E-002
   6.2700000000000006E-002    -1.8719796489762418E-002
   6.3000000000000000E-002    -1.7344158104086793E-002
   6.3300000000000009E-002    -1.6568170171664013E-002
   6.3600000000000004E-002    -1.7324060372306670E-002
   6.3899999999999998E-002    -2.0617833909019910E-002
   6.4199999999999993E-002    -2.7435634598265927E-002
   6.4500000000000002E-002    -3.8601280508118160E-002
   6.4800000000000010E-002    -5.4633445639745426E-002
   6.5100000000000005E-002    -7.5570520993529580E-002
   6.5400000000000000E-002   -0.10085942025763775     
   6.5700000000000008E-002   -0.12932099234685371     
   6.5999999999999989E-002   -0.15915864172310867     
   6.6299999999999998E-002   -0.18799839014709432     
   6.6600000000000006E-002   -0.21303965405322364     
   6.6900000000000001E-002   -0.23131744535559021     
   6.7199999999999996E-002   -0.23994056653091114     
   6.7500000000000004E-002   -0.23640231460912059     
   6.7800000000000013E-002   -0.21878075286155402     
   6.8099999999999994E-002   -0.18610115165589045     
   6.8400000000000002E-002   -0.13844645080509024     
   6.8700000000000011E-002    -7.7043194527567055E-002
   6.8999999999999992E-002    -4.2254073442903033E-003
   6.9300000000000000E-002     7.6625483674604103E-002
   6.9600000000000009E-002    0.16134668673863370     
   6.9900000000000004E-002    0.24523235216846503     
   7.0199999999999999E-002    0.32332785910037393     
   7.0500000000000007E-002    0.39084093473489939     
   7.0800000000000016E-002    0.44339315621573971     
   7.1099999999999997E-002    0.47735403451150904     
   7.1400000000000005E-002    0.48999820686475637     
   7.1700000000000000E-002    0.47977496894597055     
   7.1999999999999995E-002    0.44635881963968288     
   7.2300000000000003E-002    0.39071010871792700     
   7.2600000000000012E-002    0.31501674361423432     
   7.2900000000000006E-002    0.22271469336713728     
   7.3200000000000001E-002    0.11827550559916195     
   7.3499999999999996E-002     7.0721177977204541E-003
   7.3800000000000004E-002   -0.10488267663573109     
   7.4099999999999999E-002   -0.21119509876117079     
   7.4400000000000008E-002   -0.30541183201918609     
   7.4700000000000003E-002   -0.38152419178109875     
   7.5000000000000011E-002   -0.43421782794579428     
   7.5299999999999992E-002   -0.45955111492160233     
   7.5600000000000001E-002   -0.45505570513958182     
   7.5900000000000009E-002   -0.42049487852264161     
   7.6200000000000004E-002   -0.35768881176931766     
   7.6499999999999999E-002   -0.27088308388952470     
   7.6800000000000007E-002   -0.16645789517057130     
   7.7099999999999988E-002    -5.2769276440181048E-002
   7.7399999999999997E-002     6.0626676320431123E-002
   7.7700000000000005E-002    0.16346489230868752     
   7.8000000000000014E-002    0.24578634064597785     
   7.8299999999999995E-002    0.29883529279916837     
   7.8600000000000003E-002    0.31606052771330623     
   7.8900000000000012E-002    0.29366402258699054     
   7.9199999999999993E-002    0.23145677099170039     
   7.9500000000000001E-002    0.13280962422493825     
   7.9800000000000010E-002     4.7893456485267180E-003
   8.0100000000000018E-002   -0.14251903940067578     
   8.0399999999999999E-002   -0.29654000290678306     
   8.0700000000000008E-002   -0.44349775617752152     
   8.1000000000000003E-002   -0.56954926957545793     
   8.1299999999999997E-002   -0.66207153104881233     
   8.1600000000000006E-002   -0.71074497988727570     
   8.1900000000000014E-002   -0.70861369447493283     
   8.2199999999999995E-002   -0.65260910851198606     
   8.2500000000000004E-002   -0.54385238536996783     
   8.2799999999999999E-002   -0.38750096599827494     
   8.3100000000000007E-002   -0.19236191343697115     
   8.3400000000000002E-002     3.0226139644309515E-002
   8.3700000000000011E-002    0.26711214741157369     
   8.4000000000000005E-002    0.50465102339040790     
   8.4300000000000000E-002    0.72964926073700065     
   8.4599999999999995E-002    0.93031622622423982     
   8.4900000000000003E-002     1.0971615490479563     
   8.5199999999999998E-002     1.2233891670796064     
   8.5500000000000007E-002     1.3048695513278235     
   8.5800000000000001E-002     1.3404197878831543     
   8.6100000000000010E-002     1.3312782228298223     
   8.6399999999999991E-002     1.2807676958985303     
   8.6699999999999999E-002     1.1937489658492366     
   8.7000000000000008E-002     1.0760344393060093     
   8.7300000000000003E-002    0.93395532172165829     
   8.7599999999999997E-002    0.77391255596647623     
   8.7900000000000006E-002    0.60208684583526206     
   8.8200000000000014E-002    0.42424479187714298     
   8.8499999999999995E-002    0.24554796270381674     
   8.8800000000000004E-002     7.0685418551306348E-002
   8.9100000000000013E-002    -9.6250154526917681E-002
   8.9399999999999993E-002   -0.25168568898579313     
   8.9700000000000002E-002   -0.39249239560291133     
   9.0000000000000011E-002   -0.51609892981628336     
   9.0299999999999991E-002   -0.62014247436196057     
   9.0600000000000000E-002   -0.70320619693894415     
   9.0900000000000009E-002   -0.76407195770439795     
   9.1200000000000017E-002   -0.80242748785876228     
   9.1499999999999998E-002   -0.81841172605470724     
   9.1800000000000007E-002   -0.81323440800218816     
   9.2100000000000001E-002   -0.78853788023083271     
   9.2399999999999996E-002   -0.74690022225598129     
   9.2700000000000005E-002   -0.69139649721598118     
   9.3000000000000013E-002   -0.62562557367040883     
   9.3300000000000008E-002   -0.55344291833431458     
   9.3600000000000003E-002   -0.47890853104214720     
   9.3899999999999997E-002   -0.40584861263103938     
   9.4200000000000006E-002   -0.33796434301167860     
   9.4500000000000001E-002   -0.27830649648859174     
   9.4800000000000009E-002   -0.22925533985512475     
   9.5100000000000004E-002   -0.19247922206672163     
   9.5399999999999999E-002   -0.16880518759516003     
   9.5699999999999993E-002   -0.15803211596550629     
   9.6000000000000002E-002   -0.15927973622211666     
   9.6300000000000011E-002   -0.17057743015976751     
   9.6600000000000005E-002   -0.18966050480331023     
   9.6900000000000000E-002   -0.21340192234656410     
   9.7200000000000009E-002   -0.23866106980437965     
   9.7499999999999989E-002   -0.26190245354361313     
   9.7799999999999998E-002   -0.27998653301261134     
   9.8100000000000007E-002   -0.28970575920767611     
   9.8400000000000015E-002   -0.28898326762348786     
   9.8699999999999996E-002   -0.27591987540398849     
   9.9000000000000005E-002   -0.24979087890432813     
   9.9300000000000013E-002   -0.21070109256828012     
   9.9599999999999994E-002   -0.15973949256337402     
   9.9900000000000003E-002    -9.8837231423644950E-002
  0.10020000000000001         -3.0701758257555778E-002
  0.10049999999999999          4.1201291934662564E-002
  0.10080000000000000         0.11316326473344039     
  0.10110000000000001         0.18139562039600909     
  0.10140000000000000         0.24185102530988931     
  0.10170000000000000         0.29110981958500692     
  0.10200000000000001         0.32597755199994144     
  0.10230000000000002         0.34393801265009200     
  0.10260000000000000         0.34330319779503593     
  0.10290000000000001         0.32285490761066399     
  0.10320000000000000         0.28260211208260799     
  0.10350000000000001         0.22295056980889258     
  0.10380000000000000         0.14576000441842216     
  0.10410000000000001          5.3023971249538900E-002
  0.10440000000000001         -5.1609376030091018E-002
  0.10470000000000000        -0.16407568667575520     
  0.10500000000000000        -0.27929794950124698     
  0.10530000000000000        -0.39138676794235355     
  0.10560000000000000        -0.49374164336016718     
  0.10590000000000001        -0.57931638347490266     
  0.10620000000000000        -0.64145624886759212     
  0.10650000000000001        -0.67324543222108180     
  0.10679999999999999        -0.66939849132954343     
  0.10710000000000000        -0.62555278333905207     
  0.10740000000000001        -0.53993781121910689     
  0.10770000000000000        -0.41297640991666917     
  0.10800000000000000        -0.24816141089981006     
  0.10830000000000001         -5.2142922233057630E-002
  0.10859999999999999         0.16591415318113931     
  0.10890000000000000         0.39385038299113284     
  0.10920000000000001         0.61831151426619024     
  0.10950000000000001         0.82433889759907975     
  0.10979999999999999         0.99767730730439141     
  0.11009999999999999          1.1252574713642889     
  0.11040000000000001          1.1963028698011557     
  0.11070000000000001          1.2035581864768825     
  0.11100000000000000          1.1438847598852051     
  0.11130000000000000          1.0188181246003272     
  0.11160000000000002         0.83436428268574703     
  0.11190000000000001         0.60093622516687417     
  0.11220000000000001         0.33247366044676979     
  0.11250000000000000          4.5690878051518835E-002
  0.11280000000000000        -0.24145817457834995     
  0.11309999999999999        -0.51051389455830798     
  0.11340000000000001        -0.74464105427733218     
  0.11369999999999998        -0.92905579464633004     
  0.11400000000000000         -1.0522432138321940     
  0.11430000000000000         -1.1069735072390869     
  0.11460000000000002         -1.0903941159607802     
  0.11489999999999999         -1.0039615395678239     
  0.11520000000000001        -0.85355619376710590     
  0.11550000000000001        -0.64871923255781050     
  0.11580000000000000        -0.40170712919488000     
  0.11609999999999999        -0.12673004814173941     
  0.11640000000000002         0.16098420159736471     
  0.11670000000000001         0.44668747934907282     
  0.11700000000000001         0.71645383118706429     
  0.11730000000000000         0.95843211094907277     
  0.11760000000000000          1.1631644630579694     
  0.11789999999999999          1.3241712671161614     
  0.11820000000000001          1.4374578799780788     
  0.11850000000000001          1.5020041086692668     
  0.11880000000000000          1.5189014334494937     
  0.11910000000000000          1.4908879722172577     
  0.11940000000000002          1.4219487717654880     
  0.11970000000000001          1.3165049463300011     
  0.12000000000000001          1.1788758053120920     
  0.12030000000000000          1.0134635083666750     
  0.12060000000000000         0.82372649531424968     
  0.12089999999999999         0.61333557677000472     
  0.12119999999999999         0.38554516598167626     
  0.12150000000000001         0.14436479265337399     
  0.12180000000000001        -0.10542370121190062     
  0.12210000000000000        -0.35771712770645914     
  0.12239999999999999        -0.60487625706316750     
  0.12270000000000002        -0.83757601684845817     
  0.12300000000000001         -1.0454515162833364     
  0.12330000000000001         -1.2175312084576155     
  0.12360000000000000         -1.3432039164042722     
  0.12390000000000000         -1.4137137169941265     
  0.12419999999999999         -1.4226775482857739     
  0.12450000000000001         -1.3681280988218592     
  0.12480000000000001         -1.2527296959475334     
  0.12509999999999999         -1.0845659211761716     
  0.12540000000000001        -0.87683729597012250     
  0.12570000000000003        -0.64741913410324026     
  0.12600000000000000        -0.41758892288853910     
  0.12630000000000002        -0.20994567445371135     
  0.12659999999999999         -4.6897740371637311E-002
  0.12690000000000001          5.2044311702790308E-002
  0.12719999999999998          7.2240529784678209E-002
  0.12750000000000000          5.8255329646488448E-003
  0.12780000000000002        -0.14686088452845369     
  0.12809999999999999        -0.37710773168386075     
  0.12840000000000001        -0.66771955693389229     
  0.12869999999999998        -0.99405867647085433     
  0.12900000000000000         -1.3259744089358476     
  0.12930000000000003         -1.6305211214272979     
  0.12959999999999999         -1.8742088714936669     
  0.12990000000000002         -2.0263726189542339     
  0.13019999999999998         -2.0619899759992268     
  0.13050000000000000         -1.9639442765232666     
  0.13080000000000003         -1.7249223876150122     
  0.13109999999999999         -1.3480438967714714     
  0.13140000000000002        -0.84739344055539267     
  0.13169999999999998        -0.24671864156165105     
  0.13200000000000001         0.42177634967970190     
  0.13229999999999997          1.1204550147809269     
  0.13260000000000000          1.8084043085932644     
  0.13290000000000002          2.4448272956816113     
  0.13319999999999999          2.9922580458276533     
  0.13350000000000001          3.4186734868135584     
  0.13380000000000003          3.7006425555217120     
  0.13410000000000000          3.8242528123890787     
  0.13440000000000002          3.7861637746011301     
  0.13469999999999999          3.5936581756679344     
  0.13500000000000001          3.2637531417611299     
  0.13529999999999998          2.8218936572557971     
  0.13560000000000000          2.2993211392108588     
  0.13590000000000002          1.7308294417108929     
  0.13619999999999999          1.1522132998267482     
  0.13650000000000001         0.59690549580029861     
  0.13680000000000003          9.4217567506544420E-002
  0.13710000000000000        -0.33353247902657196     
  0.13740000000000002        -0.67160977964403668     
  0.13769999999999999        -0.91449309616420127     
  0.13800000000000001         -1.0648287560720662     
  0.13829999999999998         -1.1337563904711190     
  0.13860000000000000         -1.1378841193806886     
  0.13890000000000002         -1.0991810227099790     
  0.13919999999999999         -1.0403416895021893     
  0.13950000000000001        -0.98468417216927373     
  0.13979999999999998        -0.95170193273270709     
  0.14010000000000000        -0.95693861123161872     
  0.14040000000000002         -1.0090179874544141     
  0.14069999999999999         -1.1101781564907081     
  0.14100000000000001         -1.2554915434627669     
  0.14130000000000004         -1.4341638664452829     
  0.14160000000000000         -1.6305460450646885     
  0.14189999999999997         -1.8260389265125796     
  0.14219999999999999         -2.0009851367611522     
  0.14250000000000002         -2.1368143708971892     
  0.14279999999999998         -2.2176752495079590     
  0.14310000000000000         -2.2320314114614384     
  0.14339999999999997         -2.1730135391107681     
  0.14369999999999999         -2.0389863183420336     
  0.14400000000000002         -1.8338192808779799     
  0.14429999999999998         -1.5647851462531268     
  0.14460000000000001         -1.2429335413475524     
  0.14490000000000003        -0.88041719743332914     
  0.14520000000000000        -0.49089946512830168     
  0.14550000000000002         -8.6890376493708329E-002
  0.14579999999999999         0.31954522397383500     
  0.14610000000000001         0.71848128431493985     
  0.14640000000000003          1.1010350723550351     
  0.14670000000000000          1.4597808017236251     
  0.14699999999999996          1.7883968616545147     
  0.14729999999999999          2.0803743042667682     
  0.14760000000000001          2.3292857204875026     
  0.14789999999999998          2.5280176522450395     
  0.14820000000000000          2.6691559952270212     