  -1.4999999999999999E-002     0.0000000000000000     
  -1.4700000000000000E-002     0.0000000000000000     
  -1.4400000000000000E-002     0.0000000000000000     
  -1.4100000000000000E-002     0.0000000000000000     
  -1.3800000000000000E-002     0.0000000000000000     
  -1.3500000000000000E-002     0.0000000000000000     
  -1.3200000000000000E-002     0.0000000000000000     
  -1.2899999999999998E-002     0.0000000000000000     
  -1.2600000000000000E-002     0.0000000000000000     
  -1.2299999999999998E-002     0.0000000000000000     
  -1.2000000000000000E-002     0.0000000000000000     
  -1.1699999999999999E-002     0.0000000000000000     
  -1.1399999999999999E-002     0.0000000000000000     
  -1.1099999999999999E-002     0.0000000000000000     
  -1.0799999999999999E-002     0.0000000000000000     
  -1.0499999999999999E-002     0.0000000000000000     
  -1.0199999999999999E-002     0.0000000000000000     
  -9.8999999999999991E-003     0.0000000000000000     
  -9.5999999999999992E-003     0.0000000000000000     
  -9.2999999999999992E-003     0.0000000000000000     
  -8.9999999999999993E-003     0.0000000000000000     
  -8.6999999999999994E-003     0.0000000000000000     
  -8.3999999999999995E-003     0.0000000000000000     
  -8.0999999999999996E-003     0.0000000000000000     
  -7.7999999999999988E-003     0.0000000000000000     
  -7.4999999999999997E-003     0.0000000000000000     
  -7.1999999999999998E-003     0.0000000000000000     
  -6.8999999999999981E-003     0.0000000000000000     
  -6.5999999999999982E-003     0.0000000000000000     
  -6.3000000000000000E-003     0.0000000000000000     
  -6.0000000000000001E-003     0.0000000000000000     
  -5.6999999999999985E-003     0.0000000000000000     
  -5.3999999999999986E-003     0.0000000000000000     
  -5.1000000000000004E-003     0.0000000000000000     
  -4.7999999999999987E-003     0.0000000000000000     
  -4.5000000000000005E-003     0.0000000000000000     
  -4.1999999999999989E-003     0.0000000000000000     
  -3.8999999999999990E-003     0.0000000000000000     
  -3.5999999999999990E-003     0.0000000000000000     
  -3.2999999999999991E-003     0.0000000000000000     
  -2.9999999999999992E-003     0.0000000000000000     
  -2.6999999999999993E-003     0.0000000000000000     
  -2.3999999999999994E-003     0.0000000000000000     
  -2.0999999999999977E-003     0.0000000000000000     
  -1.7999999999999995E-003     0.0000000000000000     
  -1.4999999999999979E-003     0.0000000000000000     
  -1.1999999999999997E-003     0.0000000000000000     
  -8.9999999999999976E-004     0.0000000000000000     
  -5.9999999999999810E-004     0.0000000000000000     
  -2.9999999999999992E-004     0.0000000000000000     
   0.0000000000000000          0.0000000000000000     
   3.0000000000000165E-004     0.0000000000000000     
   5.9999999999999984E-004     0.0000000000000000     
   9.0000000000000149E-004     0.0000000000000000     
   1.2000000000000031E-003     0.0000000000000000     
   1.5000000000000013E-003     0.0000000000000000     
   1.8000000000000030E-003     0.0000000000000000     
   2.1000000000000012E-003     0.0000000000000000     
   2.3999999999999994E-003     0.0000000000000000     
   2.7000000000000010E-003     0.0000000000000000     
   2.9999999999999992E-003     0.0000000000000000     
   3.3000000000000008E-003     0.0000000000000000     
   3.6000000000000025E-003     0.0000000000000000     
   3.9000000000000007E-003     0.0000000000000000     
   4.2000000000000023E-003     0.0000000000000000     
   4.5000000000000005E-003     0.0000000000000000     
   4.7999999999999987E-003     0.0000000000000000     
   5.1000000000000004E-003     0.0000000000000000     
   5.4000000000000020E-003     0.0000000000000000     
   5.7000000000000037E-003     0.0000000000000000     
   5.9999999999999984E-003     0.0000000000000000     
   6.3000000000000000E-003     0.0000000000000000     
   6.6000000000000017E-003     0.0000000000000000     
   6.9000000000000034E-003     0.0000000000000000     
   7.2000000000000015E-003     0.0000000000000000     
   7.5000000000000032E-003     0.0000000000000000     
   7.8000000000000014E-003     0.0000000000000000     
   8.0999999999999996E-003     0.0000000000000000     
   8.4000000000000012E-003     0.0000000000000000     
   8.7000000000000029E-003     0.0000000000000000     
   9.0000000000000011E-003     0.0000000000000000     
   9.2999999999999992E-003     0.0000000000000000     
   9.6000000000000009E-003     0.0000000000000000     
   9.8999999999999991E-003     0.0000000000000000     
   1.0200000000000001E-002     0.0000000000000000     
   1.0500000000000002E-002     0.0000000000000000     
   1.0800000000000004E-002     0.0000000000000000     
   1.1099999999999999E-002     0.0000000000000000     
   1.1400000000000000E-002     0.0000000000000000     
   1.1700000000000002E-002     0.0000000000000000     
   1.2000000000000004E-002     0.0000000000000000     
   1.2300000000000002E-002     0.0000000000000000     
   1.2600000000000000E-002     0.0000000000000000     
   1.2900000000000002E-002     0.0000000000000000     
   1.3200000000000000E-002     0.0000000000000000     
   1.3500000000000002E-002     0.0000000000000000     
   1.3800000000000003E-002     0.0000000000000000     
   1.4100000000000001E-002     0.0000000000000000     
   1.4400000000000000E-002     0.0000000000000000     
   1.4700000000000001E-002     0.0000000000000000     
   1.4999999999999999E-002     0.0000000000000000     
   1.5300000000000001E-002     0.0000000000000000     
   1.5600000000000003E-002     0.0000000000000000     
   1.5899999999999997E-002     0.0000000000000000     
   1.6199999999999999E-002     0.0000000000000000     
   1.6500000000000001E-002     0.0000000000000000     
   1.6800000000000002E-002     0.0000000000000000     
   1.7100000000000004E-002     0.0000000000000000     
   1.7400000000000006E-002     0.0000000000000000     
   1.7700000000000000E-002     0.0000000000000000     
   1.8000000000000002E-002     0.0000000000000000     
   1.8300000000000004E-002     0.0000000000000000     
   1.8600000000000005E-002     0.0000000000000000     
   1.8900000000000000E-002     0.0000000000000000     
   1.9200000000000002E-002     0.0000000000000000     
   1.9500000000000003E-002     0.0000000000000000     
   1.9799999999999998E-002     0.0000000000000000     
   2.0100000000000000E-002     0.0000000000000000     
   2.0400000000000001E-002     0.0000000000000000     
   2.0700000000000003E-002     0.0000000000000000     
   2.0999999999999998E-002     0.0000000000000000     
   2.1299999999999999E-002     0.0000000000000000     
   2.1600000000000001E-002     0.0000000000000000     
   2.1900000000000003E-002     0.0000000000000000     
   2.2200000000000004E-002     0.0000000000000000     
   2.2500000000000006E-002     0.0000000000000000     
   2.2800000000000001E-002     0.0000000000000000     
   2.3100000000000002E-002     0.0000000000000000     
   2.3400000000000004E-002     0.0000000000000000     
   2.3699999999999999E-002     0.0000000000000000     
   2.4000000000000000E-002     0.0000000000000000     
   2.4300000000000002E-002     0.0000000000000000     
   2.4599999999999997E-002     0.0000000000000000     
   2.4900000000000005E-002     0.0000000000000000     
   2.5200000000000000E-002     0.0000000000000000     
   2.5499999999999995E-002     0.0000000000000000     
   2.5800000000000003E-002    -4.6692200768837959E-041
   2.6099999999999998E-002     2.5296871665620456E-040
   2.6400000000000007E-002    -4.6015621300955764E-039
   2.6700000000000002E-002    -1.5245171860258362E-036
   2.6999999999999996E-002     1.8925893556598391E-035
   2.7300000000000005E-002    -1.6769508473814685E-034
   2.7600000000000000E-002     3.8979308006900984E-034
   2.7900000000000008E-002     1.0429987053804004E-033
   2.8200000000000003E-002    -5.7070582905849463E-033
   2.8499999999999998E-002     1.2919299627431669E-032
   2.8800000000000006E-002    -1.9093584272298277E-032
   2.9100000000000001E-002    -9.1047997093606014E-033
   2.9400000000000003E-002     2.3921689141073014E-031
   2.9700000000000004E-002    -1.3153818127078700E-030
   3.0000000000000006E-002     5.4067683561264238E-030
   3.0300000000000001E-002    -1.9202875878694572E-029
   3.0600000000000002E-002     6.1677161059493227E-029
   3.0900000000000004E-002    -1.8207647591620526E-028
   3.1199999999999999E-002     4.9537526744216812E-028
   3.1500000000000007E-002    -1.2333713749939239E-027
   3.1800000000000002E-002     2.7563855284282224E-027
   3.2099999999999997E-002    -5.2860845913345117E-027
   3.2400000000000005E-002     7.6228335746448688E-027
   3.2700000000000000E-002    -3.0275299965648530E-027
   3.3000000000000002E-002    -3.1343174570221289E-026
   3.3300000000000003E-002     1.5653377532999995E-025
   3.3599999999999998E-002    -5.0690813477530706E-025
   3.3900000000000000E-002     1.3182401395056364E-024
   3.4200000000000001E-002    -2.8660815574936103E-024
   3.4500000000000003E-002     5.1084396529147985E-024
   3.4799999999999998E-002    -6.6745155791837737E-024
   3.5099999999999999E-002     2.7949816560938413E-024
   3.5400000000000001E-002     1.8018573367387635E-023
   3.5699999999999996E-002    -7.8349730413073170E-023
   3.6000000000000004E-002     2.1621260928604919E-022
   3.6299999999999999E-002    -4.8188428659111073E-022
   3.6600000000000008E-002     8.9270593123091212E-022
   3.6900000000000002E-002    -1.2527829289660244E-021
   3.7199999999999997E-002     7.1236585985540303E-022
   3.7500000000000006E-002     2.9023123075745535E-021
   3.7800000000000000E-002    -1.3601394184377290E-020
   3.8100000000000009E-002     3.7043512497194926E-020
   3.8400000000000004E-002    -7.7714427371079310E-020
   3.8699999999999998E-002     1.1849517170113769E-019
   3.9000000000000007E-002    -2.7573888975859574E-020
   3.9300000000000002E-002    -6.7673080499814224E-019
   3.9600000000000003E-002     2.9689058840159333E-018
   3.9900000000000005E-002    -7.0184289999720795E-018
   4.0200000000000000E-002     6.7016142299641758E-018
   4.0500000000000001E-002     1.9985575326105605E-017
   4.0800000000000003E-002    -1.0798575335391805E-016
   4.1100000000000005E-002     2.4215954913099655E-016
   4.1399999999999999E-002    -1.8835757272509104E-016
   4.1700000000000008E-002    -6.6976209312045841E-016
   4.2000000000000003E-002     2.9753987355373094E-015
   4.2299999999999997E-002    -5.6827149832363921E-015
   4.2600000000000006E-002     2.9470264002392295E-015
   4.2900000000000001E-002     1.7167060735980451E-014
   4.3200000000000002E-002    -6.3475644868344725E-014
   4.3500000000000004E-002     1.0937081434417735E-013
   4.3799999999999999E-002    -3.5011542190163170E-014
   4.4100000000000000E-002    -3.9707066822589659E-013
   4.4400000000000002E-002     1.3102422719820101E-012
   4.4700000000000004E-002    -1.8675365417788320E-012
   4.4999999999999998E-002    -9.0630247014184942E-013
   4.5300000000000000E-002     1.0831126896671783E-011
   4.5600000000000002E-002    -2.3286629732265027E-011
   4.5899999999999996E-002     9.2814953156099900E-012
   4.6200000000000005E-002     7.6502864495471461E-011
   4.6500000000000000E-002    -2.0378478509904656E-010
   4.6799999999999994E-002     1.1481563568411664E-010
   4.7100000000000003E-002     5.5589935808339352E-010
   4.7399999999999998E-002    -1.4086413876210993E-009
   4.7700000000000006E-002     3.7515689672318554E-010
   4.8000000000000001E-002     4.0916171099351901E-009
   4.8300000000000010E-002    -6.8344599506570730E-009
   4.8600000000000004E-002    -3.2021041477467819E-009
   4.8899999999999999E-002     2.2714603756228125E-008
   4.9200000000000008E-002    -1.9137393319276613E-008
   4.9500000000000002E-002    -3.5800706062817025E-008
   4.9800000000000011E-002     1.0284233479094802E-007
   5.0100000000000006E-002    -3.7061368428825890E-008
   5.0400000000000000E-002    -3.8021943569204848E-007
   5.0700000000000009E-002     7.7589850851940266E-007
   5.1000000000000004E-002     4.2810448029506453E-006
   5.1299999999999998E-002     8.4971815108815375E-006
   5.1600000000000007E-002     1.2096079896227256E-005
   5.1900000000000002E-002     1.5944474435945332E-005
   5.2200000000000010E-002     2.2636352294151965E-005
   5.2500000000000005E-002     3.4709255386446883E-005
   5.2800000000000000E-002     5.2336423397920065E-005
   5.3099999999999994E-002     7.6068822166029489E-005
   5.3400000000000003E-002     1.1256522782353444E-004
   5.3699999999999998E-002     1.7147114387944698E-004
   5.4000000000000006E-002     2.5523641124432434E-004
   5.4300000000000001E-002     3.6465109592789818E-004
   5.4599999999999996E-002     5.1184970493734416E-004
   5.4900000000000004E-002     7.1078526503234711E-004
   5.5199999999999999E-002     9.6751036883436429E-004
   5.5499999999999994E-002     1.2902672115349247E-003
   5.5800000000000002E-002     1.6947134538793018E-003
   5.6099999999999997E-002     2.1921537762209062E-003
   5.6400000000000006E-002     2.7822505543071375E-003
   5.6700000000000000E-002     3.4590368098611438E-003
   5.6999999999999995E-002     4.2098768896421338E-003
   5.7300000000000004E-002     5.0134709047471963E-003
   5.7599999999999998E-002     5.8355683855404235E-003
   5.7900000000000007E-002     6.6145193309487295E-003
   5.8200000000000002E-002     7.2697325281298056E-003
   5.8499999999999996E-002     7.7220652971662501E-003
   5.8800000000000005E-002     7.8902890058521885E-003
   5.9100000000000000E-002     7.6720525308005688E-003
   5.9400000000000008E-002     6.9678297722807784E-003
   5.9700000000000003E-002     5.7181017281774512E-003
   6.0000000000000012E-002     3.9017205248314656E-003
   6.0300000000000006E-002     1.5382599758720578E-003
   6.0600000000000001E-002    -1.2868614218296223E-003
   6.0900000000000010E-002    -4.4183968163179236E-003
   6.1200000000000004E-002    -7.6422392942186454E-003
   6.1500000000000013E-002    -1.0688674904269226E-002
   6.1800000000000008E-002    -1.3253053922852498E-002
   6.2100000000000002E-002    -1.5042077453427519E-002
   6.2399999999999997E-002    -1.5818860969312169E-002
   6.2700000000000006E-002    -1.5460163458220981E-002
   6.3000000000000000E-002    -1.4007516851188662E-002
   6.3300000000000009E-002    -1.1683712429161998E-002
   6.3600000000000004E-002    -8.9380049801926851E-003
   6.3899999999999998E-002    -6.4674075914090178E-003
   6.4199999999999993E-002    -5.1633951712416713E-003
   6.4500000000000002E-002    -6.0261903333243515E-003
   6.4800000000000010E-002    -1.0079034711069497E-002
   6.5100000000000005E-002    -1.8252059103264818E-002
   6.5400000000000000E-002    -3.1242572766091388E-002
   6.5700000000000008E-002    -4.9358176640760573E-002
   6.5999999999999989E-002    -7.2379816871912014E-002
   6.6299999999999998E-002    -9.9479070448317219E-002
   6.6600000000000006E-002   -0.12925151673260285     
   6.6900000000000001E-002   -0.15973714803161437     
   6.7199999999999996E-002   -0.18847310760928387     
   6.7500000000000004E-002   -0.21269903943166460     
   6.7800000000000013E-002   -0.22964143799814973     
   6.8099999999999994E-002   -0.23673624088660805     
   6.8400000000000002E-002   -0.23184603852525001     
   6.8700000000000011E-002   -0.21354186357472635     
   6.8999999999999992E-002   -0.18130835278085619     
   6.9300000000000000E-002   -0.13560977314958383     
   6.9600000000000009E-002    -7.7924409152112156E-002
   6.9900000000000004E-002    -1.0714190927116483E-002
   7.0199999999999999E-002     6.2798941957406151E-002
   7.0500000000000007E-002    0.13878055372595491     
   7.0800000000000016E-002    0.21303473658333311     
   7.1099999999999997E-002    0.28131828742607595     
   7.1400000000000005E-002    0.33962268077604341     
   7.1700000000000000E-002    0.38441789981966112     
   7.1999999999999995E-002    0.41278432155862815     
   7.2300000000000003E-002    0.42270878811592272     
   7.2600000000000012E-002    0.41310991044474754     
   7.2900000000000006E-002    0.38395052651980655     
   7.3200000000000001E-002    0.33617198729433240     
   7.3499999999999996E-002    0.27182231206909824     
   7.3800000000000004E-002    0.19390294199884772     
   7.4099999999999999E-002    0.10630107640865749     
   7.4400000000000008E-002     1.3600539659351610E-002
   7.4700000000000003E-002    -7.9010857163940240E-002
   7.5000000000000011E-002   -0.16610018473866761     
   7.5299999999999992E-002   -0.24218167391937453     
   7.5600000000000001E-002   -0.30220193906128862     
   7.5900000000000009E-002   -0.34187864143445307     
   7.6200000000000004E-002   -0.35804089049457216     
   7.6499999999999999E-002   -0.34909999261087843     
   7.6800000000000007E-002   -0.31539717757082025     
   7.7099999999999988E-002   -0.25914423622317073     
   7.7399999999999997E-002   -0.18471669924304929     
   7.7700000000000005E-002    -9.8242527936978186E-002
   7.8000000000000014E-002    -7.4195631374716353E-003
   7.8299999999999995E-002     7.9251492595801290E-002
   7.8600000000000003E-002    0.15301430001444094     
   7.8900000000000012E-002    0.20578174807467758     
   7.9199999999999993E-002    0.23101429547352267     
   7.9500000000000001E-002    0.22435502382935213     
   7.9800000000000010E-002    0.18433075974648055     
   8.0100000000000018E-002    0.11263702542913906     
   8.0399999999999999E-002     1.4122087089855705E-002
   8.0700000000000008E-002   -0.10338266910805390     
   8.1000000000000003E-002   -0.22987111393499737     
   8.1299999999999997E-002   -0.35368190427296559     
   8.1600000000000006E-002   -0.46302554717570726     
   8.1900000000000014E-002   -0.54670177424463351     
   8.2199999999999995E-002   -0.59525143685836102     
   8.2500000000000004E-002   -0.60201587372226806     
   8.2799999999999999E-002   -0.56349453438890551     
   8.3100000000000007E-002   -0.47983546290161039     
   8.3400000000000002E-002   -0.35462690371088873     
   8.3700000000000011E-002   -0.19462990810690819     
   8.4000000000000005E-002    -9.0910756103631390E-003
   8.4300000000000000E-002    0.19130964684284163     
   8.4599999999999995E-002    0.39512872647608527     
   8.4900000000000003E-002    0.59141572564806766     
   8.5199999999999998E-002    0.77009213572091906     
   8.5500000000000007E-002    0.92310646743931102     
   8.5800000000000001E-002     1.0444573858914930     
   8.6100000000000010E-002     1.1303608617097012     
   8.6399999999999991E-002     1.1794774437767519     
   8.6699999999999999E-002     1.1921439094424802     
   8.7000000000000008E-002     1.1704537580971308     
   8.7300000000000003E-002     1.1175855314161742     
   8.7599999999999997E-002     1.0374159831007044     
   8.7900000000000006E-002    0.93422136180713888     
   8.8200000000000014E-002    0.81204324371468228     
   8.8499999999999995E-002    0.67524082134721597     
   8.8800000000000004E-002    0.52756285543178827     
   8.9100000000000013E-002    0.37279465284188334     
   8.9399999999999993E-002    0.21454804839059566     
   8.9700000000000002E-002     5.6193590672560467E-002
   9.0000000000000011E-002    -9.8490856575688235E-002
   9.0299999999999991E-002   -0.24624078116514336     
   9.0600000000000000E-002   -0.38341162448931815     
   9.0900000000000009E-002   -0.50661511413177396     
   9.1200000000000017E-002   -0.61263579644591737     
   9.1499999999999998E-002   -0.69877387548062297     
   9.1800000000000007E-002   -0.76298701448396788     
   9.2100000000000001E-002   -0.80380218068355225     
   9.2399999999999996E-002   -0.82106967364880101     
   9.2700000000000005E-002   -0.81526995179923667     
   9.3000000000000013E-002   -0.78835265170822177     
   9.3300000000000008E-002   -0.74306839640317268     
   9.3600000000000003E-002   -0.68294752897444644     
   9.3899999999999997E-002   -0.61241036474641641     
   9.4200000000000006E-002   -0.53600188476683042     
   9.4500000000000001E-002   -0.45854441123627832     
   9.4800000000000009E-002   -0.38439707421496533     
   9.5100000000000004E-002   -0.31756651749187664     
   9.5399999999999999E-002   -0.26117138316005312     
   9.5699999999999993E-002   -0.21731776252179122     
   9.6000000000000002E-002   -0.18718808842365547     
   9.6300000000000011E-002   -0.17070693643823820     
   9.6600000000000005E-002   -0.16697646865699159     
   9.6900000000000000E-002   -0.17397309516527010     
   9.7200000000000009E-002   -0.18916030713368281     
   9.7499999999999989E-002   -0.20941220785495190     
   9.7799999999999998E-002   -0.23143982873686386     
   9.8100000000000007E-002   -0.25203059421023083     
   9.8400000000000015E-002   -0.26802732070669066     
   9.8699999999999996E-002   -0.27673242297263134     
   9.9000000000000005E-002   -0.27616577075905580     
   9.9300000000000013E-002   -0.26491857817028625     
   9.9599999999999994E-002   -0.24231866183405781     
   9.9900000000000003E-002   -0.20852981437845719     
  0.10020000000000001        -0.16446480060017143     
  0.10049999999999999        -0.11168892939447438     
  0.10080000000000000         -5.2376762830757137E-002
  0.10110000000000001          1.0740162094537646E-002
  0.10140000000000000          7.4741637192260749E-002
  0.10170000000000000         0.13644303926389689     
  0.10200000000000001         0.19267658718990763     
  0.10230000000000002         0.24040133021253407     
  0.10260000000000000         0.27702835882028570     
  0.10290000000000001         0.30004726663116854     
  0.10320000000000000         0.30785467835211522     
  0.10350000000000001         0.29908861466277231     
  0.10380000000000000         0.27311512904656726     
  0.10410000000000001         0.23008534116507223     
  0.10440000000000001         0.17075521363478893     
  0.10470000000000000          9.6560345802641487E-002
  0.10500000000000000          9.7280386314005617E-003
  0.10530000000000000         -8.6509482624561304E-002
  0.10560000000000000        -0.18842814504204342     
  0.10590000000000001        -0.29136448255976100     
  0.10620000000000000        -0.38978757772493566     
  0.10650000000000001        -0.47770748439140243     
  0.10679999999999999        -0.54896683476070818     
  0.10710000000000000        -0.59693464540388819     
  0.10740000000000001        -0.61590841356476855     
  0.10770000000000000        -0.60059558285223580     
  0.10800000000000000        -0.54757270278248471     
  0.10830000000000001        -0.45503957832850483     
  0.10859999999999999        -0.32376418758772452     
  0.10890000000000000        -0.15756652479955630     
  0.10920000000000001          3.7606402485774668E-002
  0.10950000000000001         0.25213964528054367     
  0.10979999999999999         0.47474183159190397     
  0.11009999999999999         0.69175532916949101     
  0.11040000000000001         0.88917426943999334     
  0.11070000000000001          1.0528136258023220     
  0.11100000000000000          1.1699259963218329     
  0.11130000000000000          1.2301037384752445     
  0.11160000000000002          1.2263442933723785     
  0.11190000000000001          1.1559904692265945     
  0.11220000000000001          1.0207159887213249     
  0.11250000000000000         0.82691578906978058     
  0.11280000000000000         0.58544382383006566     
  0.11309999999999999         0.31072358683638501     
  0.11340000000000001          1.9609744324093709E-002
  0.11369999999999998        -0.26946399356860240     
  0.11400000000000000        -0.53829595965809718     
  0.11430000000000000        -0.76987453762698488     
  0.11460000000000002        -0.94982255546343730     
  0.11489999999999999         -1.0673239773188976     
  0.11520000000000001         -1.1159860481279895     
  0.11550000000000001         -1.0937185572956438     
  0.11580000000000000         -1.0031515849120303     
  0.11609999999999999        -0.85138060534171567     
  0.11640000000000002        -0.64871815867115779     
  0.11670000000000001        -0.40814919636580543     
  0.11700000000000001        -0.14457521698967712     
  0.11730000000000000         0.12694384296650296     
  0.11760000000000000         0.39156548671386771     
  0.11789999999999999         0.63614595488303594     
  0.11820000000000001         0.84972256574236626     
  0.11850000000000001          1.0242627057247387     
  0.11880000000000000          1.1546750552631091     
  0.11910000000000000          1.2390255115527284     
  0.11940000000000002          1.2783475274035032     
  0.11970000000000001          1.2759203351449631     
  0.12000000000000001          1.2369901533744856     
  0.12030000000000000          1.1675804027434913     
  0.12060000000000000          1.0741053109843848     
  0.12089999999999999         0.96257561936763580     
  0.12119999999999999         0.83798731515143199     
  0.12150000000000001         0.70416071853308382     
  0.12180000000000001         0.56316783023630024     
  0.12210000000000000         0.41610976273542966     
  0.12239999999999999         0.26321390221476537     
  0.12270000000000002         0.10441081681996667     
  0.12300000000000001         -6.0355569046475210E-002
  0.12330000000000001        -0.22962117984249159     
  0.12360000000000000        -0.40093039489544824     
  0.12390000000000000        -0.56968695463367569     
  0.12419999999999999        -0.72988312229096253     
  0.12450000000000001        -0.87407935070053455     
  0.12480000000000001        -0.99383584319208662     
  0.12509999999999999         -1.0811635791922525     
  0.12540000000000001         -1.1292595907343463     
  0.12570000000000003         -1.1338331664561681     
  0.12600000000000000         -1.0936772175479046     
  0.12630000000000002         -1.0117829350172849     
  0.12659999999999999        -0.89527440682867920     
  0.12690000000000001        -0.75532947781600257     
  0.12719999999999998        -0.60633920968168309     
  0.12750000000000000        -0.46475234021091205     
  0.12780000000000002        -0.34746979313919696     
  0.12809999999999999        -0.27010756924860674     
  0.12840000000000001        -0.24498204332634155     
  0.12869999999999998        -0.27970104704105703     
  0.12900000000000000        -0.37586545396475485     
  0.12930000000000003        -0.52832359386495964     
  0.12959999999999999        -0.72524992562967072     
  0.12990000000000002        -0.94888379665753764     
  0.13019999999999998         -1.1766644393720322     
  0.13050000000000000         -1.3831869851770502     
  0.13080000000000003         -1.5425120269397932     
  0.13109999999999999         -1.6305626245270577     
  0.13140000000000002         -1.6272796196756218     
  0.13169999999999998         -1.5187542896915174     
  0.13200000000000001         -1.2986662436343865     
  0.13229999999999997        -0.96926395982135638     
  0.13260000000000000        -0.54149050502410812     
  0.13290000000000002         -3.4086404141754789E-002
  0.13319999999999999         0.52708868970472511     
  0.13350000000000001          1.1112523104806507     
  0.13380000000000003          1.6850882891582240     
  0.13410000000000000          2.2144356638484721     
  0.13440000000000002          2.6676693530594271     
  0.13469999999999999          3.0175092229617189     
  0.13500000000000001          3.2431064014931512     
  0.13529999999999998          3.3317264734811944     
  0.13560000000000000          3.2793968657102601     
  0.13590000000000002          3.0915627470395619     
  0.13619999999999999          2.7824961057449711     
  0.13650000000000001          2.3742555400725736     
  0.13680000000000003          1.8948520251279390     
  0.13710000000000000          1.3765570621137613     
  0.13740000000000002         0.85320299215580642     
  0.13769999999999999         0.35703419199055192     
  0.13800000000000001         -8.2500984908368463E-002
  0.13829999999999998        -0.44268857527169203     
  0.13860000000000000        -0.70792892713464561     
  0.13890000000000002        -0.87189207822509396     
  0.13919999999999999        -0.93715827005105778     
  0.13950000000000001        -0.91571615085236191     
  0.13979999999999998        -0.82629534014386574     
  0.14010000000000000        -0.69424015787889204     
  0.14040000000000002        -0.54728571210259891     
  0.14069999999999999        -0.41414026488372063     
  0.14100000000000001        -0.32104523640821686     
  0.14130000000000004        -0.28901527180422593     
  0.14160000000000000        -0.33241218399852301     
  0.14189999999999997        -0.45690301143373002     
  0.14219999999999999        -0.65938812968034721     
  0.14250000000000002        -0.92792251740275522     
  0.14279999999999998         -1.2436241352904935     
  0.14310000000000000         -1.5815051597580330     
  0.14339999999999997         -1.9138267706557761     
  0.14369999999999999         -2.2122470621942982     
  0.14400000000000002         -2.4502984171973003     
  0.14429999999999998         -2.6061754520301710     
  0.14460000000000001         -2.6640990562536357     
  0.14490000000000003         -2.6152247626966796     
  0.14520000000000000         -2.4590857052939259     
  0.14550000000000002         -2.2014208907505726     
  0.14579999999999999         -1.8547580597306896     
  0.14610000000000001         -1.4359742924796288     
  0.14640000000000003        -0.96517299628450859     
  0.14670000000000000        -0.46296171680677745     
  0.14699999999999996          4.9962800249992695E-002
  0.14729999999999999         0.55501561965883750     
  0.14760000000000001          1.0366176325926153     
  0.14789999999999998          1.4817713093386611     
  0.14820000000000000          1.8811295808712687     