  -1.4999999999999999E-002     0.0000000000000000     
  -1.4700000000000000E-002     0.0000000000000000     
  -1.4400000000000000E-002     0.0000000000000000     
  -1.4100000000000000E-002     0.0000000000000000     
  -1.3800000000000000E-002     0.0000000000000000     
  -1.3500000000000000E-002     0.0000000000000000     
  -1.3200000000000000E-002     0.0000000000000000     
  -1.2899999999999998E-002     0.0000000000000000     
  -1.2600000000000000E-002     0.0000000000000000     
  -1.2299999999999998E-002     0.0000000000000000     
  -1.2000000000000000E-002     0.0000000000000000     
  -1.1699999999999999E-002     0.0000000000000000     
  -1.1399999999999999E-002     0.0000000000000000     
  -1.1099999999999999E-002     0.0000000000000000     
  -1.0799999999999999E-002     0.0000000000000000     
  -1.0499999999999999E-002     0.0000000000000000     
  -1.0199999999999999E-002     0.0000000000000000     
  -9.8999999999999991E-003     0.0000000000000000     
  -9.5999999999999992E-003     0.0000000000000000     
  -9.2999999999999992E-003     0.0000000000000000     
  -8.9999999999999993E-003     0.0000000000000000     
  -8.6999999999999994E-003     0.0000000000000000     
  -8.3999999999999995E-003     0.0000000000000000     
  -8.0999999999999996E-003     0.0000000000000000     
  -7.7999999999999988E-003     0.0000000000000000     
  -7.4999999999999997E-003     0.0000000000000000     
  -7.1999999999999998E-003     0.0000000000000000     
  -6.8999999999999981E-003     0.0000000000000000     
  -6.5999999999999982E-003     0.0000000000000000     
  -6.3000000000000000E-003     0.0000000000000000     
  -6.0000000000000001E-003     0.0000000000000000     
  -5.6999999999999985E-003     0.0000000000000000     
  -5.3999999999999986E-003     0.0000000000000000     
  -5.1000000000000004E-003     0.0000000000000000     
  -4.7999999999999987E-003     0.0000000000000000     
  -4.5000000000000005E-003     0.0000000000000000     
  -4.1999999999999989E-003     0.0000000000000000     
  -3.8999999999999990E-003     0.0000000000000000     
  -3.5999999999999990E-003     0.0000000000000000     
  -3.2999999999999991E-003     0.0000000000000000     
  -2.9999999999999992E-003     0.0000000000000000     
  -2.6999999999999993E-003     0.0000000000000000     
  -2.3999999999999994E-003     0.0000000000000000     
  -2.0999999999999977E-003     0.0000000000000000     
  -1.7999999999999995E-003     0.0000000000000000     
  -1.4999999999999979E-003     0.0000000000000000     
  -1.1999999999999997E-003     0.0000000000000000     
  -8.9999999999999976E-004     0.0000000000000000     
  -5.9999999999999810E-004     0.0000000000000000     
  -2.9999999999999992E-004     0.0000000000000000     
   0.0000000000000000          0.0000000000000000     
   3.0000000000000165E-004     0.0000000000000000     
   5.9999999999999984E-004     0.0000000000000000     
   9.0000000000000149E-004     0.0000000000000000     
   1.2000000000000031E-003     0.0000000000000000     
   1.5000000000000013E-003     0.0000000000000000     
   1.8000000000000030E-003     0.0000000000000000     
   2.1000000000000012E-003     0.0000000000000000     
   2.3999999999999994E-003     0.0000000000000000     
   2.7000000000000010E-003     0.0000000000000000     
   2.9999999999999992E-003     0.0000000000000000     
   3.3000000000000008E-003     0.0000000000000000     
   3.6000000000000025E-003     0.0000000000000000     
   3.9000000000000007E-003     0.0000000000000000     
   4.2000000000000023E-003     0.0000000000000000     
   4.5000000000000005E-003     0.0000000000000000     
   4.7999999999999987E-003     0.0000000000000000     
   5.1000000000000004E-003     0.0000000000000000     
   5.4000000000000020E-003     0.0000000000000000     
   5.7000000000000037E-003     0.0000000000000000     
   5.9999999999999984E-003     0.0000000000000000     
   6.3000000000000000E-003     0.0000000000000000     
   6.6000000000000017E-003     0.0000000000000000     
   6.9000000000000034E-003     0.0000000000000000     
   7.2000000000000015E-003     0.0000000000000000     
   7.5000000000000032E-003     0.0000000000000000     
   7.8000000000000014E-003     0.0000000000000000     
   8.0999999999999996E-003     0.0000000000000000     
   8.4000000000000012E-003     0.0000000000000000     
   8.7000000000000029E-003     0.0000000000000000     
   9.0000000000000011E-003     0.0000000000000000     
   9.2999999999999992E-003     0.0000000000000000     
   9.6000000000000009E-003     0.0000000000000000     
   9.8999999999999991E-003     0.0000000000000000     
   1.0200000000000001E-002     0.0000000000000000     
   1.0500000000000002E-002     0.0000000000000000     
   1.0800000000000004E-002     0.0000000000000000     
   1.1099999999999999E-002     0.0000000000000000     
   1.1400000000000000E-002     0.0000000000000000     
   1.1700000000000002E-002     0.0000000000000000     
   1.2000000000000004E-002     0.0000000000000000     
   1.2300000000000002E-002     0.0000000000000000     
   1.2600000000000000E-002     0.0000000000000000     
   1.2900000000000002E-002     0.0000000000000000     
   1.3200000000000000E-002     0.0000000000000000     
   1.3500000000000002E-002     0.0000000000000000     
   1.3800000000000003E-002     0.0000000000000000     
   1.4100000000000001E-002     0.0000000000000000     
   1.4400000000000000E-002     0.0000000000000000     
   1.4700000000000001E-002     0.0000000000000000     
   1.4999999999999999E-002     0.0000000000000000     
   1.5300000000000001E-002     0.0000000000000000     
   1.5600000000000003E-002     0.0000000000000000     
   1.5899999999999997E-002     0.0000000000000000     
   1.6199999999999999E-002     0.0000000000000000     
   1.6500000000000001E-002     0.0000000000000000     
   1.6800000000000002E-002     0.0000000000000000     
   1.7100000000000004E-002     0.0000000000000000     
   1.7400000000000006E-002     0.0000000000000000     
   1.7700000000000000E-002     0.0000000000000000     
   1.8000000000000002E-002     0.0000000000000000     
   1.8300000000000004E-002     0.0000000000000000     
   1.8600000000000005E-002     0.0000000000000000     
   1.8900000000000000E-002     0.0000000000000000     
   1.9200000000000002E-002     0.0000000000000000     
   1.9500000000000003E-002     0.0000000000000000     
   1.9799999999999998E-002     0.0000000000000000     
   2.0100000000000000E-002     0.0000000000000000     
   2.0400000000000001E-002     0.0000000000000000     
   2.0700000000000003E-002     0.0000000000000000     
   2.0999999999999998E-002     0.0000000000000000     
   2.1299999999999999E-002     0.0000000000000000     
   2.1600000000000001E-002     0.0000000000000000     
   2.1900000000000003E-002     0.0000000000000000     
   2.2200000000000004E-002     0.0000000000000000     
   2.2500000000000006E-002     0.0000000000000000     
   2.2800000000000001E-002     0.0000000000000000     
   2.3100000000000002E-002     0.0000000000000000     
   2.3400000000000004E-002     0.0000000000000000     
   2.3699999999999999E-002     0.0000000000000000     
   2.4000000000000000E-002     0.0000000000000000     
   2.4300000000000002E-002     0.0000000000000000     
   2.4599999999999997E-002     0.0000000000000000     
   2.4900000000000005E-002     0.0000000000000000     
   2.5200000000000000E-002     0.0000000000000000     
   2.5499999999999995E-002     0.0000000000000000     
   2.5800000000000003E-002     0.0000000000000000     
   2.6099999999999998E-002     0.0000000000000000     
   2.6400000000000007E-002     0.0000000000000000     
   2.6700000000000002E-002     0.0000000000000000     
   2.6999999999999996E-002     0.0000000000000000     
   2.7300000000000005E-002     0.0000000000000000     
   2.7600000000000000E-002     0.0000000000000000     
   2.7900000000000008E-002     0.0000000000000000     
   2.8200000000000003E-002     0.0000000000000000     
   2.8499999999999998E-002     0.0000000000000000     
   2.8800000000000006E-002     0.0000000000000000     
   2.9100000000000001E-002     0.0000000000000000     
   2.9400000000000003E-002     0.0000000000000000     
   2.9700000000000004E-002     0.0000000000000000     
   3.0000000000000006E-002     0.0000000000000000     
   3.0300000000000001E-002     0.0000000000000000     
   3.0600000000000002E-002     0.0000000000000000     
   3.0900000000000004E-002     0.0000000000000000     
   3.1199999999999999E-002     0.0000000000000000     
   3.1500000000000007E-002     0.0000000000000000     
   3.1800000000000002E-002     0.0000000000000000     
   3.2099999999999997E-002     0.0000000000000000     
   3.2400000000000005E-002     0.0000000000000000     
   3.2700000000000000E-002     2.5635242773879201E-044
   3.3000000000000002E-002    -2.5673126982229211E-043
   3.3300000000000003E-002     2.7129417536692433E-042
   3.3599999999999998E-002     5.2027590636249171E-036
   3.3900000000000000E-002    -2.6052684505103149E-036
   3.4200000000000001E-002    -8.9415615509629848E-035
   3.4500000000000003E-002    -9.1521026654096591E-034
   3.4799999999999998E-002     2.9054569480272398E-033
   3.5099999999999999E-002    -1.5641936094373579E-034
   3.5400000000000001E-002    -7.1134005762216926E-033
   3.5699999999999996E-002     1.1074005282700921E-032
   3.6000000000000004E-002     2.1848334175180925E-032
   3.6299999999999999E-002    -2.6031024704437123E-031
   3.6600000000000008E-002     1.3372730968987598E-030
   3.6900000000000002E-002    -5.0600782847944404E-030
   3.7199999999999997E-002     1.5510281690747063E-029
   3.7500000000000006E-002    -3.9175172801169979E-029
   3.7800000000000000E-002     7.7630443879095311E-029
   3.8100000000000009E-002    -9.2350764942948973E-029
   3.8400000000000004E-002    -1.0794181706979205E-028
   3.8699999999999998E-002     1.1463518942356125E-027
   3.9000000000000007E-002    -4.5980367585877340E-027
   3.9300000000000002E-002     1.3516032403073115E-026
   3.9600000000000003E-002    -3.1499871137308622E-026
   3.9900000000000005E-002     5.5626350553054404E-026
   4.0200000000000000E-002    -5.2741905040583456E-026
   4.0500000000000001E-002    -9.5974951169108488E-026
   4.0800000000000003E-002     6.8249523072462484E-025
   4.1100000000000005E-002    -2.2109005374867274E-024
   4.1399999999999999E-002     5.0869731985228570E-024
   4.1700000000000008E-002    -8.2822661042583972E-024
   4.2000000000000003E-002     6.0900757558610045E-024
   4.2299999999999997E-002     1.6762449647972262E-023
   4.2600000000000006E-002    -8.6549314552751944E-023
   4.2900000000000001E-002     2.2309613755698890E-022
   4.3200000000000002E-002    -3.7746307462863932E-022
   4.3500000000000004E-002     3.1248775636250717E-022
   4.3799999999999999E-002     4.9882394157728725E-022
   4.4100000000000000E-002    -2.6842602861147632E-021
   4.4400000000000002E-002     6.0174075737932245E-021
   4.4700000000000004E-002    -7.4847338909006980E-021
   4.4999999999999998E-002    -1.7870153917153022E-022
   4.5300000000000000E-002     2.4400269291650380E-020
   4.5600000000000002E-002    -5.5556868394011605E-020
   4.5899999999999996E-002     4.1268906556949707E-020
   4.6200000000000005E-002     9.3908326289935361E-020
   4.6500000000000000E-002    -2.6816593957941560E-019
   4.6799999999999994E-002    -5.1927996782788201E-020
   4.7100000000000003E-002     1.3267923015751542E-018
   4.7399999999999998E-002    -3.3286923492295716E-019
   4.7700000000000006E-002    -1.6306862109661672E-017
   4.8000000000000001E-002     6.5712083381129867E-017
   4.8300000000000010E-002    -1.1186759600060044E-016
   4.8600000000000004E-002    -2.5473812530289629E-017
   4.8899999999999999E-002     4.9103168657556044E-016
   4.9200000000000008E-002    -3.0269048309593447E-016
   4.9500000000000002E-002    -4.0058525263488943E-015
   4.9800000000000011E-002     1.3193955619990775E-014
   5.0100000000000006E-002     2.3848724678778431E-015
   5.0400000000000000E-002    -1.5732918636844374E-013
   5.0700000000000009E-002     6.5668274345725819E-013
   5.1000000000000004E-002    -1.5203190541821272E-012
   5.1299999999999998E-002     1.6788764602561498E-012
   5.1600000000000007E-002     2.9055219840715721E-012
   5.1900000000000002E-002    -2.2351630896671833E-011
   5.2200000000000010E-002     7.4175420006483780E-011
   5.2500000000000005E-002    -1.5769067190114788E-010
   5.2800000000000000E-002     1.1678458749749767E-010
   5.3099999999999994E-002     6.8608706556953651E-010
   5.3400000000000003E-002    -3.3509429521259341E-009
   5.3699999999999998E-002     6.6036258301006415E-009
   5.4000000000000006E-002     1.8871158268664064E-009
   5.4300000000000001E-002    -4.7322725071565961E-008
   5.4599999999999996E-002     1.0212190508474458E-007
   5.4900000000000004E-002     6.1956523116782742E-008
   5.5199999999999999E-002    -7.2641492786581790E-007
   5.5499999999999994E-002     5.7976081222534261E-007
   5.5800000000000002E-002     5.7637084975136647E-006
   5.6099999999999997E-002     8.8352310072352465E-006
   5.6400000000000006E-002     6.8319809724648102E-006
   5.6700000000000000E-002     6.3710544485970157E-006
   5.6999999999999995E-002     1.2180409579323721E-005
   5.7300000000000004E-002     2.3866010446496263E-005
   5.7599999999999998E-002     3.8889426104949502E-005
   5.7900000000000007E-002     5.5333385017815902E-005
   5.8200000000000002E-002     7.6665637812478043E-005
   5.8499999999999996E-002     1.0858337212896860E-004
   5.8800000000000005E-002     1.5652408208295820E-004
   5.9100000000000000E-002     2.2409029827515954E-004
   5.9400000000000008E-002     3.0974342463087963E-004
   5.9700000000000003E-002     4.1290378542380206E-004
   6.0000000000000012E-002     5.3961068751650926E-004
   6.0300000000000006E-002     6.9661037002606791E-004
   6.0600000000000001E-002     8.8289287172044694E-004
   6.0900000000000010E-002     1.0913795585877682E-003
   6.1200000000000004E-002     1.3093400080992123E-003
   6.1500000000000013E-002     1.5124997628700302E-003
   6.1800000000000008E-002     1.6707533546175507E-003
   6.2100000000000002E-002     1.7482989976052746E-003
   6.2399999999999997E-002     1.6905125271023699E-003
   6.2700000000000006E-002     1.4260339113926501E-003
   6.3000000000000000E-002     8.7291229395843647E-004
   6.3300000000000009E-002    -6.9228300739383682E-005
   6.3600000000000004E-002    -1.5070396536956173E-003
   6.3899999999999998E-002    -3.5320408767361678E-003
   6.4199999999999993E-002    -6.2272451092350925E-003
   6.4500000000000002E-002    -9.6531566546177380E-003
   6.4800000000000010E-002    -1.3821083165250696E-002
   6.5100000000000005E-002    -1.8692543789449085E-002
   6.5400000000000000E-002    -2.4152441026818565E-002
   6.5700000000000008E-002    -2.9979055842384045E-002
   6.5999999999999989E-002    -3.5854306186197629E-002
   6.6299999999999998E-002    -4.1365347935447445E-002
   6.6600000000000006E-002    -4.5995179712362680E-002
   6.6900000000000001E-002    -4.9140222531309313E-002
   6.7199999999999996E-002    -5.0147362220762444E-002
   6.7500000000000004E-002    -4.8341397361505514E-002
   6.7800000000000013E-002    -4.3075740490156701E-002
   6.8099999999999994E-002    -3.3794790635417543E-002
   6.8400000000000002E-002    -2.0080775113567765E-002
   6.8700000000000011E-002    -1.7128510315681453E-003
   6.8999999999999992E-002     2.1265462070508868E-002
   6.9300000000000000E-002     4.8518698776260999E-002
   6.9600000000000009E-002     7.9409867736945791E-002
   6.9900000000000004E-002    0.11296425046841413     
   7.0199999999999999E-002    0.14788825854010407     
   7.0500000000000007E-002    0.18263103124532862     
   7.0800000000000016E-002    0.21543005178049424     
   7.1099999999999997E-002    0.24438580951990729     
   7.1400000000000005E-002    0.26755294296439663     
   7.1700000000000000E-002    0.28305423361851251     
   7.1999999999999995E-002    0.28920531382168130     
   7.2300000000000003E-002    0.28463399523732730     
   7.2600000000000012E-002    0.26838567967262200     
   7.2900000000000006E-002    0.24002628139083451     
   7.3200000000000001E-002    0.19972679121276868     
   7.3499999999999996E-002    0.14830640048072843     
   7.3800000000000004E-002     8.7260723836724882E-002
   7.4099999999999999E-002     1.8755371248031207E-002
   7.4400000000000008E-002    -5.4452553158581919E-002
   7.4700000000000003E-002   -0.12915363914005612     
   7.5000000000000011E-002   -0.20177215375663121     
   7.5299999999999992E-002   -0.26862093877153209     
   7.5600000000000001E-002   -0.32613113626041884     
   7.5900000000000009E-002   -0.37101566924391244     
   7.6200000000000004E-002   -0.40053919116210823     
   7.6499999999999999E-002   -0.41274959028855962     
   7.6800000000000007E-002   -0.40663805797512403     
   7.7099999999999988E-002   -0.38223526080184900     
   7.7399999999999997E-002   -0.34064832525065247     
   7.7700000000000005E-002   -0.28409061019680226     
   7.8000000000000014E-002   -0.21573978825786441     
   7.8299999999999995E-002   -0.13952592149629411     
   7.8600000000000003E-002    -5.9909929594128428E-002
   7.8900000000000012E-002     1.8361873307118276E-002
   7.9199999999999993E-002     9.0541325306146697E-002
   7.9500000000000001E-002    0.15225766619549574     
   7.9800000000000010E-002    0.19978052436209576     
   8.0100000000000018E-002    0.23014359268206439     
   8.0399999999999999E-002    0.24140976487170668     
   8.0700000000000008E-002    0.23275251821325574     
   8.1000000000000003E-002    0.20442453168601035     
   8.1299999999999997E-002    0.15772771973327343     
   8.1600000000000006E-002     9.4950923056696016E-002
   8.1900000000000014E-002     1.9162601823144120E-002
   8.2199999999999995E-002    -6.5991699084260599E-002
   8.2500000000000004E-002   -0.15647603553398798     
   8.2799999999999999E-002   -0.24807521732736793     
   8.3100000000000007E-002   -0.33656692589291393     
   8.3400000000000002E-002   -0.41792029278800763     
   8.3700000000000011E-002   -0.48841372319527626     
   8.4000000000000005E-002   -0.54471051925360381     
   8.4300000000000000E-002   -0.58406603604758844     
   8.4599999999999995E-002   -0.60421455200123542     
   8.4900000000000003E-002   -0.60342598267454295     
   8.5199999999999998E-002   -0.58071661300467681     
   8.5500000000000007E-002   -0.53569966841509797     
   8.5800000000000001E-002   -0.46869015947366371     
   8.6100000000000010E-002   -0.38073778360625810     
   8.6399999999999991E-002   -0.27362489849063593     
   8.6699999999999999E-002   -0.14993871827208455     
   8.7000000000000008E-002    -1.2974476456354659E-002
   8.7300000000000003E-002    0.13321647126286082     
   8.7599999999999997E-002    0.28399267950618962     
   8.7900000000000006E-002    0.43422559140961947     
   8.8200000000000014E-002    0.57851445979907323     
   8.8499999999999995E-002    0.71138054494951197     
   8.8800000000000004E-002    0.82744574959067363     
   8.9100000000000013E-002    0.92198646513003946     
   8.9399999999999993E-002    0.99104482393432292     
   8.9700000000000002E-002     1.0314450309828262     
   9.0000000000000011E-002     1.0413506075830172     
   9.0299999999999991E-002     1.0203318637712853     
   9.0600000000000000E-002    0.96919638292115218     
   9.0900000000000009E-002    0.89001477089643211     
   9.1200000000000017E-002    0.78616482288089784     
   9.1499999999999998E-002    0.66208285293882618     
   9.1800000000000007E-002    0.52282029519960904     
   9.2100000000000001E-002    0.37395954196562065     
   9.2399999999999996E-002    0.22138528522332862     
   9.2700000000000005E-002     7.0903106770173849E-002
   9.3000000000000013E-002    -7.2024831046738166E-002
   9.3300000000000008E-002   -0.20243312604845926     
   9.3600000000000003E-002   -0.31580075858754469     
   9.3899999999999997E-002   -0.40855419914275476     
   9.4200000000000006E-002   -0.47812146248883086     
   9.4500000000000001E-002   -0.52272969795359969     
   9.4800000000000009E-002   -0.54165232496679239     
   9.5100000000000004E-002   -0.53566283286888472     
   9.5399999999999999E-002   -0.50666785503405687     
   9.5699999999999993E-002   -0.45773110011552121     
   9.6000000000000002E-002   -0.39342597291208187     
   9.6300000000000011E-002   -0.31951883528543551     
   9.6600000000000005E-002   -0.24266529099262996     
   9.6900000000000000E-002   -0.17009489183296753     
   9.7200000000000009E-002   -0.10928410915146917     
   9.7499999999999989E-002    -6.7328801409500705E-002
   9.7799999999999998E-002    -5.0150831770077280E-002
   9.8100000000000007E-002    -6.2048440250749640E-002
   9.8400000000000015E-002   -0.10509381953780603     
   9.8699999999999996E-002   -0.17864890192356023     
   9.9000000000000005E-002   -0.27918606852207251     
   9.9300000000000013E-002   -0.40032416522368958     
   9.9599999999999994E-002   -0.53312844079281907     
   9.9900000000000003E-002   -0.66671711357474384     
  0.10020000000000001        -0.78906977442455450     
  0.10049999999999999        -0.88798970357787321     
  0.10080000000000000        -0.95219290721578143     
  0.10110000000000001        -0.97232193285018043     
  0.10140000000000000        -0.94178617566627809     
  0.10170000000000000        -0.85745812031215918     
  0.10200000000000001        -0.72020322618520627     
  0.10230000000000002        -0.53469205365980588     
  0.10260000000000000        -0.30913728836998683     
  0.10290000000000001         -5.4889450397900393E-002
  0.10320000000000000         0.21446877616384111     
  0.10350000000000001         0.48415517858581092     
  0.10380000000000000         0.73927909330042485     
  0.10410000000000001         0.96574998226150743     
  0.10440000000000001          1.1510105177309793     
  0.10470000000000000          1.2850492054351623     
  0.10500000000000000          1.3609458267634889     
  0.10530000000000000          1.3747507396298977     
  0.10560000000000000          1.3257027927653928     
  0.10590000000000001          1.2162207425295939     
  0.10620000000000000          1.0514693314277876     
  0.10650000000000001         0.83864593967774692     
  0.10679999999999999         0.58693731195498999     
  0.10710000000000000         0.30711707717404035     
  0.10740000000000001          1.0457649102683892E-002
  0.10770000000000000        -0.29111060518090526     
  0.10800000000000000        -0.58516991291004783     
  0.10830000000000001        -0.85968858293055883     
  0.10859999999999999         -1.1030817073285792     
  0.10890000000000000         -1.3041840843741030     
  0.10920000000000001         -1.4529213966402414     
  0.10950000000000001         -1.5406745739987973     
  0.10979999999999999         -1.5605154108454518     
  0.11009999999999999         -1.5077421735727070     
  0.11040000000000001         -1.3804184265064021     
  0.11070000000000001         -1.1795728265593948     
  0.11100000000000000        -0.90974516146431450     
  0.11130000000000000        -0.57893443425200675     
  0.11160000000000002        -0.19855366787013476     
  0.11190000000000001         0.21661108796053102     
  0.11220000000000001         0.64927006047050051     
  0.11250000000000000          1.0804954816240284     
  0.11280000000000000          1.4903706380894219     
  0.11309999999999999          1.8592487660054389     
  0.11340000000000001          2.1691272359576823     
  0.11369999999999998          2.4047265163265519     
  0.11400000000000000          2.5541668053460920     
  0.11430000000000000          2.6099109764770190     
  0.11460000000000002          2.5694353690420355     
  0.11489999999999999          2.4349243740695616     
  0.11520000000000001          2.2131757821412155     
  0.11550000000000001          1.9151207276361415     
  0.11580000000000000          1.5549253272796502     
  0.11609999999999999          1.1491086509290087     
  0.11640000000000002         0.71537715240109434     
  0.11670000000000001         0.27162581512662792     
  0.11700000000000001        -0.16497037179825341     
  0.11730000000000000        -0.57887852727777411     
  0.11760000000000000        -0.95660246103016722     
  0.11789999999999999         -1.2874747594561122     
  0.11820000000000001         -1.5633854953780244     
  0.11850000000000001         -1.7790681216110897     
  0.11880000000000000         -1.9319503400972826     
  0.11910000000000000         -2.0217785926130496     
  0.11940000000000002         -2.0503978815121688     
  0.11970000000000001         -2.0213875848552600     
  0.12000000000000001         -1.9398878879806363     
  0.12030000000000000         -1.8120348507911797     
  0.12060000000000000         -1.6446557085958589     
  0.12089999999999999         -1.4455683257800263     
  0.12119999999999999         -1.2226916562496875     
  0.12150000000000001        -0.98410856692493975     
  0.12180000000000001        -0.73795324409264551     
  0.12210000000000000        -0.49236681782706659     
  0.12239999999999999        -0.25505065551315864     
  0.12270000000000002         -3.2712656525320224E-002
  0.12300000000000001         0.16783316882029903     
  0.12330000000000001         0.34102690678409581     
  0.12360000000000000         0.48287347385190904     
  0.12390000000000000         0.58983004448992871     
  0.12419999999999999         0.65971416517314208     
  0.12450000000000001         0.69207996326192667     
  0.12480000000000001         0.68805676778024261     
  0.12509999999999999         0.64965754714771029     
  0.12540000000000001         0.58047759412136957     
  0.12570000000000003         0.48598208815348365     
  0.12600000000000000         0.37238350218982758     
  0.12630000000000002         0.24665318094303912     
  0.12659999999999999         0.11688218661482727     
  0.12690000000000001         -8.3982756719115752E-003
  0.12719999999999998        -0.12105741693045809     
  0.12750000000000000        -0.21335530567577532     
  0.12780000000000002        -0.27833178861640850     
  0.12809999999999999        -0.31067702333130803     
  0.12840000000000001        -0.30706134510237559     
  0.12869999999999998        -0.26644769286459102     
  0.12900000000000000        -0.19006413115903531     
  0.12930000000000003         -8.2013068720080559E-002
  0.12959999999999999          5.0935088545449814E-002
  0.12990000000000002         0.20041038429520905     
  0.13019999999999998         0.35607639333750513     
  0.13050000000000000         0.50648612197311949     
  0.13080000000000003         0.64045149521847300     
  0.13109999999999999         0.74736720745152541     
  0.13140000000000002         0.81813902057676069     
  0.13169999999999998         0.84598011130843598     
  0.13200000000000001         0.82712805552436275     
  0.13229999999999997         0.76077729656188053     
  0.13260000000000000         0.64922648768543945     
  0.13290000000000002         0.49819669122783083     
  0.13319999999999999         0.31586468096133075     
  0.13350000000000001         0.11222965790711242     
  0.13380000000000003        -0.10118800714776287     
  0.13410000000000000        -0.31210169594942266     
  0.13440000000000002        -0.50874853592463920     
  0.13469999999999999        -0.68050802231840801     
  0.13500000000000001        -0.81767338988890470     
  0.13529999999999998        -0.91270161128171934     
  0.13560000000000000        -0.96093714625523896     
  0.13590000000000002        -0.95988977243845441     
  0.13619999999999999        -0.90943837349622547     
  0.13650000000000001        -0.81254512135096979     
  0.13680000000000003        -0.67475402274456242     
  0.13710000000000000        -0.50336688535558816     
  0.13740000000000002        -0.30765178457773601     
  0.13769999999999999         -9.8705488358843671E-002
  0.13800000000000001         0.11184349469828025     
  0.13829999999999998         0.31214434530620633     
  0.13860000000000000         0.49065164382403431     
  0.13890000000000002         0.63673061793492292     
  0.13919999999999999         0.74178213516372704     
  0.13950000000000001         0.79949308006555375     
  0.13979999999999998         0.80620104548695237     
  0.14010000000000000         0.76135582094206999     
  0.14040000000000002         0.66786068899940521     
  0.14069999999999999         0.53157067365079480     
  0.14100000000000001         0.36066737680138844     
  0.14130000000000004         0.16596407938513652     
  0.14160000000000000         -4.0522359667675242E-002
  0.14189999999999997        -0.24652925684550284     
  0.14219999999999999        -0.43986094666407632     
  0.14250000000000002        -0.60955292756145218     
  0.14279999999999998        -0.74672395829371929     
  0.14310000000000000        -0.84499199068961117     
  0.14339999999999997        -0.90057785191811124     
  0.14369999999999999        -0.91264153370073964     
  0.14400000000000002        -0.88320965349915814     
  0.14429999999999998        -0.81629121981857888     
  0.14460000000000001        -0.71782470313243740     
  0.14490000000000003        -0.59489918180604395     
  0.14520000000000000        -0.45510065826466528     
  0.14550000000000002        -0.30576568962772704     
  0.14579999999999999        -0.15378060911672270     
  0.14610000000000001         -5.0435049276469470E-003
  0.14640000000000003         0.13581632374575719     
  0.14670000000000000         0.26543030533863171     
  0.14699999999999996         0.38148957958722501     
  0.14729999999999999         0.48272610233820062     
  0.14760000000000001         0.56899679250230650     
  0.14789999999999998         0.64044595297889462     
  0.14820000000000000         0.69746631890304023     