  -1.4999999999999999E-002     0.0000000000000000     
  -1.4700000000000000E-002     0.0000000000000000     
  -1.4400000000000000E-002     0.0000000000000000     
  -1.4100000000000000E-002     0.0000000000000000     
  -1.3800000000000000E-002     0.0000000000000000     
  -1.3500000000000000E-002     0.0000000000000000     
  -1.3200000000000000E-002     0.0000000000000000     
  -1.2899999999999998E-002     0.0000000000000000     
  -1.2600000000000000E-002     0.0000000000000000     
  -1.2299999999999998E-002     0.0000000000000000     
  -1.2000000000000000E-002     0.0000000000000000     
  -1.1699999999999999E-002     0.0000000000000000     
  -1.1399999999999999E-002     0.0000000000000000     
  -1.1099999999999999E-002     0.0000000000000000     
  -1.0799999999999999E-002     0.0000000000000000     
  -1.0499999999999999E-002     0.0000000000000000     
  -1.0199999999999999E-002     0.0000000000000000     
  -9.8999999999999991E-003     0.0000000000000000     
  -9.5999999999999992E-003     0.0000000000000000     
  -9.2999999999999992E-003     0.0000000000000000     
  -8.9999999999999993E-003     0.0000000000000000     
  -8.6999999999999994E-003     0.0000000000000000     
  -8.3999999999999995E-003     0.0000000000000000     
  -8.0999999999999996E-003     0.0000000000000000     
  -7.7999999999999988E-003     0.0000000000000000     
  -7.4999999999999997E-003     0.0000000000000000     
  -7.1999999999999998E-003     0.0000000000000000     
  -6.8999999999999981E-003     0.0000000000000000     
  -6.5999999999999982E-003     0.0000000000000000     
  -6.3000000000000000E-003     0.0000000000000000     
  -6.0000000000000001E-003     0.0000000000000000     
  -5.6999999999999985E-003     0.0000000000000000     
  -5.3999999999999986E-003     0.0000000000000000     
  -5.1000000000000004E-003    -1.8729311466113765E-037
  -4.7999999999999987E-003    -1.3587815219056509E-036
  -4.5000000000000005E-003     5.0969355881007532E-036
  -4.1999999999999989E-003     2.0040117348737274E-037
  -3.8999999999999990E-003     1.8912092288114645E-036
  -3.5999999999999990E-003    -2.0071064934281220E-036
  -3.2999999999999991E-003    -1.3262310145038598E-035
  -2.9999999999999992E-003     6.4472324652724299E-034
  -2.6999999999999993E-003    -3.6294067236735779E-033
  -2.3999999999999994E-003     2.0335874816559839E-033
  -2.0999999999999977E-003     4.8015499790927563E-033
  -1.7999999999999995E-003    -1.1611823704517243E-032
  -1.4999999999999979E-003     4.6585647887353131E-032
  -1.1999999999999997E-003    -9.9617041461551276E-032
  -8.9999999999999976E-004     2.3026870816441310E-032
  -5.9999999999999810E-004     1.0688494428608359E-031
  -2.9999999999999992E-004     7.1279424432584464E-032
   0.0000000000000000          6.2537331260628623E-031
   3.0000000000000165E-004    -5.5484080924007600E-030
   5.9999999999999984E-004     1.7396076280886704E-029
   9.0000000000000149E-004    -3.2414195752106309E-029
   1.2000000000000031E-003    -4.6791946679139449E-030
   1.5000000000000013E-003     2.7372331506675466E-028
   1.8000000000000030E-003    -8.8235346902747114E-028
   2.1000000000000012E-003     1.1070423132992133E-027
   2.3999999999999994E-003     1.4343265213180072E-027
   2.7000000000000010E-003    -9.8720922839227267E-027
   2.9999999999999992E-003     2.1235756110976410E-026
   3.3000000000000008E-003    -1.2125394529555497E-026
   3.6000000000000025E-003    -6.1446352204491235E-026
   3.9000000000000007E-003     2.0546840378579032E-025
   4.2000000000000023E-003    -2.7327236239099342E-025
   4.5000000000000005E-003    -7.5554636950348402E-026
   4.7999999999999987E-003     1.1064433855262413E-024
   5.1000000000000004E-003    -2.3424004840097615E-024
   5.4000000000000020E-003     2.1023956407271248E-024
   5.7000000000000037E-003     1.6575814777245303E-024
   5.9999999999999984E-003    -9.5179259558814249E-024
   6.3000000000000000E-003     1.9545058039769996E-023
   6.6000000000000017E-003    -2.5373046642113854E-023
   6.9000000000000034E-003     8.1828507416708923E-024
   7.2000000000000015E-003     7.0443627621903163E-023
   7.5000000000000032E-003    -2.3543334625084724E-022
   7.8000000000000014E-003     3.7871986382204696E-022
   8.0999999999999996E-003    -1.3335530491534773E-022
   8.4000000000000012E-003    -9.3999006128020978E-022
   8.7000000000000029E-003     2.6024020030332128E-021
   9.0000000000000011E-003    -3.1158613739284802E-021
   9.2999999999999992E-003    -3.4895047561894544E-022
   9.6000000000000009E-003     9.1498084500953052E-021
   9.8999999999999991E-003    -1.9345926236511409E-020
   1.0200000000000001E-002     1.9479594914976961E-020
   1.0500000000000002E-002     6.3777399534505792E-021
   1.0800000000000004E-002    -6.6014053596057722E-020
   1.1099999999999999E-002     1.3342156612914243E-019
   1.1400000000000000E-002    -1.2380930346494229E-019
   1.1700000000000002E-002    -7.8131685768052732E-020
   1.2000000000000004E-002     4.8172940746087245E-019
   1.2300000000000002E-002    -8.0678039702000578E-019
   1.2600000000000000E-002     4.9613778380935395E-019
   1.2900000000000002E-002     8.3551248111657965E-019
   1.3200000000000000E-002    -2.6871833896766209E-018
   1.3500000000000002E-002     3.4286329356751698E-018
   1.3800000000000003E-002    -1.2120716917332816E-018
   1.4100000000000001E-002    -4.2772630350172420E-018
   1.4400000000000000E-002     1.0562643792783354E-017
   1.4700000000000001E-002    -1.2839377349168591E-017
   1.4999999999999999E-002     6.1493954448500751E-018
   1.5300000000000001E-002     1.1967877906073387E-017
   1.5600000000000003E-002    -3.8842249364454614E-017
   1.5899999999999997E-002     6.2053671033876416E-017
   1.6199999999999999E-002    -5.2645265507599691E-017
   1.6500000000000001E-002    -3.1315844253407783E-017
   1.6800000000000002E-002     2.0346422749909723E-016
   1.7100000000000004E-002    -3.6334330244139493E-016
   1.7400000000000006E-002     2.5282921021442260E-016
   1.7700000000000000E-002     3.6480420670792169E-016
   1.8000000000000002E-002    -1.2596461480466461E-015
   1.8300000000000004E-002     1.4527411182102716E-015
   1.8600000000000005E-002     1.3762251889176284E-016
   1.8900000000000000E-002    -3.0576467866748070E-015
   1.9200000000000002E-002     4.4180633975277052E-015
   1.9500000000000003E-002    -1.1669426322227571E-015
   1.9799999999999998E-002    -5.2217056014190639E-015
   2.0100000000000000E-002     7.6121187149079870E-015
   2.0400000000000001E-002    -1.0053988274607880E-015
   2.0700000000000003E-002    -5.3664852653602138E-015
   2.0999999999999998E-002    -1.1721290959915693E-014
   2.1299999999999999E-002     5.1654236971580687E-014
   2.1600000000000001E-002    -6.8329574611313293E-015
   2.1900000000000003E-002    -3.1563418249819164E-013
   2.2200000000000004E-002     6.7792960789846968E-013
   2.2500000000000006E-002     2.8755141970538405E-013
   2.2800000000000001E-002    -3.3262031985803532E-012
   2.3100000000000002E-002     3.3831208725693410E-012
   2.3400000000000004E-002     6.5089692745018942E-012
   2.3699999999999999E-002    -1.0937489629664889E-011
   2.4000000000000000E-002    -1.4819305264555895E-011
   2.4300000000000002E-002    -1.0469583440748935E-011
   2.4599999999999997E-002     1.8171225836819873E-010
   2.4900000000000005E-002     6.2488365843771751E-011
   2.5200000000000000E-002    -1.3852566259592410E-009
   2.5499999999999995E-002     5.0750594929387685E-010
   2.5800000000000003E-002     7.2968492469776903E-009
   2.6099999999999998E-002    -5.9672189679004061E-009
   2.6400000000000007E-002    -3.3883540197682025E-008
   2.6700000000000002E-002     4.0888802516837296E-008
   2.6999999999999996E-002     1.4918909439253145E-007
   2.7300000000000005E-002    -2.0644196114800769E-007
   2.7600000000000000E-002    -5.8751148109430666E-007
   2.7900000000000008E-002     1.3220737882300417E-006
   2.8200000000000003E-002     6.0607613752997156E-006
   2.8499999999999998E-002     1.0515851046678644E-005
   2.8800000000000006E-002     1.6357829080746350E-005
   2.9100000000000001E-002     3.1214102256647367E-005
   2.9400000000000003E-002     4.9549393747879560E-005
   2.9700000000000004E-002     6.0439844920780241E-005
   3.0000000000000006E-002     8.5065371259425830E-005
   3.0300000000000001E-002     1.4843937907135305E-004
   3.0600000000000002E-002     2.3503550033056883E-004
   3.0900000000000004E-002     3.3837989430114402E-004
   3.1199999999999999E-002     4.8489243836522867E-004
   3.1500000000000007E-002     6.9052021453841310E-004
   3.1800000000000002E-002     9.7057132629097811E-004
   3.2099999999999997E-002     1.3605319275547599E-003
   3.2400000000000005E-002     1.8876698105617846E-003
   3.2700000000000000E-002     2.5627201016200632E-003
   3.3000000000000002E-002     3.4165531833145087E-003
   3.3300000000000003E-002     4.4828118687103725E-003
   3.3599999999999998E-002     5.7519074596262725E-003
   3.3900000000000000E-002     7.2096475327766488E-003
   3.4200000000000001E-002     8.8453488592025436E-003
   3.4500000000000003E-002     1.0591346091397790E-002
   3.4799999999999998E-002     1.2320811452261871E-002
   3.5099999999999999E-002     1.3868457750997078E-002
   3.5400000000000001E-002     1.5008317991617337E-002
   3.5699999999999996E-002     1.5434399241775209E-002
   3.6000000000000004E-002     1.4786366753553756E-002
   3.6299999999999999E-002     1.2666961110935151E-002
   3.6600000000000008E-002     8.6286899378295191E-003
   3.6900000000000002E-002     2.2383909496999799E-003
   3.7199999999999997E-002    -6.8296449832737352E-003
   3.7500000000000006E-002    -1.8778196845637800E-002
   3.7800000000000000E-002    -3.3589888747754773E-002
   3.8100000000000009E-002    -5.0896274264095064E-002
   3.8400000000000004E-002    -6.9958324682495146E-002
   3.8699999999999998E-002    -8.9580531178701656E-002
   3.9000000000000007E-002   -0.10803463949062940     
   3.9300000000000002E-002   -0.12311050037586116     
   3.9600000000000003E-002   -0.13215193933622696     
   3.9900000000000005E-002   -0.13216173205076237     
   4.0200000000000000E-002   -0.12005009943291678     
   4.0500000000000001E-002    -9.2889476029537385E-002
   4.0800000000000003E-002    -4.8219530420626683E-002
   4.1100000000000005E-002     1.5570661761333829E-002
   4.1399999999999999E-002     9.8931289564436864E-002
   4.1700000000000008E-002    0.20082208423660580     
   4.2000000000000003E-002    0.31846991113398310     
   4.2299999999999997E-002    0.44726710029474026     
   4.2600000000000006E-002    0.58082207594231516     
   4.2900000000000001E-002    0.71123793608613084     
   4.3200000000000002E-002    0.82947878461373370     
   4.3500000000000004E-002    0.92599461474814015     
   4.3799999999999999E-002    0.99147154144541316     
   4.4100000000000000E-002     1.0175655477725669     
   4.4400000000000002E-002    0.99771858163662230     
   4.4700000000000004E-002    0.92775544392914533     
   4.4999999999999998E-002    0.80642506548592641     
   4.5300000000000000E-002    0.63575506308699992     
   4.5600000000000002E-002    0.42085591493696978     
   4.5899999999999996E-002    0.16977047601521167     
   4.6200000000000005E-002   -0.10727196911358175     
   4.6500000000000000E-002   -0.39847323246746297     
   4.6799999999999994E-002   -0.69145805179048292     
   4.7100000000000003E-002   -0.97416784316812910     
   4.7399999999999998E-002    -1.2356454442798110     
   4.7700000000000006E-002    -1.4667268865595755     
   4.8000000000000001E-002    -1.6602835787621748     
   4.8300000000000010E-002    -1.8116125027080838     
   4.8600000000000004E-002    -1.9180822078113144     
   4.8899999999999999E-002    -1.9788041833451913     
   4.9200000000000008E-002    -1.9942998681908040     
   4.9500000000000002E-002    -1.9657196535552823     
   4.9800000000000011E-002    -1.8945762452245818     
   5.0100000000000006E-002    -1.7824606668883933     
   5.0400000000000000E-002    -1.6307380306082873     
   5.0700000000000009E-002    -1.4407786702434446     
   5.1000000000000004E-002    -1.2142359096933260     
   5.1299999999999998E-002   -0.95322274121204886     
   5.1600000000000007E-002   -0.66101050646317649     
   5.1900000000000002E-002   -0.34224576053338251     
   5.2200000000000010E-002    -3.3528410625633664E-003
   5.2500000000000005E-002    0.34755269151881502     
   5.2800000000000000E-002    0.70067493421977156     
   5.3099999999999994E-002     1.0449906864343852     
   5.3400000000000003E-002     1.3688376123620385     
   5.3699999999999998E-002     1.6608030843405306     
   5.4000000000000006E-002     1.9103295703130363     
   5.4300000000000001E-002     2.1085695740268511     
   5.4599999999999996E-002     2.2489658401374131     
   5.4900000000000004E-002     2.3276020954837842     
   5.5199999999999999E-002     2.3436168227445124     
   5.5499999999999994E-002     2.2988119287098043     
   5.5800000000000002E-002     2.1976070067543541     
   5.6099999999999997E-002     2.0464973088606686     
   5.6400000000000006E-002     1.8532177175833162     
   5.6700000000000000E-002     1.6262816006498255     
   5.6999999999999995E-002     1.3741349131760294     
   5.7300000000000004E-002     1.1045757227003485     
   5.7599999999999998E-002    0.82472052168222054     
   5.7900000000000007E-002    0.54042823904167081     
   5.8200000000000002E-002    0.25635290567143032     
   5.8499999999999996E-002    -2.3399373011058898E-002
   5.8800000000000005E-002   -0.29527452394201148     
   5.9100000000000000E-002   -0.55594439499664827     
   5.9400000000000008E-002   -0.80152472809575759     
   5.9700000000000003E-002    -1.0275906615496191     
   6.0000000000000012E-002    -1.2287174995870243     
   6.0300000000000006E-002    -1.3986721643669160     
   6.0600000000000001E-002    -1.5307771834407014     
   6.0900000000000010E-002    -1.6186218496496956     
   6.1200000000000004E-002    -1.6566318752275113     
   6.1500000000000013E-002    -1.6409610803840446     
   6.1800000000000008E-002    -1.5703040374542241     
   6.2100000000000002E-002    -1.4467016392420802     
   6.2399999999999997E-002    -1.2754258650803576     
   6.2700000000000006E-002    -1.0656235544000803     
   6.3000000000000000E-002   -0.82953966284467995     
   6.3300000000000009E-002   -0.58156206889664552     
   6.3600000000000004E-002   -0.33757473652075731     
   6.3899999999999998E-002   -0.11263515764960175     
   6.4199999999999993E-002     7.9589362278459419E-002
   6.4500000000000002E-002    0.22921928854147344     
   6.4800000000000010E-002    0.33032059520173129     
   6.5100000000000005E-002    0.38205748170189752     
   6.5400000000000000E-002    0.38868647076914398     
   6.5700000000000008E-002    0.35918250811886288     
   6.5999999999999989E-002    0.30611331457573343     
   6.6299999999999998E-002    0.24436789881117971     
   6.6600000000000006E-002    0.18980041040784740     
   6.6900000000000001E-002    0.15635910929376229     
   6.7199999999999996E-002    0.15600265556647283     
   6.7500000000000004E-002    0.19623454016104427     
   6.7800000000000013E-002    0.27973790620118777     
   6.8099999999999994E-002    0.40385149575424040     
   6.8400000000000002E-002    0.56100755029740657     
   6.8700000000000011E-002    0.73894468556307569     
   6.8999999999999992E-002    0.92227672738758049     
   6.9300000000000000E-002     1.0935622662237794     
   6.9600000000000009E-002     1.2348316770125125     
   6.9900000000000004E-002     1.3292147349563326     
   7.0199999999999999E-002     1.3618252223265253     
   7.0500000000000007E-002     1.3216981109586250     
   7.0800000000000016E-002     1.2022214445612942     
   7.1099999999999997E-002     1.0023339554199824     
   7.1400000000000005E-002    0.72587556658343266     
   7.1700000000000000E-002    0.38252281218714990     
   7.1999999999999995E-002    -1.3722185244264717E-002
   7.2300000000000003E-002   -0.44353259560442471     
   7.2600000000000012E-002   -0.88513865685622695     
   7.2900000000000006E-002    -1.3140396475880107     
   7.3200000000000001E-002    -1.7051659149261609     
   7.3499999999999996E-002    -2.0345570389315815     
   7.3800000000000004E-002    -2.2806221474211221     
   7.4099999999999999E-002    -2.4259118962678818     
   7.4400000000000008E-002    -2.4581396790585561     
   7.4700000000000003E-002    -2.3715113528683656     
   7.5000000000000011E-002    -2.1666899977430951     
   7.5299999999999992E-002    -1.8515926474359636     
   7.5600000000000001E-002    -1.4407775449967508     
   7.5900000000000009E-002   -0.95409961867933446     
   7.6200000000000004E-002   -0.41609236714888653     
   7.6499999999999999E-002    0.14615926895723430     
   7.6800000000000007E-002    0.70397953508981570     
   7.7099999999999988E-002     1.2293999561364835     
   7.7399999999999997E-002     1.6961675704132746     
   7.7700000000000005E-002     2.0810382159587624     
   7.8000000000000014E-002     2.3653630612614611     
   7.8299999999999995E-002     2.5345501062441280     
   7.8600000000000003E-002     2.5795794143490522     
   7.8900000000000012E-002     2.4961879369129645     
   7.9199999999999993E-002     2.2854464241913868     
   7.9500000000000001E-002     1.9535185893924494     
   7.9800000000000010E-002     1.5111874058331396     
   8.0100000000000018E-002    0.97416123891075146     
   8.0399999999999999E-002    0.36200176109637161     
   8.0700000000000008E-002   -0.30115168187360247     
   8.1000000000000003E-002   -0.98828461746971041     
   8.1299999999999997E-002    -1.6691082389069010     
   8.1600000000000006E-002    -2.3122675845045668     
   8.1900000000000014E-002    -2.8860034607280216     
   8.2199999999999995E-002    -3.3603505112905205     
   8.2500000000000004E-002    -3.7089781379714397     
   8.2799999999999999E-002    -3.9108711317767941     
   8.3100000000000007E-002    -3.9527392372770889     
   8.3400000000000002E-002    -3.8292970679619085     
   8.3700000000000011E-002    -3.5458247041050051     
   8.4000000000000005E-002    -3.1172479609041890     
   8.4300000000000000E-002    -2.5675192236344131     
   8.4599999999999995E-002    -1.9288913212732615     
   8.4900000000000003E-002    -1.2386298167099103     
   8.5199999999999998E-002   -0.53624703860277267     
   8.5500000000000007E-002    0.13914172748786585     
   8.5800000000000001E-002    0.75306034268449884     
   8.6100000000000010E-002     1.2775533292308849     
   8.6399999999999991E-002     1.6950561453429371     
   8.6699999999999999E-002     1.9992258851815357     
   8.7000000000000008E-002     2.1957072739066859     
   8.7300000000000003E-002     2.3024652532357415     
   8.7599999999999997E-002     2.3466521650833410     
   8.7900000000000006E-002     2.3635998765541144     
   8.8200000000000014E-002     2.3918838072683895     
   8.8499999999999995E-002     2.4705546703028265     
   8.8800000000000004E-002     2.6350297861807137     
   8.9100000000000013E-002     2.9125444164554839     
   8.9399999999999993E-002     3.3194965183495846     
   8.9700000000000002E-002     3.8583644039234839     
   9.0000000000000011E-002     4.5165213753101430     
   9.0299999999999991E-002     5.2655736512055400     
   9.0600000000000000E-002     6.0635191870303498     
   9.0900000000000009E-002     6.8552028077885465     
   9.1200000000000017E-002     7.5776762765931736     
   9.1499999999999998E-002     8.1634318090524491     
   9.1800000000000007E-002     8.5450284104048002     
   9.2100000000000001E-002     8.6618090486923549     
   9.2399999999999996E-002     8.4643048056280019     
   9.2700000000000005E-002     7.9188654987434486     
   9.3000000000000013E-002     7.0120039396898726     
   9.3300000000000008E-002     5.7521707505564068     
   9.3600000000000003E-002     4.1707372214529066     
   9.3899999999999997E-002     2.3214746055837936     
   9.4200000000000006E-002    0.27737288227769419     
   9.4500000000000001E-002    -1.8725841131306971     
   9.4800000000000009E-002    -4.0308232305626754     
   9.5100000000000004E-002    -6.0961862130467743     
   9.5399999999999999E-002    -7.9719242061754994     
   9.5699999999999993E-002    -9.5724309265420562     
   9.6000000000000002E-002    -10.828393818288394     
   9.6300000000000011E-002    -11.691693981214332     
   9.6600000000000005E-002    -12.138642555214767     
   9.6900000000000000E-002    -12.171048225358057     
   9.7200000000000009E-002    -11.815432509821255     
   9.7499999999999989E-002    -11.121103778130827     
   9.7799999999999998E-002    -10.153833562308675     
   9.8100000000000007E-002    -8.9920711932957005     
   9.8400000000000015E-002    -7.7200623705667262     
   9.8699999999999996E-002    -6.4203577691434912     
   9.9000000000000005E-002    -5.1720590546663470     
   9.9300000000000013E-002    -4.0404814673026728     
   9.9599999999999994E-002    -3.0775036004683978     
   9.9900000000000003E-002    -2.3160453032659625     
  0.10020000000000001         -1.7697851503952209     
  0.10049999999999999         -1.4337579905864064     
  0.10080000000000000         -1.2857340501951828     
  0.10110000000000001         -1.2887355915313417     
  0.10140000000000000         -1.3954678075000682     
  0.10170000000000000         -1.5513612698302868     
  0.10200000000000001         -1.6992606610338687     
  0.10230000000000002         -1.7845925957984750     
  0.10260000000000000         -1.7603224098666854     
  0.10290000000000001         -1.5907074530409431     
  0.10320000000000000         -1.2544475680387583     
  0.10350000000000001        -0.74715360664057484     
  0.10380000000000000         -8.2678764665635340E-002
  0.10410000000000001         0.70740739570297928     
  0.10440000000000001          1.5770486387898246     
  0.10470000000000000          2.4661294475447288     
  0.10500000000000000          3.3097675813113185     
  0.10530000000000000          4.0429853567698393     
  0.10560000000000000          4.6096492543672971     
  0.10590000000000001          4.9678627541430744     
  0.10620000000000000          5.0984670423628558     
  0.10650000000000001          5.0084569550015843     
  0.10679999999999999          4.7339012667969129     
  0.10710000000000000          4.3398935500848657     
  0.10740000000000001          3.9137214285588051     
  0.10770000000000000          3.5586130720342295     
  0.10800000000000000          3.3808656516698745     
  0.10830000000000001          3.4772233306987212     
  0.10859999999999999          3.9213828558238912     
  0.10890000000000000          4.7516297347247409     
  0.10920000000000001          5.9603180131248026     
  0.10950000000000001          7.4885527267975638     
  0.10979999999999999          9.2267076103725625     
  0.11009999999999999          11.018721698126246     
  0.11040000000000001          12.675059744509547     
  0.11070000000000001          13.988945590602327     
  0.11100000000000000          14.755512327498288     
  0.11130000000000000          14.794634759208776     
  0.11160000000000002          13.968751450590918     
  0.11190000000000001          12.202521321124552     
  0.11220000000000001          9.4929754964011401     
  0.11250000000000000          5.9168404651631139     
  0.11280000000000000          1.6282527479836157     
  0.11309999999999999         -3.1483224218422747     
  0.11340000000000001         -8.1370469649713257     
  0.11369999999999998         -13.028341292262503     
  0.11400000000000000         -17.504224978144130     
  0.11430000000000000         -21.262211937064578     
  0.11460000000000002         -24.038456887853691     
  0.11489999999999999         -25.628182587010954     
  0.11520000000000001         -25.901499127833237     
  0.11550000000000001         -24.811542945662250     
  0.11580000000000000         -22.398511421446404     
  0.11609999999999999         -18.783541391611333     
  0.11640000000000002         -14.160436486300473     
  0.11670000000000001         -8.7816797457230376     
  0.11700000000000001         -2.9396493162211375     
  0.11730000000000000          3.0500218392177558     
  0.11760000000000000          8.8699882521439140     
  0.11789999999999999          14.217527005748527     
  0.11820000000000001          18.823377063600958     
  0.11850000000000001          22.463629370408249     
  0.11880000000000000          24.969759356382340     
  0.11910000000000000          26.235533337129077     
  0.11940000000000002          26.218444241785615     
  0.11970000000000001          24.940879781121211     
  0.12000000000000001          22.485383906004042     
  0.12030000000000000          18.990121495245425     
  0.12060000000000000          14.637568840320444     
  0.12089999999999999          9.6426350879565721     
  0.12119999999999999          4.2416613440709430     
  0.12150000000000001         -1.3220277199740611     
  0.12180000000000001         -6.8083655655867421     
  0.12210000000000000         -11.993205889318286     
  0.12239999999999999         -16.676985114115357     
  0.12270000000000002         -20.693659049681330     
  0.12300000000000001         -23.916020133212637     
  0.12330000000000001         -26.256934372284125     
  0.12360000000000000         -27.668406416379241     
  0.12390000000000000         -28.139769282781494     
  0.12419999999999999         -27.693733935693174     
  0.12450000000000001         -26.380806991586066     
  0.12480000000000001         -24.276310132174007     
  0.12509999999999999         -21.473763795603055     
  0.12540000000000001         -18.080897447681977     
  0.12570000000000003         -14.215398028754073     
  0.12600000000000000         -10.002232853477906     
  0.12630000000000002         -5.5741974556618024     
  0.12659999999999999         -1.0640608017085791     
  0.12690000000000001          3.3936849419837918     
  0.12719999999999998          7.6706834127614760     
  0.12750000000000000          11.643819335826972     
  0.12780000000000002          15.200883491404797     
  0.12809999999999999          18.244098780939652     
  0.12840000000000001          20.694665304532325     
  0.12869999999999998          22.497593986510815     
  0.12900000000000000          23.623383077488413     
  0.12930000000000003          24.070721740422510     
  0.12959999999999999          23.863357040827303     
  0.12990000000000002          23.051187002888479     
  0.13019999999999998          21.704885409290942     
  0.13050000000000000          19.912766932284065     
  0.13080000000000003          17.775399149250891     
  0.13109999999999999          15.397439728731154     
  0.13140000000000002          12.882417162705467     
  0.13169999999999998          10.323495591595087     
  0.13200000000000001          7.8021114311013466     
  0.13229999999999997          5.3820173738190231     
  0.13260000000000000          3.1077313693894482     
  0.13290000000000002          1.0036413863338143     
  0.13319999999999999        -0.92525059036509694     
  0.13350000000000001         -2.6896269922990630     
  0.13380000000000003         -4.3108686209569322     
  0.13410000000000000         -5.8164337960146391     
  0.13440000000000002         -7.2347406389353699     
  0.13469999999999999         -8.5878592230324333     
  0.13500000000000001         -9.8877013094209953     
  0.13529999999999998         -11.134629788955607     
  0.13560000000000000         -12.312513415410519     
  0.13590000000000002         -13.390666375808051     
  0.13619999999999999         -14.326983443393257     
  0.13650000000000001         -15.069969152569175     
  0.13680000000000003         -15.565365140898319     
  0.13710000000000000         -15.759385666636227     
  0.13740000000000002         -15.607287775190237     
  0.13769999999999999         -15.076950542832510     
  0.13800000000000001         -14.156093301814789     
  0.13829999999999998         -12.854170166519513     
  0.13860000000000000         -11.203055842912317     
  0.13890000000000002         -9.2560214316675093     
  0.13919999999999999         -7.0840341600211403     
  0.13950000000000001         -4.7737542262233523     
  0.13979999999999998         -2.4213371455163379     
  0.14010000000000000        -0.12585924032955575     
  0.14040000000000002          2.0176577599189494     
  0.14069999999999999          3.9259074374764138     
  0.14100000000000001          5.5329691749858743     
  0.14130000000000004          6.7937318996391438     
  0.14160000000000000          7.6862011657712053     
  0.14189999999999997          8.2118075703690021     
  0.14219999999999999          8.3945435158553003     
  0.14250000000000002          8.2795851210448852     
  0.14279999999999998          7.9275975115943869     
  0.14310000000000000          7.4086944108869144     
  0.14339999999999997          6.7972661914656225     
  0.14369999999999999          6.1638266699487065     
  0.14400000000000002          5.5718989148873863     
  0.14429999999999998          5.0718209494502737     
  0.14460000000000001          4.6969479113786559     
  0.14490000000000003          4.4619156188989901     
  0.14520000000000000          4.3623953972996103     
  0.14550000000000002          4.3743359929874561     
  0.14579999999999999          4.4607711491640138     
  0.14610000000000001          4.5730139849518379     
  0.14640000000000003          4.6552321925401809     
  0.14670000000000000          4.6519805446355695     
  0.14699999999999996          4.5121983176910652     
  0.14729999999999999          4.1948841988179684     
  0.14760000000000001          3.6760140786297892     
  0.14789999999999998          2.9492311446837380     
  0.14820000000000000          2.0287027498632781     