  -1.4999999999999999E-002     0.0000000000000000     
  -1.4700000000000000E-002     0.0000000000000000     
  -1.4400000000000000E-002     0.0000000000000000     
  -1.4100000000000000E-002     0.0000000000000000     
  -1.3800000000000000E-002     0.0000000000000000     
  -1.3500000000000000E-002     0.0000000000000000     
  -1.3200000000000000E-002     0.0000000000000000     
  -1.2899999999999998E-002     0.0000000000000000     
  -1.2600000000000000E-002     0.0000000000000000     
  -1.2299999999999998E-002     0.0000000000000000     
  -1.2000000000000000E-002     0.0000000000000000     
  -1.1699999999999999E-002     0.0000000000000000     
  -1.1399999999999999E-002     0.0000000000000000     
  -1.1099999999999999E-002     0.0000000000000000     
  -1.0799999999999999E-002     0.0000000000000000     
  -1.0499999999999999E-002     0.0000000000000000     
  -1.0199999999999999E-002     0.0000000000000000     
  -9.8999999999999991E-003     0.0000000000000000     
  -9.5999999999999992E-003     0.0000000000000000     
  -9.2999999999999992E-003     0.0000000000000000     
  -8.9999999999999993E-003     0.0000000000000000     
  -8.6999999999999994E-003     0.0000000000000000     
  -8.3999999999999995E-003     0.0000000000000000     
  -8.0999999999999996E-003     0.0000000000000000     
  -7.7999999999999988E-003     0.0000000000000000     
  -7.4999999999999997E-003     0.0000000000000000     
  -7.1999999999999998E-003     0.0000000000000000     
  -6.8999999999999981E-003     0.0000000000000000     
  -6.5999999999999982E-003     0.0000000000000000     
  -6.3000000000000000E-003     0.0000000000000000     
  -6.0000000000000001E-003     0.0000000000000000     
  -5.6999999999999985E-003     0.0000000000000000     
  -5.3999999999999986E-003     0.0000000000000000     
  -5.1000000000000004E-003     0.0000000000000000     
  -4.7999999999999987E-003     0.0000000000000000     
  -4.5000000000000005E-003     0.0000000000000000     
  -4.1999999999999989E-003     0.0000000000000000     
  -3.8999999999999990E-003     0.0000000000000000     
  -3.5999999999999990E-003     0.0000000000000000     
  -3.2999999999999991E-003     0.0000000000000000     
  -2.9999999999999992E-003     0.0000000000000000     
  -2.6999999999999993E-003     0.0000000000000000     
  -2.3999999999999994E-003     0.0000000000000000     
  -2.0999999999999977E-003     0.0000000000000000     
  -1.7999999999999995E-003     0.0000000000000000     
  -1.4999999999999979E-003     0.0000000000000000     
  -1.1999999999999997E-003     0.0000000000000000     
  -8.9999999999999976E-004     0.0000000000000000     
  -5.9999999999999810E-004     0.0000000000000000     
  -2.9999999999999992E-004     0.0000000000000000     
   0.0000000000000000          0.0000000000000000     
   3.0000000000000165E-004     0.0000000000000000     
   5.9999999999999984E-004     0.0000000000000000     
   9.0000000000000149E-004     0.0000000000000000     
   1.2000000000000031E-003     0.0000000000000000     
   1.5000000000000013E-003     0.0000000000000000     
   1.8000000000000030E-003     0.0000000000000000     
   2.1000000000000012E-003     0.0000000000000000     
   2.3999999999999994E-003     0.0000000000000000     
   2.7000000000000010E-003     0.0000000000000000     
   2.9999999999999992E-003     0.0000000000000000     
   3.3000000000000008E-003     0.0000000000000000     
   3.6000000000000025E-003     0.0000000000000000     
   3.9000000000000007E-003     0.0000000000000000     
   4.2000000000000023E-003     0.0000000000000000     
   4.5000000000000005E-003     0.0000000000000000     
   4.7999999999999987E-003     0.0000000000000000     
   5.1000000000000004E-003     0.0000000000000000     
   5.4000000000000020E-003     0.0000000000000000     
   5.7000000000000037E-003     0.0000000000000000     
   5.9999999999999984E-003     0.0000000000000000     
   6.3000000000000000E-003     0.0000000000000000     
   6.6000000000000017E-003     0.0000000000000000     
   6.9000000000000034E-003     0.0000000000000000     
   7.2000000000000015E-003     0.0000000000000000     
   7.5000000000000032E-003     0.0000000000000000     
   7.8000000000000014E-003     0.0000000000000000     
   8.0999999999999996E-003     0.0000000000000000     
   8.4000000000000012E-003     0.0000000000000000     
   8.7000000000000029E-003     0.0000000000000000     
   9.0000000000000011E-003     0.0000000000000000     
   9.2999999999999992E-003     0.0000000000000000     
   9.6000000000000009E-003     0.0000000000000000     
   9.8999999999999991E-003     0.0000000000000000     
   1.0200000000000001E-002     0.0000000000000000     
   1.0500000000000002E-002     0.0000000000000000     
   1.0800000000000004E-002     0.0000000000000000     
   1.1099999999999999E-002     0.0000000000000000     
   1.1400000000000000E-002     0.0000000000000000     
   1.1700000000000002E-002     0.0000000000000000     
   1.2000000000000004E-002     0.0000000000000000     
   1.2300000000000002E-002     0.0000000000000000     
   1.2600000000000000E-002     0.0000000000000000     
   1.2900000000000002E-002     0.0000000000000000     
   1.3200000000000000E-002     0.0000000000000000     
   1.3500000000000002E-002     0.0000000000000000     
   1.3800000000000003E-002     0.0000000000000000     
   1.4100000000000001E-002     0.0000000000000000     
   1.4400000000000000E-002     0.0000000000000000     
   1.4700000000000001E-002     0.0000000000000000     
   1.4999999999999999E-002     0.0000000000000000     
   1.5300000000000001E-002     0.0000000000000000     
   1.5600000000000003E-002     0.0000000000000000     
   1.5899999999999997E-002     0.0000000000000000     
   1.6199999999999999E-002     0.0000000000000000     
   1.6500000000000001E-002     0.0000000000000000     
   1.6800000000000002E-002     0.0000000000000000     
   1.7100000000000004E-002     0.0000000000000000     
   1.7400000000000006E-002     0.0000000000000000     
   1.7700000000000000E-002     0.0000000000000000     
   1.8000000000000002E-002     0.0000000000000000     
   1.8300000000000004E-002     0.0000000000000000     
   1.8600000000000005E-002     0.0000000000000000     
   1.8900000000000000E-002     0.0000000000000000     
   1.9200000000000002E-002     0.0000000000000000     
   1.9500000000000003E-002     0.0000000000000000     
   1.9799999999999998E-002     0.0000000000000000     
   2.0100000000000000E-002     0.0000000000000000     
   2.0400000000000001E-002     0.0000000000000000     
   2.0700000000000003E-002     0.0000000000000000     
   2.0999999999999998E-002     0.0000000000000000     
   2.1299999999999999E-002     0.0000000000000000     
   2.1600000000000001E-002     0.0000000000000000     
   2.1900000000000003E-002     0.0000000000000000     
   2.2200000000000004E-002     0.0000000000000000     
   2.2500000000000006E-002     0.0000000000000000     
   2.2800000000000001E-002     0.0000000000000000     
   2.3100000000000002E-002     0.0000000000000000     
   2.3400000000000004E-002     0.0000000000000000     
   2.3699999999999999E-002     0.0000000000000000     
   2.4000000000000000E-002     0.0000000000000000     
   2.4300000000000002E-002     0.0000000000000000     
   2.4599999999999997E-002     0.0000000000000000     
   2.4900000000000005E-002     0.0000000000000000     
   2.5200000000000000E-002     0.0000000000000000     
   2.5499999999999995E-002     0.0000000000000000     
   2.5800000000000003E-002     0.0000000000000000     
   2.6099999999999998E-002     0.0000000000000000     
   2.6400000000000007E-002     0.0000000000000000     
   2.6700000000000002E-002     0.0000000000000000     
   2.6999999999999996E-002     0.0000000000000000     
   2.7300000000000005E-002     0.0000000000000000     
   2.7600000000000000E-002     0.0000000000000000     
   2.7900000000000008E-002     0.0000000000000000     
   2.8200000000000003E-002     0.0000000000000000     
   2.8499999999999998E-002     0.0000000000000000     
   2.8800000000000006E-002     0.0000000000000000     
   2.9100000000000001E-002     0.0000000000000000     
   2.9400000000000003E-002     0.0000000000000000     
   2.9700000000000004E-002     0.0000000000000000     
   3.0000000000000006E-002     0.0000000000000000     
   3.0300000000000001E-002     0.0000000000000000     
   3.0600000000000002E-002     0.0000000000000000     
   3.0900000000000004E-002     0.0000000000000000     
   3.1199999999999999E-002     0.0000000000000000     
   3.1500000000000007E-002     0.0000000000000000     
   3.1800000000000002E-002     0.0000000000000000     
   3.2099999999999997E-002     0.0000000000000000     
   3.2400000000000005E-002     0.0000000000000000     
   3.2700000000000000E-002     0.0000000000000000     
   3.3000000000000002E-002     0.0000000000000000     
   3.3300000000000003E-002     0.0000000000000000     
   3.3599999999999998E-002     0.0000000000000000     
   3.3900000000000000E-002     0.0000000000000000     
   3.4200000000000001E-002     0.0000000000000000     
   3.4500000000000003E-002     0.0000000000000000     
   3.4799999999999998E-002     0.0000000000000000     
   3.5099999999999999E-002     0.0000000000000000     
   3.5400000000000001E-002     0.0000000000000000     
   3.5699999999999996E-002     0.0000000000000000     
   3.6000000000000004E-002     0.0000000000000000     
   3.6299999999999999E-002     0.0000000000000000     
   3.6600000000000008E-002     0.0000000000000000     
   3.6900000000000002E-002     0.0000000000000000     
   3.7199999999999997E-002    -1.3382175317126289E-040
   3.7500000000000006E-002     2.2816906881195292E-041
   3.7800000000000000E-002    -9.1156477590864050E-038
   3.8100000000000009E-002    -7.4979442078660368E-037
   3.8400000000000004E-002     7.9641919391079968E-036
   3.8699999999999998E-002    -3.8691621362626434E-035
   3.9000000000000007E-002     3.1724721387462554E-034
   3.9300000000000002E-002    -7.2688578095841007E-034
   3.9600000000000003E-002     1.9999702777448866E-033
   3.9900000000000005E-002    -9.0081639353162957E-033
   4.0200000000000000E-002     3.1304587045180100E-032
   4.0500000000000001E-002    -7.4462478806897553E-032
   4.0800000000000003E-002     1.2625827225394618E-031
   4.1100000000000005E-002    -8.3459815621964290E-032
   4.1399999999999999E-002    -4.3088605251988366E-031
   4.1700000000000008E-002     2.3376177203611790E-030
   4.2000000000000003E-002    -6.9990181371828990E-030
   4.2299999999999997E-002     1.3937988770949526E-029
   4.2600000000000006E-002    -1.1794480083481876E-029
   4.2900000000000001E-002    -4.4933199830090848E-029
   4.3200000000000002E-002     2.7463253881349937E-028
   4.3500000000000004E-002    -8.8171227223476692E-028
   4.3799999999999999E-002     1.9729772111322174E-027
   4.4100000000000000E-002    -2.7497769702907332E-027
   4.4400000000000002E-002    -5.8915166778874357E-028
   4.4700000000000004E-002     1.8378548191347442E-026
   4.4999999999999998E-002    -6.9435783450164925E-026
   4.5300000000000000E-002     1.6980561491451742E-025
   4.5600000000000002E-002    -2.8228855476768493E-025
   4.5899999999999996E-002     1.9276640177006343E-025
   4.6200000000000005E-002     6.8128621693423372E-025
   4.6500000000000000E-002    -3.3837980750025501E-024
   4.6799999999999994E-002     8.9181329410138766E-024
   4.7100000000000003E-002    -1.6338017367892550E-023
   4.7399999999999998E-002     1.9105604593540833E-023
   4.7700000000000006E-002    -2.3815881138707872E-024
   4.8000000000000001E-002    -4.8226354731519573E-023
   4.8300000000000010E-002     1.0054632387169548E-022
   4.8600000000000004E-002     6.4862920861512422E-023
   4.8899999999999999E-002    -1.2415475393061294E-021
   4.9200000000000008E-002     5.9380511709393793E-021
   4.9500000000000002E-002    -2.2059993638701530E-020
   4.9800000000000011E-002     7.5074167701181953E-020
   5.0100000000000006E-002    -2.4730547028412781E-019
   5.0400000000000000E-002     8.0063719614750677E-019
   5.0700000000000009E-002    -2.5418371898851819E-018
   5.1000000000000004E-002     7.8125630926589247E-018
   5.1299999999999998E-002    -2.2658060150261805E-017
   5.1600000000000007E-002     5.9131933891612497E-017
   5.1900000000000002E-002    -1.2506700120928383E-016
   5.2200000000000010E-002     1.3801963214766015E-016
   5.2500000000000005E-002     4.6552215251908671E-016
   5.2800000000000000E-002    -4.0537694215710399E-015
   5.3099999999999994E-002     1.8172129523892481E-014
   5.3400000000000003E-002    -6.0652794776117824E-014
   5.3699999999999998E-002     1.5386037391291088E-013
   5.4000000000000006E-002    -2.4761133390921503E-013
   5.4300000000000001E-002    -1.0316977711681529E-013
   5.4599999999999996E-002     2.5515795500499795E-012
   5.4900000000000004E-002    -1.0743151902649762E-011
   5.5199999999999999E-002     2.6512175926714997E-011
   5.5499999999999994E-002    -2.7135229477905901E-011
   5.5800000000000002E-002    -9.2386629610183275E-011
   5.6099999999999997E-002     5.4361576676207140E-010
   5.6400000000000006E-002    -1.2451648649595731E-009
   5.6700000000000000E-002     2.8548255296420092E-010
   5.6999999999999995E-002     7.5847402696558782E-009
   5.7300000000000004E-002    -2.2625227636398609E-008
   5.7599999999999998E-002     5.6994772255252868E-009
   5.7900000000000007E-002     1.2621180307710146E-007
   5.8200000000000002E-002    -2.7591311883512676E-007
   5.8499999999999996E-002    -4.2691335667766035E-007
   5.8800000000000005E-002     2.7668500131349603E-006
   5.9100000000000000E-002     8.0366260921403233E-006
   5.9400000000000008E-002     9.5305127903667573E-006
   5.9700000000000003E-002     8.5991201659495923E-006
   6.0000000000000012E-002     1.1566113381312620E-005
   6.0300000000000006E-002     1.8149742745019286E-005
   6.0600000000000001E-002     2.6877487845981074E-005
   6.0900000000000010E-002     4.1141463185430167E-005
   6.1200000000000004E-002     6.3026767433754419E-005
   6.1500000000000013E-002     9.1562060746396698E-005
   6.1800000000000008E-002     1.2835958977062032E-004
   6.2100000000000002E-002     1.7946275638695480E-004
   6.2399999999999997E-002     2.4734723364440528E-004
   6.2700000000000006E-002     3.2848551537417985E-004
   6.3000000000000000E-002     4.2317642733787227E-004
   6.3300000000000009E-002     5.3455298402577231E-004
   6.3600000000000004E-002     6.5935847683579825E-004
   6.3899999999999998E-002     7.8682283816437738E-004
   6.4199999999999993E-002     8.9914533495433820E-004
   6.4500000000000002E-002     9.7113635040508781E-004
   6.4800000000000010E-002     9.6929001279606351E-004
   6.5100000000000005E-002     8.4913540745919984E-004
   6.5400000000000000E-002     5.5190635095234619E-004
   6.5700000000000008E-002     2.3550988714008265E-006
   6.5999999999999989E-002    -8.7910752904958350E-004
   6.6299999999999998E-002    -2.1640028465098877E-003
   6.6600000000000006E-002    -3.9256399224471012E-003
   6.6900000000000001E-002    -6.2343235869460707E-003
   6.7199999999999996E-002    -9.1267198672434820E-003
   6.7500000000000004E-002    -1.2589198698737010E-002
   6.7800000000000013E-002    -1.6546563118463514E-002
   6.8099999999999994E-002    -2.0845530733925831E-002
   6.8400000000000002E-002    -2.5247061352576459E-002
   6.8700000000000011E-002    -2.9418715121284938E-002
   6.8999999999999992E-002    -3.2937065743459094E-002
   6.9300000000000000E-002    -3.5307911834739289E-002
   6.9600000000000009E-002    -3.5986906186218769E-002
   6.9900000000000004E-002    -3.4420376978104995E-002
   7.0199999999999999E-002    -3.0113129350067325E-002
   7.0500000000000007E-002    -2.2683697338621463E-002
   7.0800000000000016E-002    -1.1924445921749207E-002
   7.1099999999999997E-002     2.1237342988830996E-003
   7.1400000000000005E-002     1.9125270883764194E-002
   7.1700000000000000E-002     3.8431537242114365E-002
   7.1999999999999995E-002     5.9077903900666882E-002
   7.2300000000000003E-002     7.9815676893018134E-002
   7.2600000000000012E-002     9.9188774057957327E-002
   7.2900000000000006E-002    0.11564779793666904     
   7.3200000000000001E-002    0.12767599650572395     
   7.3499999999999996E-002    0.13394150076348682     
   7.3800000000000004E-002    0.13346706157948030     
   7.4099999999999999E-002    0.12576119167057803     
   7.4400000000000008E-002    0.11092554065756552     
   7.4700000000000003E-002     8.9726249256949053E-002
   7.5000000000000011E-002     6.3574843941271275E-002
   7.5299999999999992E-002     3.4457420767131541E-002
   7.5600000000000001E-002     4.8092002013427736E-003
   7.5900000000000009E-002    -2.2688235047778796E-002
   7.6200000000000004E-002    -4.5354634193967867E-002
   7.6499999999999999E-002    -6.0792430669807940E-002
   7.6800000000000007E-002    -6.7125215504097710E-002
   7.7099999999999988E-002    -6.3253853585097830E-002
   7.7399999999999997E-002    -4.9039739841298904E-002
   7.7700000000000005E-002    -2.5377212840740297E-002
   7.8000000000000014E-002     5.7945029333972935E-003
   7.8299999999999995E-002     4.1592696806832419E-002
   7.8600000000000003E-002     7.8418086570466825E-002
   7.8900000000000012E-002    0.11226688728795189     
   7.9199999999999993E-002    0.13905138701950187     
   7.9500000000000001E-002    0.15503702833611488     
   7.9800000000000010E-002    0.15728996077474816     
   8.0100000000000018E-002    0.14394717155365175     
   8.0399999999999999E-002    0.11445001105615576     
   8.0700000000000008E-002     6.9788458533986242E-002
   8.1000000000000003E-002     1.2418843525318128E-002
   8.1299999999999997E-002    -5.3893569283790486E-002
   8.1600000000000006E-002   -0.12431352241434529     
   8.1900000000000014E-002   -0.19338887049002937     
   8.2199999999999995E-002   -0.25554645358673828     
   8.2500000000000004E-002   -0.30559045519843114     
   8.2799999999999999E-002   -0.33918606015658026     
   8.3100000000000007E-002   -0.35331127265110235     
   8.3400000000000002E-002   -0.34657289751812004     
   8.3700000000000011E-002   -0.31929238311733754     
   8.4000000000000005E-002   -0.27353387914142469     
   8.4300000000000000E-002   -0.21294385115553804     
   8.4599999999999995E-002   -0.14236655969763923     
   8.4900000000000003E-002    -6.7449845786846152E-002
   8.5199999999999998E-002     5.7950212334056117E-003
   8.5500000000000007E-002     7.1615524129296421E-002
   8.5800000000000001E-002    0.12496089231953450     
   8.6100000000000010E-002    0.16170919338678025     
   8.6399999999999991E-002    0.17910134358042804     
   8.6699999999999999E-002    0.17593446977919847     
   8.7000000000000008E-002    0.15240646093257984     
   8.7300000000000003E-002    0.11003465790216732     
   8.7599999999999997E-002     5.1592760330973465E-002
   8.7900000000000006E-002    -1.9167184867495735E-002
   8.8200000000000014E-002    -9.7953460242016580E-002
   8.8499999999999995E-002   -0.18013340464388602     
   8.8800000000000004E-002   -0.26087109277981163     
   8.9100000000000013E-002   -0.33561240633775608     
   8.9399999999999993E-002   -0.40017166045235963     
   8.9700000000000002E-002   -0.45068930690969888     
   9.0000000000000011E-002   -0.48403999322627533     
   9.0299999999999991E-002   -0.49781041302423912     
   9.0600000000000000E-002   -0.49021700833771753     
   9.0900000000000009E-002   -0.46033622482843850     
   9.1200000000000017E-002   -0.40813836734681092     
   9.1499999999999998E-002   -0.33441082132581568     
   9.1800000000000007E-002   -0.24084235214154048     
   9.2100000000000001E-002   -0.13008945918128009     
   9.2399999999999996E-002    -5.6554078747869350E-003
   9.2700000000000005E-002    0.12828936217988243     
   9.3000000000000013E-002    0.26679361093208492     
   9.3300000000000008E-002    0.40447269241445682     
   9.3600000000000003E-002    0.53582811362636962     
   9.3899999999999997E-002    0.65527402165025217     
   9.4200000000000006E-002    0.75764773365001503     
   9.4500000000000001E-002    0.83848862601704255     
   9.4800000000000009E-002    0.89420033183698144     
   9.5100000000000004E-002    0.92235494174908084     
   9.5399999999999999E-002    0.92189378989246651     
   9.5699999999999993E-002    0.89314140898569983     
   9.6000000000000002E-002    0.83778579308614143     
   9.6300000000000011E-002    0.75881765242327059     
   9.6600000000000005E-002    0.66033370200868668     
   9.6900000000000000E-002    0.54716629619843116     
   9.7200000000000009E-002    0.42460988643063202     
   9.7499999999999989E-002    0.29814929450724859     
   9.7799999999999998E-002    0.17303165812191040     
   9.8100000000000007E-002     5.3961056125822582E-002
   9.8400000000000015E-002    -5.5080034509611783E-002
   9.8699999999999996E-002   -0.15101796294039060     
   9.9000000000000005E-002   -0.23173960696468066     
   9.9300000000000013E-002   -0.29620277741804707     
   9.9599999999999994E-002   -0.34416190213863584     
   9.9900000000000003E-002   -0.37615565701944326     
  0.10020000000000001        -0.39351436819816715     
  0.10049999999999999        -0.39790243602810055     
  0.10080000000000000        -0.39125574927725548     
  0.10110000000000001        -0.37587886714429891     
  0.10140000000000000        -0.35407249113996492     
  0.10170000000000000        -0.32817470587932396     
  0.10200000000000001        -0.30063941068880567     
  0.10230000000000002        -0.27381869533831726     
  0.10260000000000000        -0.25004172496051047     
  0.10290000000000001        -0.23160509232212600     
  0.10320000000000000        -0.22061783391919942     
  0.10350000000000001        -0.21900809446260039     
  0.10380000000000000        -0.22835361341189570     
  0.10410000000000001        -0.24972611041195653     
  0.10440000000000001        -0.28363983537401083     
  0.10470000000000000        -0.32981550782913821     
  0.10500000000000000        -0.38713599852819852     
  0.10530000000000000        -0.45353279490230558     
  0.10560000000000000        -0.52601169031978112     
  0.10590000000000001        -0.60073774065716168     
  0.10620000000000000        -0.67304955379906950     
  0.10650000000000001        -0.73766535864737492     
  0.10679999999999999        -0.78907694032200804     
  0.10710000000000000        -0.82163903390338855     
  0.10740000000000001        -0.83008525657129362     
  0.10770000000000000        -0.80979310663417892     
  0.10800000000000000        -0.75714187064135741     
  0.10830000000000001        -0.66998088772503872     
  0.10859999999999999        -0.54778501238330446     
  0.10890000000000000        -0.39189092670206971     
  0.10920000000000001        -0.20570953192815222     
  0.10950000000000001          5.2581898347171391E-003
  0.10979999999999999         0.23367492690217700     
  0.11009999999999999         0.47058345214649328     
  0.11040000000000001         0.70582152249031471     
  0.11070000000000001         0.92856321653911722     
  0.11100000000000000          1.1278888065953125     
  0.11130000000000000          1.2938363427984223     
  0.11160000000000002          1.4177572617509384     
  0.11190000000000001          1.4928044902903725     
  0.11220000000000001          1.5150276285345528     
  0.11250000000000000          1.4833259790515212     
  0.11280000000000000          1.3992599871381277     
  0.11309999999999999          1.2674673270547232     
  0.11340000000000001          1.0951215449156841     
  0.11369999999999998         0.89109574521398449     
  0.11400000000000000         0.66550482389779098     
  0.11430000000000000         0.42898693479034272     
  0.11460000000000002         0.19172778731287077     
  0.11489999999999999         -3.6995220716646626E-002
  0.11520000000000001        -0.24919024241323862     
  0.11550000000000001        -0.43882432901596302     
  0.11580000000000000        -0.60164147535062895     
  0.11609999999999999        -0.73481590605959746     
  0.11640000000000002        -0.83692288726763508     
  0.11670000000000001        -0.90759943632266815     
  0.11700000000000001        -0.94686831044435016     
  0.11730000000000000        -0.95496034384381212     
  0.11760000000000000        -0.93219704989711216     
  0.11789999999999999        -0.87848142633487680     
  0.11820000000000001        -0.79387762428226927     
  0.11850000000000001        -0.67882258925158712     
  0.11880000000000000        -0.53401296458683589     
  0.11910000000000000        -0.36139824298844775     
  0.11940000000000002        -0.16433694051993519     
  0.11970000000000001          5.2235737248771827E-002
  0.12000000000000001         0.28157581476454729     
  0.12030000000000000         0.51521839215457499     
  0.12060000000000000         0.74328179537361005     
  0.12089999999999999         0.95504615612914689     
  0.12119999999999999          1.1396412000649923     
  0.12150000000000001          1.2867931483001804     
  0.12180000000000001          1.3874525898029664     
  0.12210000000000000          1.4348038218273900     
  0.12239999999999999          1.4248831685077759     
  0.12270000000000002          1.3564046652156203     
  0.12300000000000001          1.2313239156673850     
  0.12330000000000001          1.0548994141678760     
  0.12360000000000000         0.83480004470899816     
  0.12390000000000000         0.58061671673298676     
  0.12419999999999999         0.30355674248950953     
  0.12450000000000001          1.5285610880766964E-002
  0.12480000000000001        -0.27286151189145830     
  0.12509999999999999        -0.55035503957285092     
  0.12540000000000001        -0.80806707837177927     
  0.12570000000000003         -1.0387770395230862     
  0.12600000000000000         -1.2371196796700779     
  0.12630000000000002         -1.3997368392924536     
  0.12659999999999999         -1.5249847012216293     
  0.12690000000000001         -1.6123210408842865     
  0.12719999999999998         -1.6623518668663924     
  0.12750000000000000         -1.6764052148891453     
  0.12780000000000002         -1.6556243427303567     
  0.12809999999999999         -1.6011991026276766     
  0.12840000000000001         -1.5143928606412056     
  0.12869999999999998         -1.3960978236424979     
  0.12900000000000000         -1.2473231827391276     
  0.12930000000000003         -1.0694918171702534     
  0.12959999999999999        -0.86452391996638023     
  0.12990000000000002        -0.63535765241925524     
  0.13019999999999998        -0.38629188922591812     
  0.13050000000000000        -0.12305545766009038     
  0.13080000000000003         0.14739783983813362     
  0.13109999999999999         0.41676737320295504     
  0.13140000000000002         0.67566708378893625     
  0.13169999999999998         0.91454942722943189     
  0.13200000000000001          1.1240282292062120     
  0.13229999999999997          1.2954096339157926     
  0.13260000000000000          1.4215223861681836     
  0.13290000000000002          1.4972987666609876     
  0.13319999999999999          1.5200267608806113     
  0.13350000000000001          1.4895173803649002     
  0.13380000000000003          1.4082323266503334     
  0.13410000000000000          1.2813397630995202     
  0.13440000000000002          1.1157817784018884     
  0.13469999999999999         0.91999577806516042     
  0.13500000000000001         0.70376330999149084     
  0.13529999999999998         0.47730438373877637     
  0.13560000000000000         0.25034681377136114     
  0.13590000000000002          3.2181369628014836E-002
  0.13619999999999999        -0.16847828619350752     
  0.13650000000000001        -0.34452842225331104     
  0.13680000000000003        -0.49020468089206337     
  0.13710000000000000        -0.60094984862933254     
  0.13740000000000002        -0.67375309811443818     
  0.13769999999999999        -0.70726736472315366     
  0.13800000000000001        -0.70171620313142402     
  0.13829999999999998        -0.65872665468816050     
  0.13860000000000000        -0.58165720838585355     
  0.13890000000000002        -0.47572356878153355     
  0.13919999999999999        -0.34757080341218838     
  0.13950000000000001        -0.20529055969805499     
  0.13979999999999998         -5.8099407907193132E-002
  0.14010000000000000          8.3860739062292647E-002
  0.14040000000000002         0.21037583403218219     
  0.14069999999999999         0.31200943155886968     
  0.14100000000000001         0.38032450017420172     
  0.14130000000000004         0.40890854359380413     
  0.14160000000000000         0.39417477097841808     
  0.14189999999999997         0.33560793275073053     
  0.14219999999999999         0.23581139358142211     
  0.14250000000000002         0.10077312376134412     
  0.14279999999999998         -6.0465445675687249E-002
  0.14310000000000000        -0.23683184284523418     
  0.14339999999999997        -0.41585406206812625     
  0.14369999999999999        -0.58452173309752509     
  0.14400000000000002        -0.73066604073744368     
  0.14429999999999998        -0.84354607860979924     
  0.14460000000000001        -0.91494176447887310     
  0.14490000000000003        -0.93984211147624697     
  0.14520000000000000        -0.91625520719822084     
  0.14550000000000002        -0.84537159234201953     
  0.14579999999999999        -0.73160231864475322     
  0.14610000000000001        -0.58144421283443926     
  0.14640000000000003        -0.40314836599410242     
  0.14670000000000000        -0.20595872414682792     
  0.14699999999999996          8.2283432275343654E-004
  0.14729999999999999         0.20812917051862234     
  0.14760000000000001         0.40754907050904871     
  0.14789999999999998         0.59183301882112005     
  0.14820000000000000         0.75462135113962270     