  -1.4999999999999999E-002     0.0000000000000000     
  -1.4700000000000000E-002     0.0000000000000000     
  -1.4400000000000000E-002     0.0000000000000000     
  -1.4100000000000000E-002     0.0000000000000000     
  -1.3800000000000000E-002     0.0000000000000000     
  -1.3500000000000000E-002     0.0000000000000000     
  -1.3200000000000000E-002     0.0000000000000000     
  -1.2899999999999998E-002     0.0000000000000000     
  -1.2600000000000000E-002     0.0000000000000000     
  -1.2299999999999998E-002     0.0000000000000000     
  -1.2000000000000000E-002     0.0000000000000000     
  -1.1699999999999999E-002     0.0000000000000000     
  -1.1399999999999999E-002     0.0000000000000000     
  -1.1099999999999999E-002     0.0000000000000000     
  -1.0799999999999999E-002     0.0000000000000000     
  -1.0499999999999999E-002     0.0000000000000000     
  -1.0199999999999999E-002     0.0000000000000000     
  -9.8999999999999991E-003     0.0000000000000000     
  -9.5999999999999992E-003     0.0000000000000000     
  -9.2999999999999992E-003     0.0000000000000000     
  -8.9999999999999993E-003     0.0000000000000000     
  -8.6999999999999994E-003     0.0000000000000000     
  -8.3999999999999995E-003     0.0000000000000000     
  -8.0999999999999996E-003     0.0000000000000000     
  -7.7999999999999988E-003     0.0000000000000000     
  -7.4999999999999997E-003     0.0000000000000000     
  -7.1999999999999998E-003     0.0000000000000000     
  -6.8999999999999981E-003     0.0000000000000000     
  -6.5999999999999982E-003     0.0000000000000000     
  -6.3000000000000000E-003     0.0000000000000000     
  -6.0000000000000001E-003     0.0000000000000000     
  -5.6999999999999985E-003     0.0000000000000000     
  -5.3999999999999986E-003     0.0000000000000000     
  -5.1000000000000004E-003     0.0000000000000000     
  -4.7999999999999987E-003     0.0000000000000000     
  -4.5000000000000005E-003     0.0000000000000000     
  -4.1999999999999989E-003     0.0000000000000000     
  -3.8999999999999990E-003     0.0000000000000000     
  -3.5999999999999990E-003     0.0000000000000000     
  -3.2999999999999991E-003     0.0000000000000000     
  -2.9999999999999992E-003     0.0000000000000000     
  -2.6999999999999993E-003     0.0000000000000000     
  -2.3999999999999994E-003     0.0000000000000000     
  -2.0999999999999977E-003     0.0000000000000000     
  -1.7999999999999995E-003     0.0000000000000000     
  -1.4999999999999979E-003     0.0000000000000000     
  -1.1999999999999997E-003     0.0000000000000000     
  -8.9999999999999976E-004     0.0000000000000000     
  -5.9999999999999810E-004     0.0000000000000000     
  -2.9999999999999992E-004     0.0000000000000000     
   0.0000000000000000          0.0000000000000000     
   3.0000000000000165E-004     0.0000000000000000     
   5.9999999999999984E-004     0.0000000000000000     
   9.0000000000000149E-004     0.0000000000000000     
   1.2000000000000031E-003     0.0000000000000000     
   1.5000000000000013E-003     0.0000000000000000     
   1.8000000000000030E-003     0.0000000000000000     
   2.1000000000000012E-003     0.0000000000000000     
   2.3999999999999994E-003     0.0000000000000000     
   2.7000000000000010E-003     0.0000000000000000     
   2.9999999999999992E-003     0.0000000000000000     
   3.3000000000000008E-003     0.0000000000000000     
   3.6000000000000025E-003     0.0000000000000000     
   3.9000000000000007E-003     0.0000000000000000     
   4.2000000000000023E-003     0.0000000000000000     
   4.5000000000000005E-003     0.0000000000000000     
   4.7999999999999987E-003     0.0000000000000000     
   5.1000000000000004E-003     0.0000000000000000     
   5.4000000000000020E-003     0.0000000000000000     
   5.7000000000000037E-003     0.0000000000000000     
   5.9999999999999984E-003     0.0000000000000000     
   6.3000000000000000E-003     0.0000000000000000     
   6.6000000000000017E-003     0.0000000000000000     
   6.9000000000000034E-003     0.0000000000000000     
   7.2000000000000015E-003     0.0000000000000000     
   7.5000000000000032E-003     0.0000000000000000     
   7.8000000000000014E-003     0.0000000000000000     
   8.0999999999999996E-003     0.0000000000000000     
   8.4000000000000012E-003     0.0000000000000000     
   8.7000000000000029E-003     0.0000000000000000     
   9.0000000000000011E-003     0.0000000000000000     
   9.2999999999999992E-003     0.0000000000000000     
   9.6000000000000009E-003     0.0000000000000000     
   9.8999999999999991E-003     0.0000000000000000     
   1.0200000000000001E-002     0.0000000000000000     
   1.0500000000000002E-002    -7.1098961473949329E-036
   1.0800000000000004E-002     7.5597446351822924E-036
   1.1099999999999999E-002     1.0683274640310477E-034
   1.1400000000000000E-002    -2.4459136598421751E-034
   1.1700000000000002E-002     3.3077160138378669E-034
   1.2000000000000004E-002    -1.0969700087928026E-033
   1.2300000000000002E-002     2.4994669360992971E-033
   1.2600000000000000E-002    -3.6460932486144284E-033
   1.2900000000000002E-002     3.6392294841947087E-033
   1.3200000000000000E-002     1.0280474134912357E-033
   1.3500000000000002E-002    -1.5253060494926111E-032
   1.3800000000000003E-002     3.5578620521848457E-032
   1.4100000000000001E-002    -3.9827706388013544E-032
   1.4400000000000000E-002    -1.3511432389268370E-032
   1.4700000000000001E-002     1.5020006324280736E-031
   1.4999999999999999E-002    -3.0302957821628918E-031
   1.5300000000000001E-002     2.8494002552475608E-031
   1.5600000000000003E-002     9.0011649549493026E-032
   1.5899999999999997E-002    -8.1377259456528688E-031
   1.6199999999999999E-002     1.7006042307590319E-030
   1.6500000000000001E-002    -2.6410120037009624E-030
   1.6800000000000002E-002     3.2702375813845103E-030
   1.7100000000000004E-002    -1.0733656013338464E-030
   1.7400000000000006E-002    -1.0544956735869494E-029
   1.7700000000000000E-002     3.8084982094488498E-029
   1.8000000000000002E-002    -7.0798463423071357E-029
   1.8300000000000004E-002     5.5016235222183375E-029
   1.8600000000000005E-002     1.0905701115675591E-028
   1.8900000000000000E-002    -4.8611186722572856E-028
   1.9200000000000002E-002     8.8673281396947994E-028
   1.9500000000000003E-002    -6.0159577990608040E-028
   1.9799999999999998E-002    -1.4716328684928627E-027
   2.0100000000000000E-002     5.5738890940846457E-027
   2.0400000000000001E-002    -8.5939694181690870E-027
   2.0700000000000003E-002     2.6443894158401166E-027
   2.0999999999999998E-002     2.0076555218546861E-026
   2.1299999999999999E-002    -5.2705484348665299E-026
   2.1600000000000001E-002     5.8135907013208435E-026
   2.1900000000000003E-002     2.1169749765745027E-026
   2.2200000000000004E-002    -2.0206094777886992E-025
   2.2500000000000006E-002     3.6855061966125930E-025
   2.2800000000000001E-002    -2.4893489167495064E-025
   2.3100000000000002E-002    -4.0650453536420818E-025
   2.3400000000000004E-002     1.4403847141135658E-024
   2.3699999999999999E-002    -1.9677730089835706E-024
   2.4000000000000000E-002     6.2008480261804185E-025
   2.4300000000000002E-002     3.2987729743289470E-024
   2.4599999999999997E-002    -8.1276455295112842E-024
   2.4900000000000005E-002     9.1214320289394600E-024
   2.5200000000000000E-002    -7.2341374986481838E-025
   2.5499999999999995E-002    -1.7886641628870330E-023
   2.5800000000000003E-002     3.8775220165188202E-023
   2.6099999999999998E-002    -5.0516452078690919E-023
   2.6400000000000007E-002     4.5051064782099104E-023
   2.6700000000000002E-002     1.8483369348896017E-023
   2.6999999999999996E-002    -3.0801631528939203E-022
   2.7300000000000005E-002     9.9192369314570530E-022
   2.7600000000000000E-002    -1.2078721368800640E-021
   2.7900000000000008E-002    -2.4833288825202231E-021
   2.8200000000000003E-002     1.2961754334844047E-020
   2.8499999999999998E-002    -1.6240685511665700E-020
   2.8800000000000006E-002    -3.5329249810617881E-020
   2.9100000000000001E-002     1.7066861358460467E-019
   2.9400000000000003E-002    -2.1666477384186767E-019
   2.9700000000000004E-002    -2.9999082432041949E-019
   3.0000000000000006E-002     1.5830843233093497E-018
   3.0300000000000001E-002    -2.3178358716382971E-018
   3.0600000000000002E-002    -6.0628879959110188E-019
   3.0900000000000004E-002     1.0158747797883579E-017
   3.1199999999999999E-002    -2.4621060222542259E-017
   3.1500000000000007E-002     1.5313767494752820E-017
   3.1800000000000002E-002     1.2004947625237661E-016
   3.2099999999999997E-002    -4.0742492496984991E-016
   3.2400000000000005E-002    -3.2824282221898966E-017
   3.2700000000000000E-002     3.2863748709784689E-015
   3.3000000000000002E-002    -6.3001283125486759E-015
   3.3300000000000003E-002    -1.3204965411993058E-014
   3.3599999999999998E-002     7.6563572438026521E-014
   3.3900000000000000E-002    -7.1667872378712257E-014
   3.4200000000000001E-002    -3.5924156608671848E-013
   3.4500000000000003E-002     1.2361078993150026E-012
   3.4799999999999998E-002    -5.9594606653153426E-013
   3.5099999999999999E-002    -5.3286614322511457E-012
   3.5400000000000001E-002     1.3880920134443194E-011
   3.5699999999999996E-002    -3.3139128189506569E-012
   3.6000000000000004E-002    -5.2592727488164128E-011
   3.6299999999999999E-002     1.1152790231415428E-010
   3.6600000000000008E-002    -7.2772793446906470E-012
   3.6900000000000002E-002    -3.7327748630837726E-010
   3.7199999999999997E-002     6.5350899165245943E-010
   3.7500000000000006E-002     6.8106954639501988E-011
   3.7800000000000000E-002    -1.9438719228598046E-009
   3.8100000000000009E-002     2.7056125753416894E-009
   3.8400000000000004E-002     7.5175133106468830E-010
   3.8699999999999998E-002    -6.5520766944465875E-009
   3.9000000000000007E-002     7.0219009366013804E-009
   3.9300000000000002E-002    -7.1027395575341431E-010
   3.9600000000000003E-002    -4.6990889057762988E-009
   3.9900000000000005E-002     1.9421679512477324E-008
   4.0200000000000000E-002    -7.0323217228213884E-008
   4.0500000000000001E-002     4.0997755039932977E-008
   4.0800000000000003E-002     1.9072464225363868E-007
   4.1100000000000005E-002    -4.8229664216425591E-007
   4.1399999999999999E-002     1.5494298702054416E-006
   4.1700000000000008E-002     1.1567516679859065E-005
   4.2000000000000003E-002     2.5515437531218347E-005
   4.2299999999999997E-002     3.5485587859893376E-005
   4.2600000000000006E-002     4.2068987335555190E-005
   4.2900000000000001E-002     5.4206124046733689E-005
   4.3200000000000002E-002     8.5575802777910600E-005
   4.3500000000000004E-002     1.4058542066139643E-004
   4.3799999999999999E-002     2.1312305425089611E-004
   4.4100000000000000E-002     3.1707335474571199E-004
   4.4400000000000002E-002     4.7931874619690972E-004
   4.4700000000000004E-002     7.0541302692481492E-004
   4.4999999999999998E-002     1.0009906677619872E-003
   4.5300000000000000E-002     1.4024919913006118E-003
   4.5600000000000002E-002     1.9549714163958963E-003
   4.5899999999999996E-002     2.6823560192882948E-003
   4.6200000000000005E-002     3.5984391521313506E-003
   4.6500000000000000E-002     4.7388050159258713E-003
   4.6799999999999994E-002     6.1562700759500858E-003
   4.7100000000000003E-002     7.8854739443687417E-003
   4.7399999999999998E-002     9.9261600368685046E-003
   4.7700000000000006E-002     1.2247898778453453E-002
   4.8000000000000001E-002     1.4806822075817802E-002
   4.8300000000000010E-002     1.7559895367503804E-002
   4.8600000000000004E-002     2.0424816738986100E-002
   4.8899999999999999E-002     2.3236382598319488E-002
   4.9200000000000008E-002     2.5782080025854234E-002
   4.9500000000000002E-002     2.7857040405920457E-002
   4.9800000000000011E-002     2.9244973393582518E-002
   5.0100000000000006E-002     2.9699255462131480E-002
   5.0400000000000000E-002     2.8988646680950553E-002
   5.0700000000000009E-002     2.6905579493043046E-002
   5.1000000000000004E-002     2.3313786544305940E-002
   5.1299999999999998E-002     1.8178786586133616E-002
   5.1600000000000007E-002     1.1503771312378020E-002
   5.1900000000000002E-002     3.3335320410472738E-003
   5.2200000000000010E-002    -6.2247259462915620E-003
   5.2500000000000005E-002    -1.7074392561281803E-002
   5.2800000000000000E-002    -2.9198993377161520E-002
   5.3099999999999994E-002    -4.2684196576023174E-002
   5.3400000000000003E-002    -5.7814748485799983E-002
   5.3699999999999998E-002    -7.5115132783733635E-002
   5.4000000000000006E-002    -9.5346102287210646E-002
   5.4300000000000001E-002   -0.11945114277342656     
   5.4599999999999996E-002   -0.14848794627871523     
   5.4900000000000004E-002   -0.18346436790697573     
   5.5199999999999999E-002   -0.22508292307061861     
   5.5499999999999994E-002   -0.27353771444570740     
   5.5800000000000002E-002   -0.32830594980490302     
   5.6099999999999997E-002   -0.38777746930095108     
   5.6400000000000006E-002   -0.44925540119504304     
   5.6700000000000000E-002   -0.50872403143804978     
   5.6999999999999995E-002   -0.56106466200320904     
   5.7300000000000004E-002   -0.60022360649105477     
   5.7599999999999998E-002   -0.61964489014653434     
   5.7900000000000007E-002   -0.61282791088719335     
   5.8200000000000002E-002   -0.57394619515800860     
   5.8499999999999996E-002   -0.49848865454936170     
   5.8800000000000005E-002   -0.38411100835320716     
   5.9100000000000000E-002   -0.23086698995480870     
   5.9400000000000008E-002    -4.1895715228568123E-002
   5.9700000000000003E-002    0.17666078813913264     
   6.0000000000000012E-002    0.41580902102299011     
   6.0300000000000006E-002    0.66401492561121878     
   6.0600000000000001E-002    0.90814685338045364     
   6.0900000000000010E-002     1.1340022090980137     
   6.1200000000000004E-002     1.3278541620604827     
   6.1500000000000013E-002     1.4769759280723154     
   6.1800000000000008E-002     1.5710581683312896     
   6.2100000000000002E-002     1.6027823858724677     
   6.2399999999999997E-002     1.5684930276440825     
   6.2700000000000006E-002     1.4685818153414472     
   6.3000000000000000E-002     1.3073703241252741     
   6.3300000000000009E-002     1.0928651267813532     
   6.3600000000000004E-002    0.83633317034508869     
   6.3899999999999998E-002    0.55108709271469536     
   6.4199999999999993E-002    0.25229243190389677     
   6.4500000000000002E-002    -4.4992182787084015E-002
   6.4800000000000010E-002   -0.32588809794941276     
   6.5100000000000005E-002   -0.57718331053887839     
   6.5400000000000000E-002   -0.78814280785865987     
   6.5700000000000008E-002   -0.95049590857077260     
   6.5999999999999989E-002    -1.0598629827649524     
   6.6299999999999998E-002    -1.1146341682174181     
   6.6600000000000006E-002    -1.1171323177122900     
   6.6900000000000001E-002    -1.0722302301261000     
   6.7199999999999996E-002   -0.98750174853420103     
   6.7500000000000004E-002   -0.87246460245458479     
   6.7800000000000013E-002   -0.73752165025161476     
   6.8099999999999994E-002   -0.59344100765696650     
   6.8400000000000002E-002   -0.45077752510581737     
   6.8700000000000011E-002   -0.31856684961069137     
   6.8999999999999992E-002   -0.20461082722145651     
   6.9300000000000000E-002   -0.11448037640482736     
   6.9600000000000009E-002    -5.1427526695354032E-002
   6.9900000000000004E-002    -1.6969119748093418E-002
   7.0199999999999999E-002    -9.9250123219835409E-003
   7.0500000000000007E-002    -2.8062432411904488E-002
   7.0800000000000016E-002    -6.7120211101586710E-002
   7.1099999999999997E-002   -0.12202126298388369     
   7.1400000000000005E-002   -0.18716048636299512     
   7.1700000000000000E-002   -0.25617176211242082     
   7.1999999999999995E-002   -0.32292268131589580     
   7.2300000000000003E-002   -0.38084022199019640     
   7.2600000000000012E-002   -0.42406912188542356     
   7.2900000000000006E-002   -0.44663052808685089     
   7.3200000000000001E-002   -0.44321435183609886     
   7.3499999999999996E-002   -0.40968242145779243     
   7.3800000000000004E-002   -0.34231636023249201     
   7.4099999999999999E-002   -0.23955342382537739     
   7.4400000000000008E-002   -0.10149160949915056     
   7.4700000000000003E-002     6.9471396661543838E-002
   7.5000000000000011E-002    0.26800832504346661     
   7.5299999999999992E-002    0.48660058627573199     
   7.5600000000000001E-002    0.71454523472878606     
   7.5900000000000009E-002    0.93928097871538574     
   7.6200000000000004E-002     1.1468597649027188     
   7.6499999999999999E-002     1.3224040349472377     
   7.6800000000000007E-002     1.4522382181766162     
   7.7099999999999988E-002     1.5240566966755489     
   7.7399999999999997E-002     1.5287754838373275     
   7.7700000000000005E-002     1.4613918423073460     
   7.8000000000000014E-002     1.3216876187705355     
   7.8299999999999995E-002     1.1142476023289636     
   7.8600000000000003E-002    0.84884027900693704     
   7.8900000000000012E-002    0.53906653452949016     
   7.9199999999999993E-002    0.20264063116698888     
   7.9500000000000001E-002   -0.14158376663415584     
   7.9800000000000010E-002   -0.47346022902332408     
   8.0100000000000018E-002   -0.77419219269167527     
   8.0399999999999999E-002    -1.0270715812123079     
   8.0700000000000008E-002    -1.2188342747640883     
   8.1000000000000003E-002    -1.3409593123345214     
   8.1299999999999997E-002    -1.3886169289968673     
   8.1600000000000006E-002    -1.3632533719771109     
   8.1900000000000014E-002    -1.2693342206628850     
   8.2199999999999995E-002    -1.1164105233914852     
   8.2500000000000004E-002   -0.91644266711276867     
   8.2799999999999999E-002   -0.68373695839855686     
   8.3100000000000007E-002   -0.43412120214862904     
   8.3400000000000002E-002   -0.18278725106915059     
   8.3700000000000011E-002     5.4643366775807597E-002
   8.4000000000000005E-002    0.26498573142587928     
   8.4300000000000000E-002    0.43691795546576029     
   8.4599999999999995E-002    0.56178000568551634     
   8.4900000000000003E-002    0.63379923131978133     
   8.5199999999999998E-002    0.65166459856241998     
   8.5500000000000007E-002    0.61636518629776482     
   8.5800000000000001E-002    0.53416734988633818     
   8.6100000000000010E-002    0.41301507667344695     
   8.6399999999999991E-002    0.26565502823642667     
   8.6699999999999999E-002    0.10621439888676966     
   8.7000000000000008E-002    -4.9701242806823726E-002
   8.7300000000000003E-002   -0.18501206695830708     
   8.7599999999999997E-002   -0.28520353829647099     
   8.7900000000000006E-002   -0.33661296094219839     
   8.8200000000000014E-002   -0.32992555958773773     
   8.8499999999999995E-002   -0.26019069137316475     
   8.8800000000000004E-002   -0.12837332556923867     
   8.9100000000000013E-002     5.9436377781535779E-002
   8.9399999999999993E-002    0.29073159510921787     
   8.9700000000000002E-002    0.54873258750238485     
   9.0000000000000011E-002    0.81241923716574072     
   9.0299999999999991E-002     1.0588347861009015     
   9.0600000000000000E-002     1.2643486152468855     
   9.0900000000000009E-002     1.4074309910794152     
   9.1200000000000017E-002     1.4688119703756444     
   9.1499999999999998E-002     1.4352173602801770     
   9.1800000000000007E-002     1.2988918814779278     
   9.2100000000000001E-002     1.0578837197910191     
   9.2399999999999996E-002    0.71908609288086167     
   9.2700000000000005E-002    0.29353584339647715     
   9.3000000000000013E-002   -0.20051195906819089     
   9.3300000000000008E-002   -0.74030519353135349     
   9.3600000000000003E-002    -1.3005721615469654     
   9.3899999999999997E-002    -1.8529019365985337     
   9.4200000000000006E-002    -2.3694305398102999     
   9.4500000000000001E-002    -2.8227348275858244     
   9.4800000000000009E-002    -3.1876959724606886     
   9.5100000000000004E-002    -3.4427552128823007     
   9.5399999999999999E-002    -3.5709633719551821     
   9.5699999999999993E-002    -3.5608143694381891     
   9.6000000000000002E-002    -3.4075059781918209     
   9.6300000000000011E-002    -3.1129310033474704     
   9.6600000000000005E-002    -2.6864709778430789     
   9.6900000000000000E-002    -2.1443092775553394     
   9.7200000000000009E-002    -1.5110825291016663     
   9.7499999999999989E-002   -0.81542331318178451     
   9.7799999999999998E-002    -9.2645660836965169E-002
   9.8100000000000007E-002    0.62035148013414609     
   9.8400000000000015E-002     1.2851978359204856     
   9.8699999999999996E-002     1.8658991825250633     
   9.9000000000000005E-002     2.3309292529341046     
   9.9300000000000013E-002     2.6553055945930488     
   9.9599999999999994E-002     2.8243376898178489     
   9.9900000000000003E-002     2.8327724617129078     
  0.10020000000000001          2.6880628754124145     
  0.10049999999999999          2.4079928109762299     
  0.10080000000000000          2.0213525039126150     
  0.10110000000000001          1.5639812732094920     
  0.10140000000000000          1.0775527791135109     
  0.10170000000000000         0.60524003629668255     
  0.10200000000000001         0.18846672326059299     
  0.10230000000000002        -0.13702183778919780     
  0.10260000000000000        -0.34357847938933556     
  0.10290000000000001        -0.41442911361896878     
  0.10320000000000000        -0.34514770850727150     
  0.10350000000000001        -0.14361991367849997     
  0.10380000000000000         0.16965536867656145     
  0.10410000000000001         0.56486884277187310     
  0.10440000000000001          1.0036803865533057     
  0.10470000000000000          1.4439412759883077     
  0.10500000000000000          1.8418556869577734     
  0.10530000000000000          2.1557524622511610     
  0.10560000000000000          2.3510072640996178     
  0.10590000000000001          2.4000311287259954     
  0.10620000000000000          2.2875187757340441     
  0.10650000000000001          2.0088026846411524     
  0.10679999999999999          1.5728646793964831     
  0.10710000000000000          1.0001824127029211     
  0.10740000000000001         0.32227762245761532     
  0.10770000000000000        -0.42142846092294173     
  0.10800000000000000         -1.1855015707458849     
  0.10830000000000001         -1.9223431366035522     
  0.10859999999999999         -2.5852816186864254     
  0.10890000000000000         -3.1316681054051689     
  0.10920000000000001         -3.5265813081237072     
  0.10950000000000001         -3.7446956899580250     
  0.10979999999999999         -3.7720237094611981     
  0.11009999999999999         -3.6064660908334178     
  0.11040000000000001         -3.2582955749281406     
  0.11070000000000001         -2.7487297462700928     
  0.11100000000000000         -2.1077285214443240     
  0.11130000000000000         -1.3727833413609822     
  0.11160000000000002        -0.58452746690892277     
  0.11190000000000001         0.21467995810006332     
  0.11220000000000001         0.98425034582606630     
  0.11250000000000000          1.6876388663809065     
  0.11280000000000000          2.2936665971009766     
  0.11309999999999999          2.7797777694214454     
  0.11340000000000001          3.1291303741404688     
  0.11369999999999998          3.3349154149601605     
  0.11400000000000000          3.3960569077083087     
  0.11430000000000000          3.3192911307484501     
  0.11460000000000002          3.1162886735360704     
  0.11489999999999999          2.8028898280688321     
  0.11520000000000001          2.3987729494217844     
  0.11550000000000001          1.9251100852365501     
  0.11580000000000000          1.4042157849922343     
  0.11609999999999999         0.85967644277248711     
  0.11640000000000002         0.31367520972895496     
  0.11670000000000001        -0.21136705944735554     
  0.11700000000000001        -0.69391207612881101     
  0.11730000000000000         -1.1151713534497805     
  0.11760000000000000         -1.4565385854838238     
  0.11789999999999999         -1.7040057281058330     
  0.11820000000000001         -1.8456755751963743     
  0.11850000000000001         -1.8745697358453999     
  0.11880000000000000         -1.7882760118485386     
  0.11910000000000000         -1.5903684181546109     
  0.11940000000000002         -1.2911241097435846     
  0.11970000000000001        -0.90506277916157962     
  0.12000000000000001        -0.45555651257838542     
  0.12030000000000000          3.1428558571854663E-002
  0.12060000000000000         0.52568838342057556     
  0.12089999999999999         0.99355860774031091     
  0.12119999999999999          1.4043976094942814     
  0.12150000000000001          1.7274144638541813     
  0.12180000000000001          1.9385344389079613     
  0.12210000000000000          2.0203182903726309     
  0.12239999999999999          1.9623904007063764     
  0.12270000000000002          1.7665983976429145     
  0.12300000000000001          1.4420111296424534     
  0.12330000000000001          1.0082978937068048     
  0.12360000000000000         0.49343109233651244     
  0.12390000000000000         -7.0106142278758499E-002
  0.12419999999999999        -0.64478788587876301     
  0.12450000000000001         -1.1932188096338008     
  0.12480000000000001         -1.6803666107472230     
  0.12509999999999999         -2.0750178862208193     
  0.12540000000000001         -2.3548678643059668     
  0.12570000000000003         -2.5045353282581564     
  0.12600000000000000         -2.5206139948212436     
  0.12630000000000002         -2.4083769693865418     
  0.12659999999999999         -2.1836528642975250     
  0.12690000000000001         -1.8713327017959838     
  0.12719999999999998         -1.5009222134620910     
  0.12750000000000000         -1.1091212942261055     
  0.12780000000000002        -0.73161995478366881     
  0.12809999999999999        -0.40583084122068480     
  0.12840000000000001        -0.16335089776547795     
  0.12869999999999998         -3.1971069898137805E-002
  0.12900000000000000         -3.0731529980436968E-002
  0.12930000000000003        -0.16954462419178071     
  0.12959999999999999        -0.44926406978267347     
  0.12990000000000002        -0.85947528443367804     
  0.13019999999999998         -1.3804715392320521     
  0.13050000000000000         -1.9831436811930958     
  0.13080000000000003         -2.6311874720156112     
  0.13109999999999999         -3.2817030621898393     
  0.13140000000000002         -3.8895264608837614     
  0.13169999999999998         -4.4067059679159932     
  0.13200000000000001         -4.7892929331657479     
  0.13229999999999997         -4.9953848137667780     
  0.13260000000000000         -4.9935480290399186     
  0.13290000000000002         -4.7593017602592678     
  0.13319999999999999         -4.2822500055736690     
  0.13350000000000001         -3.5655329786102414     
  0.13380000000000003         -2.6255226464724322     
  0.13410000000000000         -1.4951816915563581     
  0.13440000000000002        -0.21869870391061164     
  0.13469999999999999          1.1466433008159638     
  0.13500000000000001          2.5359456822578803     
  0.13529999999999998          3.8796975926969797     
  0.13560000000000000          5.1075730617854438     
  0.13590000000000002          6.1547794576474741     
  0.13619999999999999          6.9639797347345471     
  0.13650000000000001          7.4936695122593111     
  0.13680000000000003          7.7159199605665725     
  0.13710000000000000          7.6253051518945529     
  0.13740000000000002          7.2336072551938262     
  0.13769999999999999          6.5737661823991900     
  0.13800000000000001          5.6955336920134689     
  0.13829999999999998          4.6616539244442921     
  0.13860000000000000          3.5451008469148237     
  0.13890000000000002          2.4215170444429708     
  0.13919999999999999          1.3647358644400713     
  0.13950000000000001         0.44047524266189791     
  0.13979999999999998        -0.29774089209825699     
  0.14010000000000000        -0.81342093585952180     
  0.14040000000000002         -1.0883759043373868     
  0.14069999999999999         -1.1247341291939608     
  0.14100000000000001        -0.94084078595826959     
  0.14130000000000004        -0.57481888682119564     
  0.14160000000000000         -7.3321939600748814E-002
  0.14189999999999997         0.50607828489777684     
  0.14219999999999999          1.1043431467936051     
  0.14250000000000002          1.6633469087889827     
  0.14279999999999998          2.1308025848787171     
  0.14310000000000000          2.4640586377429927     
  0.14339999999999997          2.6312969112101432     
  0.14369999999999999          2.6153600859355888     
  0.14400000000000002          2.4100366389229344     
  0.14429999999999998          2.0228579721806930     
  0.14460000000000001          1.4725648583429500     
  0.14490000000000003         0.78557943991470180     
  0.14520000000000000         -3.4446765163059271E-003
  0.14550000000000002        -0.85702218671406549     
  0.14579999999999999         -1.7347067449388178     
  0.14610000000000001         -2.5958376661911591     
  0.14640000000000003         -3.4020079763848163     
  0.14670000000000000         -4.1165826280960456     
  0.14699999999999996         -4.7086918932539295     
  0.14729999999999999         -5.1519869379466146     
  0.14760000000000001         -5.4249390375677358     
  0.14789999999999998         -5.5157135691789838     
  0.14820000000000000         -5.4164746673560185     