  -1.4999999999999999E-002     0.0000000000000000     
  -1.4700000000000000E-002     0.0000000000000000     
  -1.4400000000000000E-002     0.0000000000000000     
  -1.4100000000000000E-002     0.0000000000000000     
  -1.3800000000000000E-002     0.0000000000000000     
  -1.3500000000000000E-002     0.0000000000000000     
  -1.3200000000000000E-002     0.0000000000000000     
  -1.2899999999999998E-002     0.0000000000000000     
  -1.2600000000000000E-002     0.0000000000000000     
  -1.2299999999999998E-002     0.0000000000000000     
  -1.2000000000000000E-002     0.0000000000000000     
  -1.1699999999999999E-002     0.0000000000000000     
  -1.1399999999999999E-002     0.0000000000000000     
  -1.1099999999999999E-002     0.0000000000000000     
  -1.0799999999999999E-002     0.0000000000000000     
  -1.0499999999999999E-002     0.0000000000000000     
  -1.0199999999999999E-002     0.0000000000000000     
  -9.8999999999999991E-003     0.0000000000000000     
  -9.5999999999999992E-003     0.0000000000000000     
  -9.2999999999999992E-003     0.0000000000000000     
  -8.9999999999999993E-003     0.0000000000000000     
  -8.6999999999999994E-003     0.0000000000000000     
  -8.3999999999999995E-003     0.0000000000000000     
  -8.0999999999999996E-003     0.0000000000000000     
  -7.7999999999999988E-003     0.0000000000000000     
  -7.4999999999999997E-003     0.0000000000000000     
  -7.1999999999999998E-003     0.0000000000000000     
  -6.8999999999999981E-003     0.0000000000000000     
  -6.5999999999999982E-003     0.0000000000000000     
  -6.3000000000000000E-003     0.0000000000000000     
  -6.0000000000000001E-003     0.0000000000000000     
  -5.6999999999999985E-003     0.0000000000000000     
  -5.3999999999999986E-003     0.0000000000000000     
  -5.1000000000000004E-003     0.0000000000000000     
  -4.7999999999999987E-003     0.0000000000000000     
  -4.5000000000000005E-003     0.0000000000000000     
  -4.1999999999999989E-003     0.0000000000000000     
  -3.8999999999999990E-003     0.0000000000000000     
  -3.5999999999999990E-003     0.0000000000000000     
  -3.2999999999999991E-003     0.0000000000000000     
  -2.9999999999999992E-003     0.0000000000000000     
  -2.6999999999999993E-003     0.0000000000000000     
  -2.3999999999999994E-003     0.0000000000000000     
  -2.0999999999999977E-003     0.0000000000000000     
  -1.7999999999999995E-003     0.0000000000000000     
  -1.4999999999999979E-003     0.0000000000000000     
  -1.1999999999999997E-003     0.0000000000000000     
  -8.9999999999999976E-004     0.0000000000000000     
  -5.9999999999999810E-004     0.0000000000000000     
  -2.9999999999999992E-004     0.0000000000000000     
   0.0000000000000000          0.0000000000000000     
   3.0000000000000165E-004     0.0000000000000000     
   5.9999999999999984E-004     0.0000000000000000     
   9.0000000000000149E-004     0.0000000000000000     
   1.2000000000000031E-003     0.0000000000000000     
   1.5000000000000013E-003     0.0000000000000000     
   1.8000000000000030E-003     0.0000000000000000     
   2.1000000000000012E-003     1.8489351429031384E-050
   2.3999999999999994E-003     8.5578723468256246E-049
   2.7000000000000010E-003    -2.1523949468214267E-048
   2.9999999999999992E-003    -7.8051850467676253E-036
   3.3000000000000008E-003     2.7317827958694431E-035
   3.6000000000000025E-003     6.9804850462556294E-035
   3.9000000000000007E-003    -2.2183614742131099E-034
   4.2000000000000023E-003     7.5424385880492620E-034
   4.5000000000000005E-003    -3.4644737194257700E-033
   4.7999999999999987E-003     1.2111669757327828E-032
   5.1000000000000004E-003    -2.6843222903332405E-032
   5.4000000000000020E-003     2.6999977130832428E-032
   5.7000000000000037E-003     3.7369909602889847E-032
   5.9999999999999984E-003    -2.0079436344239652E-031
   6.3000000000000000E-003     3.4310139518856781E-031
   6.6000000000000017E-003    -5.3391733269725376E-032
   6.9000000000000034E-003    -1.1325472370280702E-030
   7.2000000000000015E-003     2.7170752340380126E-030
   7.5000000000000032E-003    -2.0192493350327390E-030
   7.8000000000000014E-003    -4.7622853771968304E-030
   8.0999999999999996E-003     1.6503193895465822E-029
   8.4000000000000012E-003    -1.9225189780252746E-029
   8.7000000000000029E-003    -1.0135357244593199E-029
   9.0000000000000011E-003     7.4940547334368928E-029
   9.2999999999999992E-003    -1.2173669200784430E-028
   9.6000000000000009E-003     5.3756693066510994E-029
   9.8999999999999991E-003     1.6770505913923138E-028
   1.0200000000000001E-002    -4.3012264595556772E-028
   1.0500000000000002E-002     5.7471052857434963E-028
   1.0800000000000004E-002    -6.3796985644722124E-028
   1.1099999999999999E-002     6.4073953731386411E-028
   1.1400000000000000E-002     5.1944331066312466E-028
   1.1700000000000002E-002    -5.7309216816899778E-027
   1.2000000000000004E-002     1.6509770776733926E-026
   1.2300000000000002E-002    -2.4736247842521280E-026
   1.2600000000000000E-002     6.4370288346996098E-027
   1.2900000000000002E-002     6.7552671117001781E-026
   1.3200000000000000E-002    -1.9519706722005630E-025
   1.3500000000000002E-002     2.9348823717604588E-025
   1.3800000000000003E-002    -1.6831756648589446E-025
   1.4100000000000001E-002    -4.4696880751460965E-025
   1.4400000000000000E-002     1.6970619723246491E-024
   1.4700000000000001E-002    -3.1316190560948754E-024
   1.4999999999999999E-002     3.0121436253937515E-024
   1.5300000000000001E-002     1.8686937157747544E-024
   1.5600000000000003E-002    -1.4221402634027002E-023
   1.5899999999999997E-002     3.0733191955639627E-023
   1.6199999999999999E-002    -3.4700497315013606E-023
   1.6500000000000001E-002    -5.1937060616587228E-024
   1.6800000000000002E-002     1.1599084909695919E-022
   1.7100000000000004E-002    -2.7012299700334341E-022
   1.7400000000000006E-002     3.1754937152248326E-022
   1.7700000000000000E-002     2.5180450450421185E-023
   1.8000000000000002E-002    -9.8293097068730777E-022
   1.8300000000000004E-002     2.2218782628592708E-021
   1.8600000000000005E-002    -2.2933902102664698E-021
   1.8900000000000000E-002    -1.0588240687508791E-021
   1.9200000000000002E-002     8.5569852769127214E-021
   1.9500000000000003E-002    -1.5412154919358101E-020
   1.9799999999999998E-002     9.9107014237188535E-021
   2.0100000000000000E-002     1.8596708312318565E-020
   2.0400000000000001E-002    -6.1012196601776458E-020
   2.0700000000000003E-002     7.4342149654095580E-020
   2.0999999999999998E-002    -1.4466651385103808E-021
   2.1299999999999999E-002    -1.6207227592488145E-019
   2.1600000000000001E-002     2.9862274444947140E-019
   2.1900000000000003E-002    -1.9710332419704090E-019
   2.2200000000000004E-002    -2.5729593834945565E-019
   2.2500000000000006E-002     8.3255116710271627E-019
   2.2800000000000001E-002    -9.1302863827229215E-019
   2.3100000000000002E-002    -8.0253948257739229E-020
   2.3400000000000004E-002     1.8932173262444697E-018
   2.3699999999999999E-002    -2.8133706337037434E-018
   2.4000000000000000E-002     1.9372295123371185E-019
   2.4300000000000002E-002     6.6954954699513500E-018
   2.4599999999999997E-002    -1.1529661909056856E-017
   2.4900000000000005E-002    -1.3897134145276830E-018
   2.5200000000000000E-002     4.4350527039228206E-017
   2.5499999999999995E-002    -9.0458045578837870E-017
   2.5800000000000003E-002     3.7829715690383379E-017
   2.6099999999999998E-002     2.5749774479391926E-016
   2.6400000000000007E-002    -7.6585074754488419E-016
   2.6700000000000002E-002     7.6889735951400608E-016
   2.6999999999999996E-002     1.5106648000228374E-015
   2.7300000000000005E-002    -6.7829359380363750E-015
   2.7600000000000000E-002     7.9151944978086690E-015
   2.7900000000000008E-002     1.1332273037533581E-014
   2.8200000000000003E-002    -4.8889295682103129E-014
   2.8499999999999998E-002     5.3572996996638533E-014
   2.8800000000000006E-002     7.3668275011959978E-015
   2.9100000000000001E-002    -9.2779405082035119E-014
   2.9400000000000003E-002     4.5204741275255984E-013
   2.9700000000000004E-002    -1.4277884797009446E-012
   3.0000000000000006E-002     3.9236118725732687E-014
   3.0300000000000001E-002     1.0100048652104646E-011
   3.0600000000000002E-002    -1.4564631362663756E-011
   3.0900000000000004E-002    -4.3563340268151681E-011
   3.1199999999999999E-002     1.4450601547628378E-010
   3.1500000000000007E-002     3.6540212472262205E-011
   3.1800000000000002E-002    -7.7798903856787954E-010
   3.2099999999999997E-002     9.6373808534135311E-010
   3.2400000000000005E-002     1.7878113756289038E-009
   3.2700000000000000E-002    -5.9897038192769628E-009
   3.3000000000000002E-002     2.0186058378534849E-009
   3.3300000000000003E-002     1.5442669798995073E-008
   3.3599999999999998E-002    -2.4111315693281440E-008
   3.3900000000000000E-002    -1.1642240017687275E-008
   3.4200000000000001E-002     6.8917621554778903E-008
   3.4500000000000003E-002    -4.2214713616301949E-008
   3.4799999999999998E-002    -1.0307863792805960E-007
   3.5099999999999999E-002     1.4677349110074265E-007
   3.5400000000000001E-002     4.4070275216612849E-008
   3.5699999999999996E-002    -1.6030052996191876E-007
   3.6000000000000004E-002     9.5247387142073288E-007
   3.6299999999999999E-002     3.7738532842028271E-006
   3.6600000000000008E-002     9.5140697269508154E-006
   3.6900000000000002E-002     1.9479337642962428E-005
   3.7199999999999997E-002     2.9913031754792202E-005
   3.7500000000000006E-002     3.9515489296102384E-005
   3.7800000000000000E-002     5.5649729150667933E-005
   3.8100000000000009E-002     8.3864056319074914E-005
   3.8400000000000004E-002     1.2974094829789937E-004
   3.8699999999999998E-002     2.0094191255428946E-004
   3.9000000000000007E-002     3.0125153869051981E-004
   3.9300000000000002E-002     4.4525103484148660E-004
   3.9600000000000003E-002     6.5254839391537750E-004
   3.9900000000000005E-002     9.3585101687318917E-004
   4.0200000000000000E-002     1.3216066893236230E-003
   4.0500000000000001E-002     1.8431744550588625E-003
   4.0800000000000003E-002     2.5275445067657197E-003
   4.1100000000000005E-002     3.4040037953267542E-003
   4.1399999999999999E-002     4.5080538718725079E-003
   4.1700000000000008E-002     5.8914753378042761E-003
   4.2000000000000003E-002     7.5993383827176212E-003
   4.2299999999999997E-002     9.6384845026001465E-003
   4.2600000000000006E-002     1.2009286224579587E-002
   4.2900000000000001E-002     1.4713641114461995E-002
   4.3200000000000002E-002     1.7717454381424511E-002
   4.3500000000000004E-002     2.0954081512853460E-002
   4.3799999999999999E-002     2.4338082976501928E-002
   4.4100000000000000E-002     2.7750264382044164E-002
   4.4400000000000002E-002     3.1027908773188333E-002
   4.4700000000000004E-002     3.3973577632303728E-002
   4.4999999999999998E-002     3.6400145911855072E-002
   4.5300000000000000E-002     3.8145798181049614E-002
   4.5600000000000002E-002     3.9055011030304405E-002
   4.5899999999999996E-002     3.8959248619311500E-002
   4.6200000000000005E-002     3.7752850556101385E-002
   4.6500000000000000E-002     3.5398858249058023E-002
   4.6799999999999994E-002     3.1852344717792566E-002
   4.7100000000000003E-002     2.7051168413736702E-002
   4.7399999999999998E-002     2.0928192165948403E-002
   4.7700000000000006E-002     1.3312851707728938E-002
   4.8000000000000001E-002     3.8526631011742193E-003
   4.8300000000000010E-002    -7.9758931258535597E-003
   4.8600000000000004E-002    -2.2946041268086099E-002
   4.8899999999999999E-002    -4.2070378810726561E-002
   4.9200000000000008E-002    -6.6560764134661485E-002
   4.9500000000000002E-002    -9.7755561832214594E-002
   4.9800000000000011E-002   -0.13695133687825733     
   5.0100000000000006E-002   -0.18520794185047856     
   5.0400000000000000E-002   -0.24308990728268959     
   5.0700000000000009E-002   -0.31040247503964674     
   5.1000000000000004E-002   -0.38596116674238345     
   5.1299999999999998E-002   -0.46742343047729962     
   5.1600000000000007E-002   -0.55102705088402404     
   5.1900000000000002E-002   -0.63178907967760789     
   5.2200000000000010E-002   -0.70357071528885728     
   5.2500000000000005E-002   -0.75938915437673116     
   5.2800000000000000E-002   -0.79198288228850577     
   5.3099999999999994E-002   -0.79434996257590729     
   5.3400000000000003E-002   -0.76046180266376284     
   5.3699999999999998E-002   -0.68590950658321614     
   5.4000000000000006E-002   -0.56857710941178086     
   5.4300000000000001E-002   -0.40926098882327605     
   5.4599999999999996E-002   -0.21170670064886213     
   5.4900000000000004E-002     1.7139232402748786E-002
   5.5199999999999999E-002    0.26743974548215532     
   5.5499999999999994E-002    0.52709673865920148     
   5.5800000000000002E-002    0.78222529879177194     
   5.6099999999999997E-002     1.0185658790399095     
   5.6400000000000006E-002     1.2219658929971304     
   5.6700000000000000E-002     1.3801008288008314     
   5.6999999999999995E-002     1.4828891568974860     
   5.7300000000000004E-002     1.5237653065611965     
   5.7599999999999998E-002     1.4998110344087237     
   5.7900000000000007E-002     1.4125184831714597     
   5.8200000000000002E-002     1.2672490906228664     
   5.8499999999999996E-002     1.0730998368167950     
   5.8800000000000005E-002    0.84241931398050651     
   5.9100000000000000E-002    0.58949284799943991     
   5.9400000000000008E-002    0.32986771431843526     
   5.9700000000000003E-002     7.9090994613514043E-002
   6.0000000000000012E-002   -0.14829093177474090     
   6.0300000000000006E-002   -0.33969762555846600     
   6.0600000000000001E-002   -0.48525028754189314     
   6.0900000000000010E-002   -0.57854788561192527     
   6.1200000000000004E-002   -0.61683653630074042     
   6.1500000000000013E-002   -0.60097913610065890     
   6.1800000000000008E-002   -0.53537075276329182     
   6.2100000000000002E-002   -0.42765344687727136     
   6.2399999999999997E-002   -0.28769315801205120     
   6.2700000000000006E-002   -0.12740665776744375     
   6.3000000000000000E-002     4.0822473782122601E-002
   6.3300000000000009E-002    0.20388701130875769     
   6.3600000000000004E-002    0.35011998652075527     
   6.3899999999999998E-002    0.46873754832033721     
   6.4199999999999993E-002    0.55131650258018960     
   6.4500000000000002E-002    0.59193491936064557     
   6.4800000000000010E-002    0.58738827428307483     
   6.5100000000000005E-002    0.53756808705447223     
   6.5400000000000000E-002    0.44520487635533074     
   6.5700000000000008E-002    0.31570865789583719     
   6.5999999999999989E-002    0.15687369269726251     
   6.6299999999999998E-002    -2.1560372494375694E-002
   6.6600000000000006E-002   -0.20877725976307443     
   6.6900000000000001E-002   -0.39317471829434913     
   6.7199999999999996E-002   -0.56328303565588345     
   6.7500000000000004E-002   -0.70858330349125664     
   6.7800000000000013E-002   -0.81968576376370783     
   6.8099999999999994E-002   -0.88984185950654959     
   6.8400000000000002E-002   -0.91463995306053847     
   6.8700000000000011E-002   -0.89265930815585415     
   6.8999999999999992E-002   -0.82627141491892442     
   6.9300000000000000E-002   -0.72026377796407137     
   6.9600000000000009E-002   -0.58346724272926520     
   6.9900000000000004E-002   -0.42664068590820819     
   7.0199999999999999E-002   -0.26269939094473294     
   7.0500000000000007E-002   -0.10580816316423898     
   7.0800000000000016E-002     3.0405364094763437E-002
   7.1099999999999997E-002    0.13289534340232151     
   7.1400000000000005E-002    0.19113855995729673     
   7.1700000000000000E-002    0.19798172614791112     
   7.1999999999999995E-002    0.15021003572855979     
   7.2300000000000003E-002     4.9020461598105906E-002
   7.2600000000000012E-002    -9.9065473280151375E-002
   7.2900000000000006E-002   -0.28399397054151376     
   7.3200000000000001E-002   -0.49107025018307399     
   7.3499999999999996E-002   -0.70381460419425235     
   7.3800000000000004E-002   -0.90386883186379197     
   7.4099999999999999E-002    -1.0736572522405674     
   7.4400000000000008E-002    -1.1969991712846459     
   7.4700000000000003E-002    -1.2613291550988883     
   7.5000000000000011E-002    -1.2582967122193638     
   7.5299999999999992E-002    -1.1844280838034533     
   7.5600000000000001E-002    -1.0422786401449196     
   7.5900000000000009E-002   -0.83825814522106723     
   7.6200000000000004E-002   -0.58440655830589250     
   7.6499999999999999E-002   -0.29484052385307957     
   7.6800000000000007E-002     1.3906692545203596E-002
   7.7099999999999988E-002    0.32500628700904777     
   7.7399999999999997E-002    0.62278059807457364     
   7.7700000000000005E-002    0.89356199323763486     
   7.8000000000000014E-002     1.1265555349281120     
   7.8299999999999995E-002     1.3150849069619552     
   7.8600000000000003E-002     1.4548278784530813     
   7.8900000000000012E-002     1.5460518356860327     
   7.9199999999999993E-002     1.5908797766618490     
   7.9500000000000001E-002     1.5934191764320507     
   7.9800000000000010E-002     1.5595620729850490     
   8.0100000000000018E-002     1.4950518504108932     
   8.0399999999999999E-002     1.4064860274216069     
   8.0700000000000008E-002     1.2989516216831687     
   8.1000000000000003E-002     1.1781526785353262     
   8.1299999999999997E-002     1.0482801195019964     
   8.1600000000000006E-002    0.91374146979414961     
   8.1900000000000014E-002    0.77820789869492557     
   8.2199999999999995E-002    0.64514333027864790     
   8.2500000000000004E-002    0.51768678368471177     
   8.2799999999999999E-002    0.39851826275516700     
   8.3100000000000007E-002    0.28934699045287604     
   8.3400000000000002E-002    0.19102966445490266     
   8.3700000000000011E-002    0.10294994314262744     
   8.4000000000000005E-002     2.2141811847629693E-002
   8.4300000000000000E-002    -5.5011656466076718E-002
   8.4599999999999995E-002   -0.13453553961898027     
   8.4900000000000003E-002   -0.22323173517974096     
   8.5199999999999998E-002   -0.32841768940726024     
   8.5500000000000007E-002   -0.45651674155738486     
   8.5800000000000001E-002   -0.61280226361767698     
   8.6100000000000010E-002   -0.79974215621377209     
   8.6399999999999991E-002    -1.0161017091593358     
   8.6699999999999999E-002    -1.2572604301289294     
   8.7000000000000008E-002    -1.5140666816894530     
   8.7300000000000003E-002    -1.7734058923370284     
   8.7599999999999997E-002    -2.0196299356484757     
   8.7900000000000006E-002    -2.2348282119842438     
   8.8200000000000014E-002    -2.4000055556184985     
   8.8499999999999995E-002    -2.4986147636975886     
   8.8800000000000004E-002    -2.5150604000241295     
   8.9100000000000013E-002    -2.4393367524170477     
   8.9399999999999993E-002    -2.2654418713226616     
   8.9700000000000002E-002    -1.9946331766380936     
   9.0000000000000011E-002    -1.6327435786690825     
   9.0299999999999991E-002    -1.1934966893736341     
   9.0600000000000000E-002   -0.69454174195858398     
   9.0900000000000009E-002   -0.15866955569947014     
   9.1200000000000017E-002    0.38817250726890079     
   9.1499999999999998E-002    0.91935759209124668     
   9.1800000000000007E-002     1.4073780659635242     
   9.2100000000000001E-002     1.8270395822611205     
   9.2399999999999996E-002     2.1563548818930478     
   9.2700000000000005E-002     2.3780367108308442     
   9.3000000000000013E-002     2.4800557791489179     
   9.3300000000000008E-002     2.4578742664092923     
   9.3600000000000003E-002     2.3133566060111397     
   9.3899999999999997E-002     2.0562803441738056     
   9.4200000000000006E-002     1.7031641929517394     
   9.4500000000000001E-002     1.2770993492907383     
   9.4800000000000009E-002    0.80681221204625764     
   9.5100000000000004E-002    0.32406755627788586     
   9.5399999999999999E-002   -0.13656596583779843     
   9.5699999999999993E-002   -0.54164104459099527     
   9.6000000000000002E-002   -0.85994694517795200     
   9.6300000000000011E-002    -1.0653149791282985     
   9.6600000000000005E-002    -1.1393440608614100     
   9.6900000000000000E-002    -1.0714280211657647     
   9.7200000000000009E-002   -0.86236389403515490     
   9.7499999999999989E-002   -0.52223458009504420     
   9.7799999999999998E-002    -7.1909528472246173E-002
   9.8100000000000007E-002    0.45916962127377109     
   9.8400000000000015E-002     1.0345571176526656     
   9.8699999999999996E-002     1.6137527226907566     
   9.9000000000000005E-002     2.1545605507569423     
   9.9300000000000013E-002     2.6173858333563067     
   9.9599999999999994E-002     2.9665388597853548     
   9.9900000000000003E-002     3.1748370521362688     
  0.10020000000000001          3.2237581487827942     
  0.10049999999999999          3.1051625402110212     
  0.10080000000000000          2.8226553546049025     
  0.10110000000000001          2.3884340866542724     
  0.10140000000000000          1.8251920132394748     
  0.10170000000000000          1.1605705496682377     
  0.10200000000000001         0.42900294140983858     
  0.10230000000000002        -0.33533765137817667     
  0.10260000000000000         -1.0967840185704989     
  0.10290000000000001         -1.8218199031500497     
  0.10320000000000000         -2.4812903198482212     
  0.10350000000000001         -3.0491892863967167     
  0.10380000000000000         -3.5047737914093351     
  0.10410000000000001         -3.8323268062175573     
  0.10440000000000001         -4.0202025378616870     
  0.10470000000000000         -4.0611642679265296     
  0.10500000000000000         -3.9528211354638669     
  0.10530000000000000         -3.6959232058502001     
  0.10560000000000000         -3.2965263112340706     
  0.10590000000000001         -2.7648929409017025     
  0.10620000000000000         -2.1171533038649910     
  0.10650000000000001         -1.3749647471593043     
  0.10679999999999999        -0.56632595624881032     
  0.10710000000000000         0.27509043889008739     
  0.10740000000000001          1.1110831668880068     
  0.10770000000000000          1.8996149203991326     
  0.10800000000000000          2.5985252495041387     
  0.10830000000000001          3.1665059905902577     
  0.10859999999999999          3.5689794177460930     
  0.10890000000000000          3.7779117985690323     
  0.10920000000000001          3.7781277915558031     
  0.10950000000000001          3.5670505693244898     
  0.10979999999999999          3.1575580734431590     
  0.11009999999999999          2.5767279788648567     
  0.11040000000000001          1.8655016429889606     
  0.11070000000000001          1.0757570406469905     
  0.11100000000000000         0.26576081085782371     
  0.11130000000000000        -0.50369483987891994     
  0.11160000000000002         -1.1740318983258216     
  0.11190000000000001         -1.6960406518282984     
  0.11220000000000001         -2.0327692022158175     
  0.11250000000000000         -2.1624064229422557     
  0.11280000000000000         -2.0842139328520561     
  0.11309999999999999         -1.8139001791276590     
  0.11340000000000001         -1.3870779841174068     
  0.11369999999999998        -0.85318409594192068     
  0.11400000000000000        -0.27246081009114675     
  0.11430000000000000         0.28981095955991160     
  0.11460000000000002         0.76911884136861219     
  0.11489999999999999          1.1092889751955555     
  0.11520000000000001          1.2652221034856128     
  0.11550000000000001          1.2091344758655820     
  0.11580000000000000         0.93336820794587183     
  0.11609999999999999         0.44784389792537749     
  0.11640000000000002        -0.21626926184570111     
  0.11670000000000001         -1.0132633741840682     
  0.11700000000000001         -1.8863076294081895     
  0.11730000000000000         -2.7725553814417219     
  0.11760000000000000         -3.6075492131100511     
  0.11789999999999999         -4.3340582942867565     
  0.11820000000000001         -4.9018468770510939     
  0.11850000000000001         -5.2760553047493461     
  0.11880000000000000         -5.4363946343555867     
  0.11910000000000000         -5.3766144858978535     
  0.11940000000000002         -5.1069740124968694     
  0.11970000000000001         -4.6494558860025457     
  0.12000000000000001         -4.0354259799192302     
  0.12030000000000000         -3.3031321198160977     
  0.12060000000000000         -2.4938641138792299     
  0.12089999999999999         -1.6482240514382385     
  0.12119999999999999        -0.80581468968661607     
  0.12150000000000001         -7.6083933947846327E-004
  0.12180000000000001         0.73802978031777167     
  0.12210000000000000          1.3869502178977344     
  0.12239999999999999          1.9310208931627895     
  0.12270000000000002          2.3590838783411190     
  0.12300000000000001          2.6689171150456241     
  0.12330000000000001          2.8637489130106664     
  0.12360000000000000          2.9516623800561956     
  0.12390000000000000          2.9492977053959066     
  0.12419999999999999          2.8752019490815490     
  0.12450000000000001          2.7547335515585059     
  0.12480000000000001          2.6139778901681741     
  0.12509999999999999          2.4822397082086516     
  0.12540000000000001          2.3856554033291695     
  0.12570000000000003          2.3493531004515384     
  0.12600000000000000          2.3908985249870227     
  0.12630000000000002          2.5211959870670748     
  0.12659999999999999          2.7415985093022823     
  0.12690000000000001          3.0438866092258130     
  0.12719999999999998          3.4086234476485431     
  0.12750000000000000          3.8093660180240430     
  0.12780000000000002          4.2128720928558003     
  0.12809999999999999          4.5818601572565631     
  0.12840000000000001          4.8811451117534377     
  0.12869999999999998          5.0785084994330285     
  0.12900000000000000          5.1494518572628820     
  0.12930000000000003          5.0807768101878104     
  0.12959999999999999          4.8702455616500764     
  0.12990000000000002          4.5289536367733403     
  0.13019999999999998          4.0784211744992893     
  0.13050000000000000          3.5500195313165874     
  0.13080000000000003          2.9806878533544561     
  0.13109999999999999          2.4077744126034202     
  0.13140000000000002          1.8682336144020113     
  0.13169999999999998          1.3899414798216847     
  0.13200000000000001         0.99257338519829108     
  0.13229999999999997         0.68213414225132607     
  0.13260000000000000         0.45297245753686949     
  0.13290000000000002         0.28468232376717006     
  0.13319999999999999         0.14818384248213931     
  0.13350000000000001          3.6397456860610719E-003
  0.13380000000000003        -0.18904723006666174     
  0.13410000000000000        -0.47327517298866850     
  0.13440000000000002        -0.88407001336125013     
  0.13469999999999999         -1.4480319514307221     
  0.13500000000000001         -2.1777974432597715     
  0.13529999999999998         -3.0687371184201027     
  0.13560000000000000         -4.0978296399295724     
  0.13590000000000002         -5.2231419500604623     
  0.13619999999999999         -6.3857248186790132     
  0.13650000000000001         -7.5110147425368234     
  0.13680000000000003         -8.5175102374495761     
  0.13710000000000000         -9.3177212192071011     
  0.13740000000000002         -9.8318775972927543     
  0.13769999999999999         -9.9894789935689552     
  0.13800000000000001         -9.7430276549757764     
  0.13829999999999998         -9.0704450632737874     
  0.13860000000000000         -7.9825692463140774     
  0.13890000000000002         -6.5254779301853523     
  0.13919999999999999         -4.7786765564940010     
  0.13950000000000001         -2.8525817762712355     
  0.13979999999999998        -0.88127364339615322     
  0.14010000000000000         0.98916031225793066     
  0.14040000000000002          2.6098309022326327     
  0.14069999999999999          3.8467934915936062     
  0.14100000000000001          4.5894194700719950     
  0.14130000000000004          4.7659846568009190     
  0.14160000000000000          4.3522144602392903     
  0.14189999999999997          3.3744383952842001     
  0.14219999999999999          1.9120519934708329     
  0.14250000000000002          9.6229209537224969E-002
  0.14279999999999998         -1.9067294936165455     
  0.14310000000000000         -3.8969317536578716     
  0.14339999999999997         -5.6681234260646480     
  0.14369999999999999         -7.0180814411691159     
  0.14400000000000002         -7.7697957328678902     
  0.14429999999999998         -7.7907990253734241     
  0.14460000000000001         -6.9983891525445241     
  0.14490000000000003         -5.3832797082014112     
  0.14520000000000000         -2.9988712062026477     
  0.14550000000000002          2.9182086954065781E-002
  0.14579999999999999          3.5158107417385955     
  0.14610000000000001          7.2290619520642831     
  0.14640000000000003          10.905511836237393     
  0.14670000000000000          14.272176835466407     
  0.14699999999999996          17.069311344359473     
  0.14729999999999999          19.065008463262657     
  0.14760000000000001          20.083765408949194     
  0.14789999999999998          20.011185126367074     
  0.14820000000000000          18.806986315752876     