  -1.4999999999999999E-002     0.0000000000000000     
  -1.4700000000000000E-002     0.0000000000000000     
  -1.4400000000000000E-002     0.0000000000000000     
  -1.4100000000000000E-002     0.0000000000000000     
  -1.3800000000000000E-002     0.0000000000000000     
  -1.3500000000000000E-002     0.0000000000000000     
  -1.3200000000000000E-002     0.0000000000000000     
  -1.2899999999999998E-002     0.0000000000000000     
  -1.2600000000000000E-002     0.0000000000000000     
  -1.2299999999999998E-002     0.0000000000000000     
  -1.2000000000000000E-002     0.0000000000000000     
  -1.1699999999999999E-002     0.0000000000000000     
  -1.1399999999999999E-002     0.0000000000000000     
  -1.1099999999999999E-002     0.0000000000000000     
  -1.0799999999999999E-002     0.0000000000000000     
  -1.0499999999999999E-002     0.0000000000000000     
  -1.0199999999999999E-002     0.0000000000000000     
  -9.8999999999999991E-003     0.0000000000000000     
  -9.5999999999999992E-003     0.0000000000000000     
  -9.2999999999999992E-003     0.0000000000000000     
  -8.9999999999999993E-003     0.0000000000000000     
  -8.6999999999999994E-003     0.0000000000000000     
  -8.3999999999999995E-003     0.0000000000000000     
  -8.0999999999999996E-003     0.0000000000000000     
  -7.7999999999999988E-003     0.0000000000000000     
  -7.4999999999999997E-003     0.0000000000000000     
  -7.1999999999999998E-003     0.0000000000000000     
  -6.8999999999999981E-003     0.0000000000000000     
  -6.5999999999999982E-003     0.0000000000000000     
  -6.3000000000000000E-003     0.0000000000000000     
  -6.0000000000000001E-003     0.0000000000000000     
  -5.6999999999999985E-003     0.0000000000000000     
  -5.3999999999999986E-003     0.0000000000000000     
  -5.1000000000000004E-003     0.0000000000000000     
  -4.7999999999999987E-003     0.0000000000000000     
  -4.5000000000000005E-003     0.0000000000000000     
  -4.1999999999999989E-003     0.0000000000000000     
  -3.8999999999999990E-003     0.0000000000000000     
  -3.5999999999999990E-003     0.0000000000000000     
  -3.2999999999999991E-003     0.0000000000000000     
  -2.9999999999999992E-003     0.0000000000000000     
  -2.6999999999999993E-003     0.0000000000000000     
  -2.3999999999999994E-003     0.0000000000000000     
  -2.0999999999999977E-003     0.0000000000000000     
  -1.7999999999999995E-003     0.0000000000000000     
  -1.4999999999999979E-003     0.0000000000000000     
  -1.1999999999999997E-003     0.0000000000000000     
  -8.9999999999999976E-004     0.0000000000000000     
  -5.9999999999999810E-004     0.0000000000000000     
  -2.9999999999999992E-004     0.0000000000000000     
   0.0000000000000000          0.0000000000000000     
   3.0000000000000165E-004     0.0000000000000000     
   5.9999999999999984E-004     0.0000000000000000     
   9.0000000000000149E-004     0.0000000000000000     
   1.2000000000000031E-003     0.0000000000000000     
   1.5000000000000013E-003     0.0000000000000000     
   1.8000000000000030E-003     0.0000000000000000     
   2.1000000000000012E-003     0.0000000000000000     
   2.3999999999999994E-003     0.0000000000000000     
   2.7000000000000010E-003     0.0000000000000000     
   2.9999999999999992E-003     0.0000000000000000     
   3.3000000000000008E-003     0.0000000000000000     
   3.6000000000000025E-003     0.0000000000000000     
   3.9000000000000007E-003     0.0000000000000000     
   4.2000000000000023E-003     0.0000000000000000     
   4.5000000000000005E-003     0.0000000000000000     
   4.7999999999999987E-003     0.0000000000000000     
   5.1000000000000004E-003     0.0000000000000000     
   5.4000000000000020E-003     0.0000000000000000     
   5.7000000000000037E-003     0.0000000000000000     
   5.9999999999999984E-003     0.0000000000000000     
   6.3000000000000000E-003     0.0000000000000000     
   6.6000000000000017E-003     0.0000000000000000     
   6.9000000000000034E-003     0.0000000000000000     
   7.2000000000000015E-003     0.0000000000000000     
   7.5000000000000032E-003     0.0000000000000000     
   7.8000000000000014E-003     0.0000000000000000     
   8.0999999999999996E-003     0.0000000000000000     
   8.4000000000000012E-003     0.0000000000000000     
   8.7000000000000029E-003     0.0000000000000000     
   9.0000000000000011E-003     0.0000000000000000     
   9.2999999999999992E-003     0.0000000000000000     
   9.6000000000000009E-003     0.0000000000000000     
   9.8999999999999991E-003     0.0000000000000000     
   1.0200000000000001E-002     0.0000000000000000     
   1.0500000000000002E-002    -2.7661864706589729E-037
   1.0800000000000004E-002     2.9489633564874322E-037
   1.1099999999999999E-002     4.1497347633276178E-036
   1.1400000000000000E-002    -9.5029665677236421E-036
   1.1700000000000002E-002     1.2859422213986116E-035
   1.2000000000000004E-002    -4.5367152835717070E-035
   1.2300000000000002E-002     1.1211063738268176E-034
   1.2600000000000000E-002    -1.7033919467773782E-034
   1.2900000000000002E-002     1.9046669466759355E-034
   1.3200000000000000E-002     6.2258726134501350E-036
   1.3500000000000002E-002    -9.1386899079021462E-034
   1.3800000000000003E-002     1.4510861230037728E-033
   1.4100000000000001E-002    -1.6470737469560415E-033
   1.4400000000000000E-002    -3.1786040960502124E-034
   1.4700000000000001E-002     5.4060793038285380E-033
   1.4999999999999999E-002    -7.9781669600790363E-033
   1.5300000000000001E-002     4.3816665408416547E-033
   1.5600000000000003E-002     5.1179868065359541E-033
   1.5899999999999997E-002    -1.8249759870906231E-032
   1.6199999999999999E-002     3.5938122325981686E-032
   1.6500000000000001E-002    -6.7011370945474989E-032
   1.6800000000000002E-002     1.0516008831890531E-031
   1.7100000000000004E-002    -5.3759304143052847E-032
   1.7400000000000006E-002    -3.0743358624187276E-031
   1.7700000000000000E-002     1.1379650349376406E-030
   1.8000000000000002E-002    -2.0190712589113135E-030
   1.8300000000000004E-002     1.3340037523171016E-030
   1.8600000000000005E-002     3.6191960116846515E-030
   1.8900000000000000E-002    -1.4229872748315555E-029
   1.9200000000000002E-002     2.4384468264057919E-029
   1.9500000000000003E-002    -1.3196525969208236E-029
   1.9799999999999998E-002    -4.9677879322931483E-029
   2.0100000000000000E-002     1.6411379278402486E-028
   2.0400000000000001E-002    -2.2666927788010315E-028
   2.0700000000000003E-002     5.7264201401499475E-030
   2.0999999999999998E-002     6.7671250622607848E-028
   2.1299999999999999E-002    -1.4975677667192400E-027
   2.1600000000000001E-002     1.2756959141832006E-027
   2.1900000000000003E-002     1.4669397167257022E-027
   2.2200000000000004E-002    -6.4749216979415804E-027
   2.2500000000000006E-002     9.4015949887288749E-027
   2.2800000000000001E-002    -2.5043069116508007E-027
   2.3100000000000002E-002    -1.8385194374832508E-026
   2.3400000000000004E-002     4.2711639087419514E-026
   2.3699999999999999E-002    -4.0666232932279721E-026
   2.4000000000000000E-002    -2.0161208648060366E-026
   2.4300000000000002E-002     1.3376257188095345E-025
   2.4599999999999997E-002    -2.1583499272584993E-025
   2.4900000000000005E-002     1.2085795652207227E-025
   2.5200000000000000E-002     2.3591335380518166E-025
   2.5499999999999995E-002    -7.0191257859061163E-025
   2.5800000000000003E-002     8.8231862190170426E-025
   2.6099999999999998E-002    -5.3626289579423687E-025
   2.6400000000000007E-002    -6.2370803879832338E-026
   2.6700000000000002E-002     1.3967303007386856E-024
   2.6999999999999996E-002    -7.8780436581096758E-024
   2.7300000000000005E-002     2.4286123440580447E-023
   2.7600000000000000E-002    -2.7725256928596201E-023
   2.7900000000000008E-002    -6.6943797237079532E-023
   2.8200000000000003E-002     3.0646698663485864E-022
   2.8499999999999998E-002    -2.9558237242940155E-022
   2.8800000000000006E-002    -1.0248933209902600E-021
   2.9100000000000001E-002     3.6483511609951062E-021
   2.9400000000000003E-002    -2.2900353648033022E-021
   2.9700000000000004E-002    -1.2606557988033537E-020
   3.0000000000000006E-002     3.4521108053154317E-020
   3.0300000000000001E-002    -1.2432690969903161E-020
   3.0600000000000002E-002    -1.2162383927674315E-019
   3.0900000000000004E-002     3.2402153806519056E-019
   3.1199999999999999E-002    -2.2094273477592828E-019
   3.1500000000000007E-002    -1.4424194086661742E-018
   3.1800000000000002E-002     7.2115866346748551E-018
   3.2099999999999997E-002    -1.4008090393069224E-017
   3.2400000000000005E-002    -1.4328930751073468E-017
   3.2700000000000000E-002     1.5916112164698166E-016
   3.3000000000000002E-002    -3.6699633394245920E-016
   3.3300000000000003E-002    -2.3248007562697577E-017
   3.3599999999999998E-002     2.1717759396312177E-015
   3.3900000000000000E-002    -5.0585854555322248E-015
   3.4200000000000001E-002     1.4004175933269369E-015
   3.4500000000000003E-002     1.7542060105831788E-014
   3.4799999999999998E-002    -4.0003194218192261E-014
   3.5099999999999999E-002     2.2136417564525880E-014
   3.5400000000000001E-002     6.2647872093630969E-014
   3.5699999999999996E-002    -1.6357471419766964E-013
   3.6000000000000004E-002     2.4376083233722556E-013
   3.6299999999999999E-002    -3.5293141319262583E-013
   3.6600000000000008E-002    -1.0980341563682494E-014
   3.6900000000000002E-002     2.6430031033496761E-012
   3.7199999999999997E-002    -7.3780716926853837E-012
   3.7500000000000006E-002     3.3419774859447854E-012
   3.7800000000000000E-002     2.7526616859473581E-011
   3.8100000000000009E-002    -6.4242478012455348E-011
   3.8400000000000004E-002    -7.1830728229845167E-013
   3.8699999999999998E-002     2.2413791058828590E-010
   3.9000000000000007E-002    -2.8504470463121667E-010
   3.9300000000000002E-002    -2.3218893857261086E-010
   3.9600000000000003E-002     5.7621454006890247E-010
   3.9900000000000005E-002    -9.0666919261579164E-011
   4.0200000000000000E-002     3.0336030101172031E-009
   4.0500000000000001E-002    -8.2458710401668914E-009
   4.0800000000000003E-002    -2.4523801014143251E-008
   4.1100000000000005E-002     8.4205168019129821E-008
   4.1399999999999999E-002     9.2692736945430637E-008
   4.1700000000000008E-002    -4.3122995607446270E-007
   4.2000000000000003E-002     3.0175131377927763E-007
   4.2299999999999997E-002     6.3199087910916020E-006
   4.2600000000000006E-002     1.8101089627487251E-005
   4.2900000000000001E-002     3.0005204047297798E-005
   4.3200000000000002E-002     3.7405092768862076E-005
   4.3500000000000004E-002     4.5311965969606279E-005
   4.3799999999999999E-002     6.6392800006220528E-005
   4.4100000000000000E-002     1.0798785343902273E-004
   4.4400000000000002E-002     1.6861499008034877E-004
   4.4700000000000004E-002     2.5388502233261143E-004
   4.4999999999999998E-002     3.8288726231684868E-004
   4.5300000000000000E-002     5.6994665287265784E-004
   4.5600000000000002E-002     8.1919955243541301E-004
   4.5899999999999996E-002     1.1514855400153318E-003
   4.6200000000000005E-002     1.6107610839248606E-003
   4.6500000000000000E-002     2.2285401795805312E-003
   4.6799999999999994E-002     3.0168988238305217E-003
   4.7100000000000003E-002     4.0025734629088438E-003
   4.7399999999999998E-002     5.2321950711672937E-003
   4.7700000000000006E-002     6.7455037313516788E-003
   4.8000000000000001E-002     8.5586844579263639E-003
   4.8300000000000010E-002     1.0656819285185186E-002
   4.8600000000000004E-002     1.3002510716277109E-002
   4.8899999999999999E-002     1.5556534846684972E-002
   4.9200000000000008E-002     1.8260038961593561E-002
   4.9500000000000002E-002     2.0992534803761356E-002
   4.9800000000000011E-002     2.3575037986385300E-002
   5.0100000000000006E-002     2.5809466832135211E-002
   5.0400000000000000E-002     2.7485493365658344E-002
   5.0700000000000009E-002     2.8380565130771328E-002
   5.1000000000000004E-002     2.8273141346800916E-002
   5.1299999999999998E-002     2.6952993885220777E-002
   5.1600000000000007E-002     2.4244076773202311E-002
   5.1900000000000002E-002     2.0051573723404117E-002
   5.2200000000000010E-002     1.4356830914838421E-002
   5.2500000000000005E-002     7.1783290011602635E-003
   5.2800000000000000E-002    -1.4345786732797054E-003
   5.3099999999999994E-002    -1.1412709824348609E-002
   5.3400000000000003E-002    -2.2723109354514867E-002
   5.3699999999999998E-002    -3.5426358192501256E-002
   5.4000000000000006E-002    -4.9734398704583342E-002
   5.4300000000000001E-002    -6.6057133089076070E-002
   5.4599999999999996E-002    -8.5024422089509971E-002
   5.4900000000000004E-002   -0.10746254235938667     
   5.5199999999999999E-002   -0.13429779308059081     
   5.5499999999999994E-002   -0.16647328711719822     
   5.5800000000000002E-002   -0.20472318698876579     
   5.6099999999999997E-002   -0.24936037997434068     
   5.6400000000000006E-002   -0.30005741567977029     
   5.6700000000000000E-002   -0.35560044027498888     
   5.6999999999999995E-002   -0.41372361612421166     
   5.7300000000000004E-002   -0.47097287187779591     
   5.7599999999999998E-002   -0.52278381885997660     
   5.7900000000000007E-002   -0.56364852984656355     
   5.8200000000000002E-002   -0.58741114586363652     
   5.8499999999999996E-002   -0.58784792703038635     
   5.8800000000000005E-002   -0.55912698157555418     
   5.9100000000000000E-002   -0.49657586209224314     
   5.9400000000000008E-002   -0.39724906459236875     
   5.9700000000000003E-002   -0.26055486790091997     
   6.0000000000000012E-002    -8.8605570219631835E-002
   6.0300000000000006E-002    0.11355559473027352     
   6.0600000000000001E-002    0.33797980639164193     
   6.0900000000000010E-002    0.57424855907163330     
   6.1200000000000004E-002    0.81003803770960670     
   6.1500000000000013E-002     1.0319908837615626     
   6.1800000000000008E-002     1.2265489646696570     
   6.2100000000000002E-002     1.3811364808385067     
   6.2399999999999997E-002     1.4851043869977059     
   6.2700000000000006E-002     1.5306047755407763     
   6.3000000000000000E-002     1.5131966934096848     
   6.3300000000000009E-002     1.4322732442377650     
   6.3600000000000004E-002     1.2911258959325931     
   6.3899999999999998E-002     1.0967293100632940     
   6.4199999999999993E-002    0.85930797657221736     
   6.4500000000000002E-002    0.59138331124324506     
   6.4800000000000010E-002    0.30725013864487194     
   6.5100000000000005E-002     2.1531343677531928E-002
   6.5400000000000000E-002   -0.25133629963530213     
   6.5700000000000008E-002   -0.49849251209357659     
   6.5999999999999989E-002   -0.70895776259732446     
   6.6299999999999998E-002   -0.87467886880709589     
   6.6600000000000006E-002   -0.99064092088761946     
   6.6900000000000001E-002    -1.0552428788790194     
   6.7199999999999996E-002    -1.0699918721413801     
   6.7500000000000004E-002    -1.0393289415684177     
   6.7800000000000013E-002   -0.97016802955550818     
   6.8099999999999994E-002   -0.87112985088449957     
   6.8400000000000002E-002   -0.75193574385162187     
   6.8700000000000011E-002   -0.62263930957312863     
   6.8999999999999992E-002   -0.49285366947757381     
   6.9300000000000000E-002   -0.37114760699125537     
   6.9600000000000009E-002   -0.26457160128893020     
   6.9900000000000004E-002   -0.17829489563408024     
   7.0199999999999999E-002   -0.11553631862427677     
   7.0500000000000007E-002    -7.7439435464413162E-002
   7.0800000000000016E-002    -6.3503979793686549E-002
   7.1099999999999997E-002    -7.1603305294036232E-002
   7.1400000000000005E-002    -9.8600562986636081E-002
   7.1700000000000000E-002   -0.14022760171514137     
   7.1999999999999995E-002   -0.19207914613103855     
   7.2300000000000003E-002   -0.24904602252518482     
   7.2600000000000012E-002   -0.30619505411162745     
   7.2900000000000006E-002   -0.35827918742737319     
   7.3200000000000001E-002   -0.39995780270858272     
   7.3499999999999996E-002   -0.42587861522525883     
   7.3800000000000004E-002   -0.43082860265404238     
   7.4099999999999999E-002   -0.40980912689222476     
   7.4400000000000008E-002   -0.35836553700555884     
   7.4700000000000003E-002   -0.27303633352092388     
   7.5000000000000011E-002   -0.15208139421392050     
   7.5299999999999992E-002     4.1446042416440933E-003
   7.5600000000000001E-002    0.19283632455185723     
   7.5900000000000009E-002    0.40799851942481574     
   7.6200000000000004E-002    0.64068528265681235     
   7.6499999999999999E-002    0.87919191594523949     
   7.6800000000000007E-002     1.1094534169717143     
   7.7099999999999988E-002     1.3162744837920783     
   7.7399999999999997E-002     1.4841852215863902     
   7.7700000000000005E-002     1.5989452452193578     
   7.8000000000000014E-002     1.6490021307318972     
   7.8299999999999995E-002     1.6262174819932398     
   7.8600000000000003E-002     1.5278339508372691     
   7.8900000000000012E-002     1.3557586649762019     
   7.9199999999999993E-002     1.1176913840907101     
   7.9500000000000001E-002    0.82575892006822893     
   7.9800000000000010E-002    0.49650281526505702     
   8.0100000000000018E-002    0.14888861879839949     
   8.0399999999999999E-002   -0.19691892697769964     
   8.0700000000000008E-002   -0.52135206766873177     
   8.1000000000000003E-002   -0.80661850900184573     
   8.1299999999999997E-002    -1.0384844546733154     
   8.1600000000000006E-002    -1.2066312058267337     
   8.1900000000000014E-002    -1.3058030541107057     
   8.2199999999999995E-002    -1.3352838190327123     
   8.2500000000000004E-002    -1.2989453714321515     
   8.2799999999999999E-002    -1.2044535489946202     
   8.3100000000000007E-002    -1.0622099556138946     
   8.3400000000000002E-002   -0.88478099183723935     
   8.3700000000000011E-002   -0.68557837122799359     
   8.4000000000000005E-002   -0.47785755310591738     
   8.4300000000000000E-002   -0.27462916611237348     
   8.4599999999999995E-002    -8.7041518843583049E-002
   8.4900000000000003E-002     7.5165484023478418E-002
   8.5199999999999998E-002    0.20438308125188759     
   8.5500000000000007E-002    0.29526372204020451     
   8.5800000000000001E-002    0.34478955326343419     
   8.6100000000000010E-002    0.35278749718196500     
   8.6399999999999991E-002    0.32137848252021589     
   8.6699999999999999E-002    0.25577103914226651     
   8.7000000000000008E-002    0.16345030897218005     
   8.7300000000000003E-002     5.4839993591155434E-002
   8.7599999999999997E-002    -5.8160793085758909E-002
   8.7900000000000006E-002   -0.16176727529158008     
   8.8200000000000014E-002   -0.24244640733923628     
   8.8499999999999995E-002   -0.28671164511655534     
   8.8800000000000004E-002   -0.28371442121471280     
   8.9100000000000013E-002   -0.22555021760689403     
   8.9399999999999993E-002   -0.10912619499072823     
   8.9700000000000002E-002     6.3577602364051314E-002
   9.0000000000000011E-002    0.28482037109201774     
   9.0299999999999991E-002    0.54110433586098072     
   9.0600000000000000E-002    0.81420164359419767     
   9.0900000000000009E-002     1.0822356372925381     
   9.1200000000000017E-002     1.3213567002129571     
   9.1499999999999998E-002     1.5076462811798037     
   9.1800000000000007E-002     1.6193340015870978     
   9.2100000000000001E-002     1.6386265553007364     
   9.2399999999999996E-002     1.5534218347327637     
   9.2700000000000005E-002     1.3582885333356411     
   9.3000000000000013E-002     1.0554801233056645     
   9.3300000000000008E-002    0.65452217156686332     
   9.3600000000000003E-002    0.17141878618365922     
   9.3899999999999997E-002   -0.37159540136449942     
   9.4200000000000006E-002   -0.94866105407327272     
   9.4500000000000001E-002    -1.5308279351397778     
   9.4800000000000009E-002    -2.0887747714481999     
   9.5100000000000004E-002    -2.5939504230374797     
   9.5399999999999999E-002    -3.0198566266397613     
   9.5699999999999993E-002    -3.3441758199447316     
   9.6000000000000002E-002    -3.5486296765359362     
   9.6300000000000011E-002    -3.6205488495182960     
   9.6600000000000005E-002    -3.5530594199932586     
   9.6900000000000000E-002    -3.3455578718880585     
   9.7200000000000009E-002    -3.0033911183954940     
   9.7499999999999989E-002    -2.5385451058966728     
   9.7799999999999998E-002    -1.9689865597252463     
   9.8100000000000007E-002    -1.3182943559650038     
   9.8400000000000015E-002   -0.61493325139592425     
   9.8699999999999996E-002    0.10864119108810402     
   9.9000000000000005E-002    0.81772023349847456     
   9.9300000000000013E-002     1.4764399215582364     
   9.9599999999999994E-002     2.0506659625692460     
   9.9900000000000003E-002     2.5095679731391582     
  0.10020000000000001          2.8281780415920097     
  0.10049999999999999          2.9895964990493047     
  0.10080000000000000          2.9861330680777356     
  0.10110000000000001          2.8213704483040782     
  0.10140000000000000          2.5096551082266130     
  0.10170000000000000          2.0757831794205579     
  0.10200000000000001          1.5539436673758598     
  0.10230000000000002         0.98505000298275625     
  0.10260000000000000         0.41409500791855869     
  0.10290000000000001        -0.11359776781172704     
  0.10320000000000000        -0.55561535514142801     
  0.10350000000000001        -0.87579337180735539     
  0.10380000000000000         -1.0476816708286218     
  0.10410000000000001         -1.0562863559059712     
  0.10440000000000001        -0.89982639286196342     
  0.10470000000000000        -0.58969429934075901     
  0.10500000000000000        -0.14969210975405617     
  0.10530000000000000         0.38509271643783688     
  0.10560000000000000         0.97151920975512729     
  0.10590000000000001          1.5616409938898830     
  0.10620000000000000          2.1057445374873520     
  0.10650000000000001          2.5566867385245899     
  0.10679999999999999          2.8728760756580303     
  0.10710000000000000          3.0217113691294450     
  0.10740000000000001          2.9820695143566494     
  0.10770000000000000          2.7455835098459658     
  0.10800000000000000          2.3180838964757484     
  0.10830000000000001          1.7180951412605570     
  0.10859999999999999         0.97730660818604109     
  0.10890000000000000         0.13690979224741812     
  0.10920000000000001        -0.75413091745952943     
  0.10950000000000001         -1.6425614523382213     
  0.10979999999999999         -2.4751548885738082     
  0.11009999999999999         -3.2012740974771483     
  0.11040000000000001         -3.7771959124362748     
  0.11070000000000001         -4.1686800777385589     
  0.11100000000000000         -4.3529299890726811     
  0.11130000000000000         -4.3207718854730457     
  0.11160000000000002         -4.0757469872068715     
  0.11190000000000001         -3.6346036035698432     
  0.11220000000000001         -3.0249234701696199     
  0.11250000000000000         -2.2834856780888595     
  0.11280000000000000         -1.4525443459851006     
  0.11309999999999999        -0.57777899378928299     
  0.11340000000000001         0.29615577092985734     
  0.11369999999999998          1.1269627092571821     
  0.11400000000000000          1.8784995062766372     
  0.11430000000000000          2.5212006801766291     
  0.11460000000000002          3.0341757262101079     
  0.11489999999999999          3.4044469049856581     
  0.11520000000000001          3.6275114341428889     
  0.11550000000000001          3.7053534161335540     
  0.11580000000000000          3.6463036944215022     
  0.11609999999999999          3.4626928442385299     
  0.11640000000000002          3.1700574269773454     
  0.11670000000000001          2.7862682634154812     
  0.11700000000000001          2.3293458062158101     
  0.11730000000000000          1.8186851943672599     
  0.11760000000000000          1.2731011395452123     
  0.11789999999999999         0.71196187750410744     
  0.11820000000000001         0.15451424602010078     
  0.11850000000000001        -0.37927829994371248     
  0.11880000000000000        -0.86973760132724642     
  0.11910000000000000         -1.2969434345932283     
  0.11940000000000002         -1.6419864113904994     
  0.11970000000000001         -1.8875987009945638     
  0.12000000000000001         -2.0197630300512364     
  0.12030000000000000         -2.0282724209523568     
  0.12060000000000000         -1.9094323289845594     
  0.12089999999999999         -1.6659746010339784     
  0.12119999999999999         -1.3086796570884931     
  0.12150000000000001        -0.85628192529367730     
  0.12180000000000001        -0.33515318737380512     
  0.12210000000000000         0.22167186247560480     
  0.12239999999999999         0.77707224569887534     
  0.12270000000000002          1.2912658396400194     
  0.12300000000000001          1.7253804110980551     
  0.12330000000000001          2.0447206349005427     
  0.12360000000000000          2.2206589720726533     
  0.12390000000000000          2.2341256642803633     
  0.12419999999999999          2.0773959172954535     
  0.12450000000000001          1.7546308159200432     
  0.12480000000000001          1.2825760053741475     
  0.12509999999999999         0.68909830883781664     
  0.12540000000000001          1.1660705425935669E-002
  0.12570000000000003        -0.70487507666710925     
  0.12600000000000000         -1.4130207167545199     
  0.12630000000000002         -2.0644916875302721     
  0.12659999999999999         -2.6155120798141196     
  0.12690000000000001         -3.0287414778213417     
  0.12719999999999998         -3.2782322455148818     
  0.12750000000000000         -3.3488913277245334     
  0.12780000000000002         -3.2405056756238633     
  0.12809999999999999         -2.9657783322351547     
  0.12840000000000001         -2.5506254162101079     
  0.12869999999999998         -2.0314708990873944     
  0.12900000000000000         -1.4529276725531455     
  0.12930000000000003        -0.86420513441865365     
  0.12959999999999999        -0.31520575419762453     
  0.12990000000000002         0.14753850884206077     
  0.13019999999999998         0.48368462335866702     
  0.13050000000000000         0.66270941695320196     
  0.13080000000000003         0.66662276467214943     
  0.13109999999999999         0.49027698159207089     
  0.13140000000000002         0.14268309082513411     
  0.13169999999999998        -0.35461311646355237     
  0.13200000000000001        -0.96780242265058591     
  0.13229999999999997         -1.6547774021888160     
  0.13260000000000000         -2.3662486057845085     
  0.13290000000000002         -3.0507355710109665     
  0.13319999999999999         -3.6561137526656093     
  0.13350000000000001         -4.1346635267208622     
  0.13380000000000003         -4.4442577634606053     
  0.13410000000000000         -4.5530283908987110     
  0.13440000000000002         -4.4385039280851117     
  0.13469999999999999         -4.0921487115881847     
  0.13500000000000001         -3.5169531624418857     
  0.13529999999999998         -2.7304796740299651     
  0.13560000000000000         -1.7610117631066755     
  0.13590000000000002        -0.64939479654153853     
  0.13619999999999999         0.55595541596929721     
  0.13650000000000001          1.7988336216389242     
  0.13680000000000003          3.0200721003566176     
  0.13710000000000000          4.1602417206713227     
  0.13740000000000002          5.1627924411376753     
  0.13769999999999999          5.9782862913856611     
  0.13800000000000001          6.5662571054532961     
  0.13829999999999998          6.8999618400333205     
  0.13860000000000000          6.9655429973378800     
  0.13890000000000002          6.7664161411754673     
  0.13919999999999999          6.3196551901475368     
  0.13950000000000001          5.6581140553313478     
  0.13979999999999998          4.8255016657837473     
  0.14010000000000000          3.8751615319671888     
  0.14040000000000002          2.8649701544182102     
  0.14069999999999999          1.8540684477939617     
  0.14100000000000001         0.89788216331032555     
  0.14130000000000004          4.5568540379270023E-002
  0.14160000000000000        -0.66420975905178770     
  0.14189999999999997         -1.2040018416495175     
  0.14219999999999999         -1.5592428589291720     
  0.14250000000000002         -1.7273343005163206     
  0.14279999999999998         -1.7169078082062872     
  0.14310000000000000         -1.5454509843323696     
  0.14339999999999997         -1.2368770642752231     
  0.14369999999999999        -0.82017121594815778     
  0.14400000000000002        -0.32578675528881840     
  0.14429999999999998         0.21453508379412173     
  0.14460000000000001         0.77034072582301483     
  0.14490000000000003          1.3112591160070752     
  0.14520000000000000          1.8081750750485999     
  0.14550000000000002          2.2333514600557764     
  0.14579999999999999          2.5590734420583967     
  0.14610000000000001          2.7599270136942282     
  0.14640000000000003          2.8113167227837295     
  0.14670000000000000          2.6928007675192687     
  0.14699999999999996          2.3893895493344646     
  0.14729999999999999          1.8931382846371618     
  0.14760000000000001          1.2067618146661652     
  0.14789999999999998         0.34397470597817936     
  0.14820000000000000        -0.66800728564066625     