  -1.4999999999999999E-002     0.0000000000000000     
  -1.4700000000000000E-002     0.0000000000000000     
  -1.4400000000000000E-002     0.0000000000000000     
  -1.4100000000000000E-002     0.0000000000000000     
  -1.3800000000000000E-002     0.0000000000000000     
  -1.3500000000000000E-002     0.0000000000000000     
  -1.3200000000000000E-002    -3.2660229242387670E-064
  -1.2899999999999998E-002    -1.9032836669796195E-035
  -1.2600000000000000E-002     9.6245186981874066E-034
  -1.2299999999999998E-002    -1.2012574084899364E-032
  -1.2000000000000000E-002    -1.1462001241069451E-031
  -1.1699999999999999E-002     1.7609967250161747E-030
  -1.1399999999999999E-002    -9.0293003004465841E-031
  -1.1099999999999999E-002    -4.5710757976501995E-029
  -1.0799999999999999E-002     4.8704590919176011E-029
  -1.0499999999999999E-002     7.2690567841125176E-028
  -1.0199999999999999E-002    -7.2213657681180657E-028
  -9.8999999999999991E-003    -6.9829473060135740E-027
  -9.5999999999999992E-003    -7.0905450362182661E-028
  -9.2999999999999992E-003     5.7346877348250576E-026
  -8.9999999999999993E-003     9.0516532112937707E-026
  -8.6999999999999994E-003    -4.2044983223955272E-025
  -8.3999999999999995E-003    -9.4007173208085288E-025
  -8.0999999999999996E-003     2.0260017380848816E-024
  -7.7999999999999988E-003     5.4237470721481912E-024
  -7.4999999999999997E-003    -3.7994781284067463E-025
  -7.1999999999999998E-003    -2.9176159552080317E-023
  -6.8999999999999981E-003    -5.8872580379323001E-023
  -6.5999999999999982E-003     1.7788532115067035E-022
  -6.3000000000000000E-003     2.2928396500168158E-022
  -6.0000000000000001E-003    -3.3888480938487113E-022
  -5.6999999999999985E-003    -4.2393811247435320E-022
  -5.3999999999999986E-003    -2.8347625324458528E-021
  -5.1000000000000004E-003     5.2930572733700514E-021
  -4.7999999999999987E-003     1.2132600661440200E-020
  -4.5000000000000005E-003    -2.6667885918115130E-020
  -4.1999999999999989E-003     2.6276350098251880E-020
  -3.8999999999999990E-003    -9.4148784988347384E-020
  -3.5999999999999990E-003     3.5767781017151801E-020
  -3.2999999999999991E-003     4.9910313524682122E-019
  -2.9999999999999992E-003    -9.7183952830466466E-019
  -2.6999999999999993E-003     1.2931382063157166E-018
  -2.3999999999999994E-003    -2.2088650403796716E-018
  -2.0999999999999977E-003    -3.8641194855694530E-019
  -1.7999999999999995E-003     1.0165834127990045E-017
  -1.4999999999999979E-003    -2.2176112939836261E-017
  -1.1999999999999997E-003     4.5718933303297425E-017
  -8.9999999999999976E-004    -7.8683068457687486E-017
  -5.9999999999999810E-004     2.1296157508837341E-017
  -2.9999999999999992E-004     2.6298505527047399E-016
   0.0000000000000000         -8.5909824650748353E-016
   3.0000000000000165E-004     1.5953597829981830E-015
   5.9999999999999984E-004    -1.0150456610535464E-015
   9.0000000000000149E-004    -3.5946086913849271E-015
   1.2000000000000031E-003     1.2129925522514051E-014
   1.5000000000000013E-003    -1.6465562346500282E-014
   1.8000000000000030E-003    -1.8872512691366331E-016
   2.1000000000000012E-003     4.9487766833872391E-014
   2.3999999999999994E-003    -1.0032452994100177E-013
   2.7000000000000010E-003     6.3284414467564747E-014
   2.9999999999999992E-003     1.2471675318192225E-013
   3.3000000000000008E-003    -3.6300212602122892E-013
   3.6000000000000025E-003     3.6533339312187089E-013
   3.9000000000000007E-003     1.1423771132033623E-013
   4.2000000000000023E-003    -8.7158409705903077E-013
   4.5000000000000005E-003     1.1827408090795950E-012
   4.7999999999999987E-003    -4.8961793659835113E-013
   5.1000000000000004E-003    -9.7335520287242452E-013
   5.4000000000000020E-003     2.4259172437013563E-012
   5.7000000000000037E-003    -2.9526648655501635E-012
   5.9999999999999984E-003     1.6463359223914459E-012
   6.3000000000000000E-003     2.1370563737581124E-012
   6.6000000000000017E-003    -7.8887900981461227E-012
   6.9000000000000034E-003     1.1577432187987077E-011
   7.2000000000000015E-003    -5.9539045145498425E-012
   7.5000000000000032E-003    -1.1199702643374288E-011
   7.8000000000000014E-003     3.0019191326575347E-011
   8.0999999999999996E-003    -3.2856115895349927E-011
   8.4000000000000012E-003     5.5119479307003251E-012
   8.7000000000000029E-003     4.5808728063331763E-011
   9.0000000000000011E-003    -8.4740823291196656E-011
   9.2999999999999992E-003     6.8049417074204738E-011
   9.6000000000000009E-003     1.7480843334766313E-011
   9.8999999999999991E-003    -1.3366745045843446E-010
   1.0200000000000001E-002     1.9125291071013538E-010
   1.0500000000000002E-002    -1.1149695766647623E-010
   1.0800000000000004E-002    -8.9805853205627757E-011
   1.1099999999999999E-002     3.0580765205815862E-010
   1.1400000000000000E-002    -3.8160476324519479E-010
   1.1700000000000002E-002     1.8050451440400616E-010
   1.2000000000000004E-002     2.5563565670669709E-010
   1.2300000000000002E-002    -6.5415788331960516E-010
   1.2600000000000000E-002     6.9936248478890491E-010
   1.2900000000000002E-002    -2.8798335587972579E-010
   1.3200000000000000E-002    -3.8344101018000885E-010
   1.3500000000000002E-002     1.2608241874547132E-009
   1.3800000000000003E-002    -2.2792120890533836E-009
   1.4100000000000001E-002     1.3802747424726929E-009
   1.4400000000000000E-002     3.3087528220024954E-009
   1.4700000000000001E-002    -6.1151936534234708E-009
   1.4999999999999999E-002     3.3861149917533289E-009
   1.5300000000000001E-002    -1.0286431672984343E-009
   1.5600000000000003E-002    -3.5711235715776987E-008
   1.5899999999999997E-002     7.0142387629604243E-008
   1.6199999999999999E-002     1.9118285215308195E-007
   1.6500000000000001E-002    -4.4615738819039572E-007
   1.6800000000000002E-002    -9.4436615996713859E-007
   1.7100000000000004E-002     3.1577879534041210E-006
   1.7400000000000006E-002     1.4447994728790302E-005
   1.7700000000000000E-002     2.9022183617160696E-005
   1.8000000000000002E-002     4.2691132427672244E-005
   1.8300000000000004E-002     5.4824654063561601E-005
   1.8600000000000005E-002     6.5785040298806008E-005
   1.8900000000000000E-002     8.1631064801015321E-005
   1.9200000000000002E-002     1.1618582483636499E-004
   1.9500000000000003E-002     1.7909673828125905E-004
   1.9799999999999998E-002     2.6717287555653925E-004
   2.0100000000000000E-002     3.6985020082452809E-004
   2.0400000000000001E-002     4.7816127102565131E-004
   2.0700000000000003E-002     5.9305248475510319E-004
   2.0999999999999998E-002     7.3462585779964309E-004
   2.1299999999999999E-002     9.1630477499585043E-004
   2.1600000000000001E-002     1.0848046623438009E-003
   2.1900000000000003E-002     1.1272018418499725E-003
   2.2200000000000004E-002     9.3794283130566502E-004
   2.2500000000000006E-002     4.0649832420490482E-004
   2.2800000000000001E-002    -6.6215476165772807E-004
   2.3100000000000002E-002    -2.5529959563528881E-003
   2.3400000000000004E-002    -5.6373398495054268E-003
   2.3699999999999999E-002    -1.0434074448674807E-002
   2.4000000000000000E-002    -1.7552718720191051E-002
   2.4300000000000002E-002    -2.7640929757047943E-002
   2.4599999999999997E-002    -4.1444220111608511E-002
   2.4900000000000005E-002    -5.9733480876828685E-002
   2.5200000000000000E-002    -8.3196201346704704E-002
   2.5499999999999995E-002   -0.11237865809590776     
   2.5800000000000003E-002   -0.14752186995789818     
   2.6099999999999998E-002   -0.18834980036946208     
   2.6400000000000007E-002   -0.23392957702455530     
   2.6700000000000002E-002   -0.28248203106014580     
   2.6999999999999996E-002   -0.33121496796204364     
   2.7300000000000005E-002   -0.37618977236627271     
   2.7600000000000000E-002   -0.41220459785743246     
   2.7900000000000008E-002   -0.43293941487280391     
   2.8200000000000003E-002   -0.43118864763298986     
   2.8499999999999998E-002   -0.39918265179934215     
   2.8800000000000006E-002   -0.32909348968896984     
   2.9100000000000001E-002   -0.21383263414723375     
   2.9400000000000003E-002    -4.7934462127744257E-002
   2.9700000000000004E-002    0.17163834126465247     
   3.0000000000000006E-002    0.44441381527238860     
   3.0300000000000001E-002    0.76558739707086776     
   3.0600000000000002E-002     1.1254044884153829     
   3.0900000000000004E-002     1.5089756402691057     
   3.1199999999999999E-002     1.8962499095312324     
   3.1500000000000007E-002     2.2626054516702570     
   3.1800000000000002E-002     2.5801458621401889     
   3.2099999999999997E-002     2.8193397809702221     
   3.2400000000000005E-002     2.9511006180444261     
   3.2700000000000000E-002     2.9492774312439503     
   3.3000000000000002E-002     2.7931998063897381     
   3.3300000000000003E-002     2.4700119751623610     
   3.3599999999999998E-002     1.9768719880568828     
   3.3900000000000000E-002     1.3223636292509380     
   3.4200000000000001E-002    0.52715200811818652     
   3.4500000000000003E-002   -0.37628948969100479     
   3.4799999999999998E-002    -1.3449459201513376     
   3.5099999999999999E-002    -2.3278658614844545     
   3.5400000000000001E-002    -3.2689073405905189     
   3.5699999999999996E-002    -4.1107020783690418     
   3.6000000000000004E-002    -4.7988381861344243     
   3.6299999999999999E-002    -5.2860804129441492     
   3.6600000000000008E-002    -5.5359745576882107     
   3.6900000000000002E-002    -5.5259252145537259     
   3.7199999999999997E-002    -5.2491560506117674     
   3.7500000000000006E-002    -4.7158127301748474     
   3.7800000000000000E-002    -3.9524200356962433     
   3.8100000000000009E-002    -3.0005243123538485     
   3.8400000000000004E-002    -1.9137491178187125     
   3.8699999999999998E-002   -0.75407315051539636     
   3.9000000000000007E-002    0.41215551303641573     
   3.9300000000000002E-002     1.5186013132674396     
   3.9600000000000003E-002     2.5035691506954398     
   3.9900000000000005E-002     3.3135078277065135     
   4.0200000000000000E-002     3.9066424749014548     
   4.0500000000000001E-002     4.2553663663521846     
   4.0800000000000003E-002     4.3475332674695411     
   4.1100000000000005E-002     4.1866999067283439     
   4.1399999999999999E-002     3.7913337106589964     
   4.1700000000000008E-002     3.1932647520089947     
   4.2000000000000003E-002     2.4351296641439371     
   4.2299999999999997E-002     1.5673388375010930     
   4.2600000000000006E-002    0.64442086666328269     
   4.2900000000000001E-002   -0.27879512717618615     
   4.3200000000000002E-002    -1.1505665898168103     
   4.3500000000000004E-002    -1.9258488603236703     
   4.3799999999999999E-002    -2.5689878704216178     
   4.4100000000000000E-002    -3.0555160324872941     
   4.4400000000000002E-002    -3.3733198945256122     
   4.4700000000000004E-002    -3.5228395773015611     
   4.4999999999999998E-002    -3.5158787080473566     
   4.5300000000000000E-002    -3.3738689715164245     
   4.5600000000000002E-002    -3.1249513897770780     
   4.5899999999999996E-002    -2.8008506545261871     
   4.6200000000000005E-002    -2.4335396511737568     
   4.6500000000000000E-002    -2.0516119201232197     
   4.6799999999999994E-002    -1.6781252799283801     
   4.7100000000000003E-002    -1.3280146280738676     
   4.7399999999999998E-002    -1.0074716949830087     
   4.7700000000000006E-002   -0.71413363318193124     
   4.8000000000000001E-002   -0.43783135361040831     
   4.8300000000000010E-002   -0.16346729748389233     
   4.8600000000000004E-002    0.12673596349766844     
   4.8899999999999999E-002    0.44974225415013797     
   4.9200000000000008E-002    0.81886315441672042     
   4.9500000000000002E-002     1.2415551010884591     
   4.9800000000000011E-002     1.7178515323154737     
   5.0100000000000006E-002     2.2393286427541317     
   5.0400000000000000E-002     2.7899852076263554     
   5.0700000000000009E-002     3.3474603056372825     
   5.1000000000000004E-002     3.8854001002680314     
   5.1299999999999998E-002     4.3764520195907872     
   5.1600000000000007E-002     4.7957692710360282     
   5.1900000000000002E-002     5.1229501381400935     
   5.2200000000000010E-002     5.3446088480079945     
   5.2500000000000005E-002     5.4544664088063985     
   5.2800000000000000E-002     5.4544835748694078     
   5.3099999999999994E-002     5.3539267227717113     
   5.3400000000000003E-002     5.1672440186414423     
   5.3699999999999998E-002     4.9123201940578065     
   5.4000000000000006E-002     4.6070881411658098     
   5.4300000000000001E-002     4.2670555582771721     
   5.4599999999999996E-002     3.9038246088428972     
   5.4900000000000004E-002     3.5234232299780062     
   5.5199999999999999E-002     3.1262018970910663     
   5.5499999999999994E-002     2.7076091995986244     
   5.5800000000000002E-002     2.2594349553014990     
   5.6099999999999997E-002     1.7712522852256025     
   5.6400000000000006E-002     1.2344616695480271     
   5.6700000000000000E-002    0.64325612572981106     
   5.6999999999999995E-002    -1.9362581910408031E-003
   5.7300000000000004E-002   -0.69401730657376393     
   5.7599999999999998E-002    -1.4182486755763599     
   5.7900000000000007E-002    -2.1528928565630729     
   5.8200000000000002E-002    -2.8707189906367021     
   5.8499999999999996E-002    -3.5403128070608654     
   5.8800000000000005E-002    -4.1300807444294794     
   5.9100000000000000E-002    -4.6109724523841633     
   5.9400000000000008E-002    -4.9593725704883376     
   5.9700000000000003E-002    -5.1597090276535704     
   6.0000000000000012E-002    -5.2072148828223437     
   6.0300000000000006E-002    -5.1083870424334732     
   6.0600000000000001E-002    -4.8818855752512533     
   6.0900000000000010E-002    -4.5575767002033176     
   6.1200000000000004E-002    -4.1752362660041848     
   6.1500000000000013E-002    -3.7818274879420173     
   6.1800000000000008E-002    -3.4281268480077349     
   6.2100000000000002E-002    -3.1652162424029755     
   6.2399999999999997E-002    -3.0401125305195826     
   6.2700000000000006E-002    -3.0904515157480108     
   6.3000000000000000E-002    -3.3397982520801350     
   6.3300000000000009E-002    -3.7936187236605794     
   6.3600000000000004E-002    -4.4341569449241636     
   6.3899999999999998E-002    -5.2193976012461869     
   6.4199999999999993E-002    -6.0808773664731577     
   6.4500000000000002E-002    -6.9259415347483193     
   6.4800000000000010E-002    -7.6409130803129175     
   6.5100000000000005E-002    -8.0995321983875677     
   6.5400000000000000E-002    -8.1712952336163482     
   6.5700000000000008E-002    -7.7356486916825116     
   6.5999999999999989E-002    -6.6942153443259507     
   6.6299999999999998E-002    -4.9860153481360774     
   6.6600000000000006E-002    -2.5993695308417273     
   6.6900000000000001E-002    0.41723617214813413     
   6.7199999999999996E-002     3.9511888565573043     
   6.7500000000000004E-002     7.8252306849019231     
   6.7800000000000013E-002     11.805559277042606     
   6.8099999999999994E-002     15.615313678409867     
   6.8400000000000002E-002     18.954309636768215     
   6.8700000000000011E-002     21.522836876085844     
   6.8999999999999992E-002     23.048427781188611     
   6.9300000000000000E-002     23.312374312209336     
   6.9600000000000009E-002     22.172018234650441     
   6.9900000000000004E-002     19.579263845330033     
   7.0199999999999999E-002     15.589463355914734     
   7.0500000000000007E-002     10.364111976631067     
   7.0800000000000016E-002     4.1621771092854027     
   7.1099999999999997E-002    -2.6765418392644196     
   7.1400000000000005E-002    -9.7543946238421242     
   7.1700000000000000E-002    -16.644762188165171     
   7.1999999999999995E-002    -22.923364839156296     
   7.2300000000000003E-002    -28.198303464806074     
   7.2600000000000012E-002    -32.136974607926625     
   7.2900000000000006E-002    -34.490276627758874     
   7.3200000000000001E-002    -35.104706105276094     
   7.3499999999999996E-002    -33.933132455366696     
   7.3800000000000004E-002    -31.031700392846815     
   7.4099999999999999E-002    -26.553762656348781     
   7.4400000000000008E-002    -20.736675433753007     
   7.4700000000000003E-002    -13.883245581654622     
   7.5000000000000011E-002    -6.3405995868230258     
   7.5299999999999992E-002     1.5201995535325972     
   7.5600000000000001E-002     9.3272467481029917     
   7.5900000000000009E-002     16.726961280683494     
   7.6200000000000004E-002     23.399397097879092     
   7.6499999999999999E-002     29.075229894765965     
   7.6800000000000007E-002     33.543812086610053     
   7.7099999999999988E-002     36.659817057574848     
   7.7399999999999997E-002     38.347545954412006     
   7.7700000000000005E-002     38.598884915903312     
   7.8000000000000014E-002     37.471493091666126     
   7.8299999999999995E-002     35.081394500147361     
   7.8600000000000003E-002     31.593323029358757     
   7.8900000000000012E-002     27.210726022842909     
   7.9199999999999993E-002     22.162014203231216     
   7.9500000000000001E-002     16.688463359831506     
   7.9800000000000010E-002     11.031864266272887     
   8.0100000000000018E-002     5.4191484966409025     
   8.0399999999999999E-002     5.4165845114233897E-002
   8.0700000000000008E-002    -4.8942671203393768     
   8.1000000000000003E-002    -9.2964354328965104     
   8.1299999999999997E-002    -13.065060725818052     
   8.1600000000000006E-002    -16.156187195858873     
   8.1900000000000014E-002    -18.564445656394469     
   8.2199999999999995E-002    -20.317428766430595     
   8.2500000000000004E-002    -21.470915029762661     
   8.2799999999999999E-002    -22.098434644148636     
   8.3100000000000007E-002    -22.283090790378235     
   8.3400000000000002E-002    -22.109091004021604     
   8.3700000000000011E-002    -21.653152662380862     
   8.4000000000000005E-002    -20.980035973914806     
   8.4300000000000000E-002    -20.138443178818783     
   8.4599999999999995E-002    -19.160247980324744     
   8.4900000000000003E-002    -18.060955215654502     
   8.5199999999999998E-002    -16.840898671068796     
   8.5500000000000007E-002    -15.489266540852519     
   8.5800000000000001E-002    -13.987723482364839     
   8.6100000000000010E-002    -12.315134164959883     
   8.6399999999999991E-002    -10.454885581791046     
   8.6699999999999999E-002    -8.3985825379201309     
   8.7000000000000008E-002    -6.1511273965269391     
   8.7300000000000003E-002    -3.7332730648725669     
   8.7599999999999997E-002    -1.1798795581887309     
   8.7900000000000006E-002     1.4563567759923515     
   8.8200000000000014E-002     4.1092954047910828     
   8.8499999999999995E-002     6.7005773197908560     
   8.8800000000000004E-002     9.1435261607319358     
   8.9100000000000013E-002     11.350712879903231     
   8.9399999999999993E-002     13.239764334226980     
   8.9700000000000002E-002     14.741038456439593     
   9.0000000000000011E-002     15.801441336136554     
   9.0299999999999991E-002     16.388485103927884     
   9.0600000000000000E-002     16.492571027562672     
   9.0900000000000009E-002     16.128757624360961     
   9.1200000000000017E-002     15.336819789165311     
   9.1499999999999998E-002     14.178936134557487     
   9.1800000000000007E-002     12.735382197090994     
   9.2100000000000001E-002     11.096263034553337     
   9.2399999999999996E-002     9.3565998954442975     
   9.2700000000000005E-002     7.6075716742954276     
   9.3000000000000013E-002     5.9337168314007842     
   9.3300000000000008E-002     4.4063053566613135     
   9.3600000000000003E-002     3.0782089548565112     
   9.3899999999999997E-002     1.9814685800873637     
   9.4200000000000006E-002     1.1241321705389804     
   9.4500000000000001E-002    0.49261311529122837     
   9.4800000000000009E-002     5.5545374907337942E-002
   9.5100000000000004E-002   -0.23252695734514561     
   9.5399999999999999E-002   -0.42788982560405159     
   9.5699999999999993E-002   -0.59062481287771285     
   9.6000000000000002E-002   -0.77997512203559738     
   9.6300000000000011E-002    -1.0478174774317086     
   9.6600000000000005E-002    -1.4326768050705270     
   9.6900000000000000E-002    -1.9569395963522609     
   9.7200000000000009E-002    -2.6240506419470009     
   9.7499999999999989E-002    -3.4195916974547789     
   9.7799999999999998E-002    -4.3118553566476985     
   9.8100000000000007E-002    -5.2536621586052732     
   9.8400000000000015E-002    -6.1868687254239187     
   9.8699999999999996E-002    -7.0475869835238392     
   9.9000000000000005E-002    -7.7730079418201647     
   9.9300000000000013E-002    -8.3061571890026169     
   9.9599999999999994E-002    -8.6016293368217820     
   9.9900000000000003E-002    -8.6279002035842591     
  0.10020000000000001         -8.3718653502042883     
  0.10049999999999999         -7.8384609949848807     
  0.10080000000000000         -7.0532465635791883     
  0.10110000000000001         -6.0575018493813699     
  0.10140000000000000         -4.9047956928937673     
  0.10170000000000000         -3.6573009842496838     
  0.10200000000000001         -2.3800094363183932     
  0.10230000000000002         -1.1366500974320806     
  0.10260000000000000          1.3184598337809234E-002
  0.10290000000000001          1.0206428846444529     
  0.10320000000000000          1.8503235732927872     
  0.10350000000000001          2.4819534035085176     
  0.10380000000000000          2.9104130517892748     
  0.10410000000000001          3.1441893852002112     
  0.10440000000000001          3.2035467908044946     
  0.10470000000000000          3.1180265227468822     
  0.10500000000000000          2.9258008262803465     
  0.10530000000000000          2.6680381533298423     
  0.10560000000000000          2.3874480934985893     
  0.10590000000000001          2.1231618117561268     
  0.10620000000000000          1.9078439649557000     
  0.10650000000000001          1.7673905062446791     
  0.10679999999999999          1.7181644604554434     
  0.10710000000000000          1.7675310544313547     
  0.10740000000000001          1.9119888730434618     
  0.10770000000000000          2.1383578987208325     
  0.10800000000000000          2.4234631300754761     
  0.10830000000000001          2.7373001845414828     
  0.10859999999999999          3.0443487465747157     
  0.10890000000000000          3.3071258388731293     
  0.10920000000000001          3.4885495043123385     
  0.10950000000000001          3.5560012200055464     
  0.10979999999999999          3.4823928205216532     
  0.11009999999999999          3.2511904541165784     
  0.11040000000000001          2.8568642402285778     
  0.11070000000000001          2.3058347911796102     
  0.11100000000000000          1.6181801701467797     
  0.11130000000000000         0.82494825809853956     
  0.11160000000000002         -3.2330357687193209E-002
  0.11190000000000001        -0.90586263847347359     
  0.11220000000000001         -1.7456979916175732     
  0.11250000000000000         -2.5039131871737257     
  0.11280000000000000         -3.1377511310059312     
  0.11309999999999999         -3.6144495338006113     
  0.11340000000000001         -3.9118128176817031     
  0.11369999999999998         -4.0219583873714537     
  0.11400000000000000         -3.9511852617853238     
  0.11430000000000000         -3.7189102503153806     
  0.11460000000000002         -3.3557124434419383     
  0.11489999999999999         -2.8992471951664736     
  0.11520000000000001         -2.3900838111069436     
  0.11550000000000001         -1.8684338498919462     
  0.11580000000000000         -1.3712760333846867     
  0.11609999999999999        -0.92797739156790515     
  0.11640000000000002        -0.55944562481355731     
  0.11670000000000001        -0.27554497406487399     
  0.11700000000000001         -7.5659477464473268E-002
  0.11730000000000000          4.9524187783578623E-002
  0.11760000000000000         0.11687542523275213     
  0.11789999999999999         0.14692789363604394     
  0.11820000000000001         0.16297429853236145     
  0.11850000000000001         0.18573944339900614     
  0.11880000000000000         0.23453012217608452     
  0.11910000000000000         0.32107863018805344     
  0.11940000000000002         0.45147604055553431     
  0.11970000000000001         0.62368655662218464     
  0.12000000000000001         0.82957530659394496     
  0.12030000000000000          1.0550381029548241     
  0.12060000000000000          1.2813356028868192     
  0.12089999999999999          1.4877195485269443     
  0.12119999999999999          1.6522412443889167     
  0.12150000000000001          1.7550830995203770     
  0.12180000000000001          1.7809264816963255     
  0.12210000000000000          1.7196139250047260     
  0.12239999999999999          1.5675678395002479     
  0.12270000000000002          1.3281356220181457     
  0.12300000000000001          1.0109486678088861     
  0.12330000000000001         0.63203478515214140     
  0.12360000000000000         0.21383856516000960     
  0.12390000000000000        -0.21788060776839857     
  0.12419999999999999        -0.63557792188296491     
  0.12450000000000001         -1.0124465307475492     
  0.12480000000000001         -1.3242701399513788     
  0.12509999999999999         -1.5516842732278973     
  0.12540000000000001         -1.6806990050771373     
  0.12570000000000003         -1.7038155941219506     
  0.12600000000000000         -1.6216296098983451     
  0.12630000000000002         -1.4423364526660609     
  0.12659999999999999         -1.1812421186312216     
  0.12690000000000001        -0.85951567445928712     
  0.12719999999999998        -0.50103676767529659     
  0.12750000000000000        -0.13164402676380615     
  0.12780000000000002         0.22413483443931176     
  0.12809999999999999         0.54335499287722266     
  0.12840000000000001         0.80829859507060664     
  0.12869999999999998          1.0052747817975300     
  0.12900000000000000          1.1295653684622089     
  0.12930000000000003          1.1808927167904892     
  0.12959999999999999          1.1664722074564553     
  0.12990000000000002          1.0973230705041326     
  0.13019999999999998         0.98790157802725143     
  0.13050000000000000         0.85473734984594607     
  0.13080000000000003         0.71414983988938763     
  0.13109999999999999         0.58217698929324324     
  0.13140000000000002         0.47113061449869625     
  0.13169999999999998         0.38973290153768703     
  0.13200000000000001         0.34201482307834730     
  0.13229999999999997         0.32793900702851447     
  0.13260000000000000         0.34432840661785152     
  0.13290000000000002         0.38359424804415287     
  0.13319999999999999         0.43624237552170697     
  0.13350000000000001         0.48932058039851706     
  0.13380000000000003         0.53066486562052295     
  0.13410000000000000         0.54773599337881607     
  0.13440000000000002         0.53141427423366461     
  0.13469999999999999         0.47557601652226866     
  0.13500000000000001         0.37694186215965336     
  0.13529999999999998         0.23595354099527432     
  0.13560000000000000          5.6645572096958197E-002
  0.13590000000000002        -0.15164025332130451     
  0.13619999999999999        -0.37695798701444927     
  0.13650000000000001        -0.60407061011913776     
  0.13680000000000003        -0.81664783561457710     
  0.13710000000000000         -1.0011023375539854     
  0.13740000000000002         -1.1440768344510410     
  0.13769999999999999         -1.2360452524217631     
  0.13800000000000001         -1.2705141421141786     
  0.13829999999999998         -1.2450350637486429     
  0.13860000000000000         -1.1614455091353100     
  0.13890000000000002         -1.0268870684626752     
  0.13919999999999999        -0.85215897116799411     
  0.13950000000000001        -0.65063465203206738     
  0.13979999999999998        -0.43657330063110084     
  0.14010000000000000        -0.22415216480970204     
  0.14040000000000002         -2.6685320338707779E-002
  0.14069999999999999         0.14412756373857519     
  0.14100000000000001         0.27928468833508469     
  0.14130000000000004         0.37204906696714585     
  0.14160000000000000         0.41981789872065434     
  0.14189999999999997         0.42306492130360357     
  0.14219999999999999         0.38547960273787718     
  0.14250000000000002         0.31463632265844155     
  0.14279999999999998         0.22018790447960793     
  0.14310000000000000         0.11196205150861729     
  0.14339999999999997          1.9124020629117282E-003
  0.14369999999999999         -9.9725574575939516E-002
  0.14400000000000002        -0.18255259220694103     
  0.14429999999999998        -0.23737436731607714     
  0.14460000000000001        -0.25795635807253864     
  0.14490000000000003        -0.24048654930263763     
  0.14520000000000000        -0.18588903665818005     
  0.14550000000000002         -9.9180437886797188E-002
  0.14579999999999999          1.2595201498281638E-002
  0.14610000000000001         0.14029061935923548     
  0.14640000000000003         0.27335831761577012     
  0.14670000000000000         0.40142080545223779     
  0.14699999999999996         0.51260924825701593     
  0.14729999999999999         0.59678662404487182     
  0.14760000000000001         0.64549953367036683     
  0.14789999999999998         0.65491200091767798     
  0.14820000000000000         0.62498516385695446     