  -1.4999999999999999E-002     0.0000000000000000     
  -1.4700000000000000E-002     0.0000000000000000     
  -1.4400000000000000E-002     0.0000000000000000     
  -1.4100000000000000E-002     0.0000000000000000     
  -1.3800000000000000E-002     0.0000000000000000     
  -1.3500000000000000E-002     0.0000000000000000     
  -1.3200000000000000E-002     0.0000000000000000     
  -1.2899999999999998E-002     0.0000000000000000     
  -1.2600000000000000E-002     0.0000000000000000     
  -1.2299999999999998E-002     0.0000000000000000     
  -1.2000000000000000E-002     0.0000000000000000     
  -1.1699999999999999E-002     0.0000000000000000     
  -1.1399999999999999E-002     0.0000000000000000     
  -1.1099999999999999E-002     0.0000000000000000     
  -1.0799999999999999E-002     0.0000000000000000     
  -1.0499999999999999E-002     0.0000000000000000     
  -1.0199999999999999E-002     0.0000000000000000     
  -9.8999999999999991E-003     0.0000000000000000     
  -9.5999999999999992E-003     0.0000000000000000     
  -9.2999999999999992E-003     0.0000000000000000     
  -8.9999999999999993E-003     0.0000000000000000     
  -8.6999999999999994E-003     0.0000000000000000     
  -8.3999999999999995E-003     0.0000000000000000     
  -8.0999999999999996E-003     0.0000000000000000     
  -7.7999999999999988E-003     0.0000000000000000     
  -7.4999999999999997E-003     0.0000000000000000     
  -7.1999999999999998E-003     0.0000000000000000     
  -6.8999999999999981E-003     0.0000000000000000     
  -6.5999999999999982E-003     0.0000000000000000     
  -6.3000000000000000E-003     0.0000000000000000     
  -6.0000000000000001E-003     0.0000000000000000     
  -5.6999999999999985E-003     0.0000000000000000     
  -5.3999999999999986E-003     0.0000000000000000     
  -5.1000000000000004E-003     0.0000000000000000     
  -4.7999999999999987E-003     0.0000000000000000     
  -4.5000000000000005E-003     0.0000000000000000     
  -4.1999999999999989E-003     0.0000000000000000     
  -3.8999999999999990E-003     0.0000000000000000     
  -3.5999999999999990E-003     0.0000000000000000     
  -3.2999999999999991E-003     0.0000000000000000     
  -2.9999999999999992E-003     0.0000000000000000     
  -2.6999999999999993E-003     0.0000000000000000     
  -2.3999999999999994E-003     0.0000000000000000     
  -2.0999999999999977E-003     0.0000000000000000     
  -1.7999999999999995E-003     0.0000000000000000     
  -1.4999999999999979E-003     0.0000000000000000     
  -1.1999999999999997E-003     0.0000000000000000     
  -8.9999999999999976E-004     0.0000000000000000     
  -5.9999999999999810E-004     0.0000000000000000     
  -2.9999999999999992E-004     0.0000000000000000     
   0.0000000000000000          0.0000000000000000     
   3.0000000000000165E-004     0.0000000000000000     
   5.9999999999999984E-004     0.0000000000000000     
   9.0000000000000149E-004     0.0000000000000000     
   1.2000000000000031E-003     0.0000000000000000     
   1.5000000000000013E-003     0.0000000000000000     
   1.8000000000000030E-003     0.0000000000000000     
   2.1000000000000012E-003     0.0000000000000000     
   2.3999999999999994E-003     0.0000000000000000     
   2.7000000000000010E-003     0.0000000000000000     
   2.9999999999999992E-003     0.0000000000000000     
   3.3000000000000008E-003     0.0000000000000000     
   3.6000000000000025E-003     0.0000000000000000     
   3.9000000000000007E-003     0.0000000000000000     
   4.2000000000000023E-003     0.0000000000000000     
   4.5000000000000005E-003     0.0000000000000000     
   4.7999999999999987E-003     0.0000000000000000     
   5.1000000000000004E-003     0.0000000000000000     
   5.4000000000000020E-003     0.0000000000000000     
   5.7000000000000037E-003     0.0000000000000000     
   5.9999999999999984E-003     0.0000000000000000     
   6.3000000000000000E-003     0.0000000000000000     
   6.6000000000000017E-003     0.0000000000000000     
   6.9000000000000034E-003     0.0000000000000000     
   7.2000000000000015E-003     0.0000000000000000     
   7.5000000000000032E-003     0.0000000000000000     
   7.8000000000000014E-003     0.0000000000000000     
   8.0999999999999996E-003     0.0000000000000000     
   8.4000000000000012E-003     0.0000000000000000     
   8.7000000000000029E-003     0.0000000000000000     
   9.0000000000000011E-003     0.0000000000000000     
   9.2999999999999992E-003     0.0000000000000000     
   9.6000000000000009E-003     0.0000000000000000     
   9.8999999999999991E-003     0.0000000000000000     
   1.0200000000000001E-002     0.0000000000000000     
   1.0500000000000002E-002     0.0000000000000000     
   1.0800000000000004E-002     0.0000000000000000     
   1.1099999999999999E-002     0.0000000000000000     
   1.1400000000000000E-002     0.0000000000000000     
   1.1700000000000002E-002     0.0000000000000000     
   1.2000000000000004E-002     0.0000000000000000     
   1.2300000000000002E-002     0.0000000000000000     
   1.2600000000000000E-002     0.0000000000000000     
   1.2900000000000002E-002     0.0000000000000000     
   1.3200000000000000E-002     0.0000000000000000     
   1.3500000000000002E-002     0.0000000000000000     
   1.3800000000000003E-002    -1.4962345975985003E-036
   1.4100000000000001E-002    -4.0210783078069854E-036
   1.4400000000000000E-002     2.2453313170896946E-035
   1.4700000000000001E-002    -5.8722225886736781E-035
   1.4999999999999999E-002     2.3112075842071159E-034
   1.5300000000000001E-002    -6.3802789480951276E-034
   1.5600000000000003E-002     5.3777957785681524E-034
   1.5899999999999997E-002     1.1068824645292242E-034
   1.6199999999999999E-002    -2.5388554044053581E-033
   1.6500000000000001E-002     6.5612821087558622E-033
   1.6800000000000002E-002    -1.0042927304996757E-032
   1.7100000000000004E-002     5.8705413468085686E-033
   1.7400000000000006E-002     4.9248047822582601E-033
   1.7700000000000000E-002    -1.3023035214883252E-032
   1.8000000000000002E-002     2.7556995833683942E-032
   1.8300000000000004E-002    -8.4028762926696899E-032
   1.8600000000000005E-002     1.8426356646940688E-031
   1.8900000000000000E-002    -1.6782682206686986E-031
   1.9200000000000002E-002    -3.2391039363921652E-031
   1.9500000000000003E-002     1.5133360570039666E-030
   1.9799999999999998E-002    -2.7345402603786808E-030
   2.0100000000000000E-002     1.7461797380243409E-030
   2.0400000000000001E-002     4.7467192253069957E-030
   2.0700000000000003E-002    -1.7770924485493536E-029
   2.0999999999999998E-002     2.9152112763931923E-029
   2.1299999999999999E-002    -1.4820098634190728E-029
   2.1600000000000001E-002    -5.7585927329676675E-029
   2.1900000000000003E-002     1.8673521775267527E-028
   2.2200000000000004E-002    -2.6575257408241643E-028
   2.2500000000000006E-002     5.6094398021055046E-029
   2.2800000000000001E-002     6.5275649501443007E-028
   2.3100000000000002E-002    -1.6375946589934250E-027
   2.3400000000000004E-002     1.8467361061587710E-027
   2.3699999999999999E-002     3.5104770381053891E-028
   2.4000000000000000E-002    -5.6948018320922493E-027
   2.4300000000000002E-002     1.1656246627685540E-026
   2.4599999999999997E-002    -1.1020127157925393E-026
   2.4900000000000005E-002    -5.5183777852428236E-027
   2.5200000000000000E-002     4.0363023708784313E-026
   2.5499999999999995E-002    -7.5831583209813752E-026
   2.5800000000000003E-002     6.8248041431917485E-026
   2.6099999999999998E-002     3.2040704937439127E-026
   2.6400000000000007E-002    -2.2983315388874136E-025
   2.6700000000000002E-002     4.3862970862516232E-025
   2.6999999999999996E-002    -4.7157599761492837E-025
   2.7300000000000005E-002    -3.1126665549308418E-026
   2.7600000000000000E-002     1.7708500502866422E-024
   2.7900000000000008E-002    -4.6830751639777565E-024
   2.8200000000000003E-002     1.8771234432468294E-024
   2.8499999999999998E-002     2.9039775964623807E-023
   2.8800000000000006E-002    -1.0379657747926644E-022
   2.9100000000000001E-002     1.1162765761053284E-022
   2.9400000000000003E-002     3.5930704904373841E-022
   2.9700000000000004E-002    -1.7879155900119183E-021
   3.0000000000000006E-002     3.2499190530565744E-021
   3.0300000000000001E-002     1.1793444065476904E-022
   3.0600000000000002E-002    -1.7290187544912264E-020
   3.0900000000000004E-002     5.1513552431143025E-020
   3.1199999999999999E-002    -6.8318830032841174E-020
   3.1500000000000007E-002    -7.0254699593900879E-020
   3.1800000000000002E-002     6.5710508287259961E-019
   3.2099999999999997E-002    -1.9211335167151794E-018
   3.2400000000000005E-002     3.1128556863481227E-018
   3.2700000000000000E-002    -6.4129733049550813E-019
   3.3000000000000002E-002    -1.6638924638488670E-017
   3.3300000000000003E-002     8.2116678282423416E-017
   3.3599999999999998E-002    -2.5547649783278393E-016
   3.3900000000000000E-002     4.2273200116674737E-016
   3.4200000000000001E-002     5.0983256211152414E-016
   3.4500000000000003E-002    -5.4130171820959382E-015
   3.4799999999999998E-002     1.4866211084512175E-014
   3.5099999999999999E-002    -1.0505412523846924E-014
   3.5400000000000001E-002    -6.0999227661774668E-014
   3.5699999999999996E-002     2.2859524342495289E-013
   3.6000000000000004E-002    -2.7681498683018990E-013
   3.6299999999999999E-002    -4.2850994049738374E-013
   3.6600000000000008E-002     2.2706831685068608E-012
   3.6900000000000002E-002    -3.3108415286466085E-012
   3.7199999999999997E-002    -1.8619908307011888E-012
   3.7500000000000006E-002     1.6216680991791422E-011
   3.7800000000000000E-002    -2.5814552065595310E-011
   3.8100000000000009E-002    -3.8959044961467699E-012
   3.8400000000000004E-002     8.6602838113247579E-011
   3.8699999999999998E-002    -1.4102792712813160E-010
   3.9000000000000007E-002     8.1686988544782454E-012
   3.9300000000000002E-002     3.2511404905297030E-010
   3.9600000000000003E-002    -5.2600046705014404E-010
   3.9900000000000005E-002     2.3349505094345594E-010
   4.0200000000000000E-002     4.5388197197672858E-010
   4.0500000000000001E-002    -1.6199451034237139E-009
   4.0800000000000003E-002     3.6315778173643798E-009
   4.1100000000000005E-002    -2.1632745609721314E-009
   4.1399999999999999E-002    -1.1761594659961411E-008
   4.1700000000000008E-002     2.5722029735111529E-008
   4.2000000000000003E-002     2.8447335186277660E-009
   4.2299999999999997E-002    -7.0647866494990201E-008
   4.2600000000000006E-002     8.3432211443049583E-008
   4.2900000000000001E-002     1.0774099004072670E-008
   4.3200000000000002E-002    -3.4011826422439042E-007
   4.3500000000000004E-002     2.2694910723795468E-006
   4.3799999999999999E-002     1.0935885846108443E-005
   4.4100000000000000E-002     2.2549175974695204E-005
   4.4400000000000002E-002     3.1288898125219448E-005
   4.4700000000000004E-002     3.6899414552926221E-005
   4.4999999999999998E-002     4.7390366849585362E-005
   4.5300000000000000E-002     7.3863119124866757E-005
   4.5600000000000002E-002     1.2006671262515788E-004
   4.5899999999999996E-002     1.8464752131018447E-004
   4.6200000000000005E-002     2.7733647347124809E-004
   4.6500000000000000E-002     4.1539758904688562E-004
   4.6799999999999994E-002     6.0645231437388581E-004
   4.7100000000000003E-002     8.5861762267699178E-004
   4.7399999999999998E-002     1.1994128675781245E-003
   4.7700000000000006E-002     1.6627069420803104E-003
   4.8000000000000001E-002     2.2678096749266631E-003
   4.8300000000000010E-002     3.0284658947055320E-003
   4.8600000000000004E-002     3.9710544424694239E-003
   4.8899999999999999E-002     5.1308176657535055E-003
   4.9200000000000008E-002     6.5312627651644018E-003
   4.9500000000000002E-002     8.1679773184760284E-003
   4.9800000000000011E-002     1.0011139547252738E-002
   5.0100000000000006E-002     1.2019883979356051E-002
   5.0400000000000000E-002     1.4144600595705593E-002
   5.0700000000000009E-002     1.6303878625604201E-002
   5.1000000000000004E-002     1.8370120864343704E-002
   5.1299999999999998E-002     2.0181961086178698E-002
   5.1600000000000007E-002     2.1570172014166573E-002
   5.1900000000000002E-002     2.2361330876862647E-002
   5.2200000000000010E-002     2.2385011971228597E-002
   5.2500000000000005E-002     2.1498031198146451E-002
   5.2800000000000000E-002     1.9601132534864035E-002
   5.3099999999999994E-002     1.6634290366733247E-002
   5.3400000000000003E-002     1.2600525699652919E-002
   5.3699999999999998E-002     7.5843767004533224E-003
   5.4000000000000006E-002     1.7045401590089640E-003
   5.4300000000000001E-002    -4.9273405362903764E-003
   5.4599999999999996E-002    -1.2239918837386529E-002
   5.4900000000000004E-002    -2.0247782144702939E-002
   5.5199999999999999E-002    -2.9118758514772143E-002
   5.5499999999999994E-002    -3.9230194745664304E-002
   5.5800000000000002E-002    -5.1192150110413136E-002
   5.6099999999999997E-002    -6.5865218189003247E-002
   5.6400000000000006E-002    -8.4313620967189834E-002
   5.6700000000000000E-002   -0.10766773961199724     
   5.6999999999999995E-002   -0.13698946318238642     
   5.7300000000000004E-002   -0.17307663590818634     
   5.7599999999999998E-002   -0.21620607039039186     
   5.7900000000000007E-002   -0.26589858630514795     
   5.8200000000000002E-002   -0.32074675158915500     
   5.8499999999999996E-002   -0.37821783245121710     
   5.8800000000000005E-002   -0.43464554043337411     
   5.9100000000000000E-002   -0.48529813437563818     
   5.9400000000000008E-002   -0.52465857426032203     
   5.9700000000000003E-002   -0.54675173717660330     
   6.0000000000000012E-002   -0.54566945993328997     
   6.0300000000000006E-002   -0.51615811391311806     
   6.0600000000000001E-002   -0.45423236819232859     
   6.0900000000000010E-002   -0.35773641560776381     
   6.1200000000000004E-002   -0.22683737801197956     
   6.1500000000000013E-002    -6.4296090691836338E-002
   6.1800000000000008E-002    0.12447375825075424     
   6.2100000000000002E-002    0.33151978729153675     
   6.2399999999999997E-002    0.54684849977814942     
   6.2700000000000006E-002    0.75895200291418208     
   6.3000000000000000E-002    0.95569259968005360     
   6.3300000000000009E-002     1.1251003056092466     
   6.3600000000000004E-002     1.2564140524275531     
   6.3899999999999998E-002     1.3407067985231829     
   6.4199999999999993E-002     1.3718143729727879     
   6.4500000000000002E-002     1.3465823173630214     
   6.4800000000000010E-002     1.2652733343707820     
   6.5100000000000005E-002     1.1314110926217773     
   6.5400000000000000E-002    0.95170865467424415     
   6.5700000000000008E-002    0.73536736464974051     
   6.5999999999999989E-002    0.49366175483851205     
   6.6299999999999998E-002    0.23894223759983568     
   6.6600000000000006E-002    -1.5887193837465598E-002
   6.6900000000000001E-002   -0.25848847960056348     
   6.7199999999999996E-002   -0.47756868200145275     
   6.7500000000000004E-002   -0.66362473422427137     
   6.7800000000000013E-002   -0.80955883041124876     
   6.8099999999999994E-002   -0.91073516278268885     
   6.8400000000000002E-002   -0.96556434949885128     
   6.8700000000000011E-002   -0.97505645423448040     
   6.8999999999999992E-002   -0.94298793796929070     
   6.9300000000000000E-002   -0.87527686176037589     
   6.9600000000000009E-002   -0.77968102490886526     
   6.9900000000000004E-002   -0.66519483023222903     
   7.0199999999999999E-002   -0.54119965735080755     
   7.0500000000000007E-002   -0.41718439691747228     
   7.0800000000000016E-002   -0.30171313843135900     
   7.1099999999999997E-002   -0.20229025734684619     
   7.1400000000000005E-002   -0.12459046900027840     
   7.1700000000000000E-002    -7.2411731047827499E-002
   7.1999999999999995E-002    -4.7558934206642478E-002
   7.2300000000000003E-002    -4.9743353327460146E-002
   7.2600000000000012E-002    -7.6861383525345217E-002
   7.2900000000000006E-002   -0.12527864174002612     
   7.3200000000000001E-002   -0.18983246731264874     
   7.3499999999999996E-002   -0.26485003012644331     
   7.3800000000000004E-002   -0.34360576429894174     
   7.4099999999999999E-002   -0.41924205465069753     
   7.4400000000000008E-002   -0.48485923302843448     
   7.4700000000000003E-002   -0.53341739207115624     
   7.5000000000000011E-002   -0.55868608959777810     
   7.5299999999999992E-002   -0.55461752369982797     
   7.5600000000000001E-002   -0.51641291171952997     
   7.5900000000000009E-002   -0.44035477739017737     
   7.6200000000000004E-002   -0.32452293696254286     
   7.6499999999999999E-002   -0.16911853790917114     
   7.6800000000000007E-002     2.3400304290239218E-002
   7.7099999999999988E-002    0.24760130865219920     
   7.7399999999999997E-002    0.49542687229839555     
   7.7700000000000005E-002    0.75600350825737916     
   7.8000000000000014E-002     1.0161773412130555     
   7.8299999999999995E-002     1.2612993163064212     
   7.8600000000000003E-002     1.4759654054715474     
   7.8900000000000012E-002     1.6454267158737623     
   7.9199999999999993E-002     1.7565408500760029     
   7.9500000000000001E-002     1.7992480938214375     
   7.9800000000000010E-002     1.7674845050540868     
   8.0100000000000018E-002     1.6597612892673494     
   8.0399999999999999E-002     1.4800582806236917     
   8.0700000000000008E-002     1.2369303626282471     
   8.1000000000000003E-002    0.94376975722297507     
   8.1299999999999997E-002    0.61731705710819662     
   8.1600000000000006E-002    0.27642043796958637     
   8.1900000000000014E-002    -5.9422698075964148E-002
   8.2199999999999995E-002   -0.37162940379953924     
   8.2500000000000004E-002   -0.64406598473917809     
   8.2799999999999999E-002   -0.86414372109092352     
   8.3100000000000007E-002    -1.0237855839544392     
   8.3400000000000002E-002    -1.1197477890482705     
   8.3700000000000011E-002    -1.1534375507846533     
   8.4000000000000005E-002    -1.1305124200052461     
   8.4300000000000000E-002    -1.0599173522016607     
   8.4599999999999995E-002   -0.95298513660768158     
   8.4900000000000003E-002   -0.82189765129622439     
   8.5199999999999998E-002   -0.67914764771368019     
   8.5500000000000007E-002   -0.53567102577494685     
   8.5800000000000001E-002   -0.40143895656949635     
   8.6100000000000010E-002   -0.28364212043108467     
   8.6399999999999991E-002   -0.18787393248541545     
   8.6699999999999999E-002   -0.11720193141273003     
   8.7000000000000008E-002    -7.2951110920061568E-002
   8.7300000000000003E-002    -5.4886137232444815E-002
   8.7599999999999997E-002    -6.1248846424606901E-002
   8.7900000000000006E-002    -8.9391677475264525E-002
   8.8200000000000014E-002   -0.13545241958376136     
   8.8499999999999995E-002   -0.19434520774466602     
   8.8800000000000004E-002   -0.26006591015647851     
   8.9100000000000013E-002   -0.32511816390142756     
   8.9399999999999993E-002   -0.38135476021435127     
   8.9700000000000002E-002   -0.41976141182869214     
   9.0000000000000011E-002   -0.43124689008462164     
   9.0299999999999991E-002   -0.40735626539357234     
   9.0600000000000000E-002   -0.34137859044610741     
   9.0900000000000009E-002   -0.22924711633188855     
   9.1200000000000017E-002    -7.0719276705872247E-002
   9.1499999999999998E-002    0.13054047823098369     
   9.1800000000000007E-002    0.36562845594417687     
   9.2100000000000001E-002    0.62166252467541705     
   9.2399999999999996E-002    0.88141745109910530     
   9.2700000000000005E-002     1.1253401953564408     
   9.3000000000000013E-002     1.3327384849493971     
   9.3300000000000008E-002     1.4834767467398282     
   9.3600000000000003E-002     1.5602791709053592     
   9.3899999999999997E-002     1.5498395177920981     
   9.4200000000000006E-002     1.4449250147064205     
   9.4500000000000001E-002     1.2445743293585358     
   9.4800000000000009E-002    0.95464423200637549     
   9.5100000000000004E-002    0.58747950965574014     
   9.5399999999999999E-002    0.16046803247125524     
   9.5699999999999993E-002   -0.30428732484922905     
   9.6000000000000002E-002   -0.78313423813161176     
   9.6300000000000011E-002    -1.2511429656239186     
   9.6600000000000005E-002    -1.6850660210764226     
   9.6900000000000000E-002    -2.0639206434751638     
   9.7200000000000009E-002    -2.3703118852070295     
   9.7499999999999989E-002    -2.5915799444614360     
   9.7799999999999998E-002    -2.7193155782626728     
   9.8100000000000007E-002    -2.7497670112854053     
   9.8400000000000015E-002    -2.6837440517182958     
   9.8699999999999996E-002    -2.5255649442583161     
   9.9000000000000005E-002    -2.2832689535139497     
   9.9300000000000013E-002    -1.9674631519770243     
   9.9599999999999994E-002    -1.5913704005926321     
   9.9900000000000003E-002    -1.1698237207370050     
  0.10020000000000001        -0.71999577813406002     
  0.10049999999999999        -0.25921005997965885     
  0.10080000000000000         0.19351022205527971     
  0.10110000000000001         0.62003914650003034     
  0.10140000000000000          1.0024245039851130     
  0.10170000000000000          1.3244972599203799     
  0.10200000000000001          1.5729094546200517     
  0.10230000000000002          1.7376003029455847     
  0.10260000000000000          1.8129379093784783     
  0.10290000000000001          1.7984586983270365     
  0.10320000000000000          1.6987072214298098     
  0.10350000000000001          1.5236483971381336     
  0.10380000000000000          1.2877415510250212     
  0.10410000000000001          1.0096547735611547     
  0.10440000000000001         0.71087992452323012     
  0.10470000000000000         0.41455580102550382     
  0.10500000000000000         0.14324665010120724     
  0.10530000000000000         -8.0963273575215267E-002
  0.10560000000000000        -0.23972012941854995     
  0.10590000000000001        -0.31819929601912739     
  0.10620000000000000        -0.30712289981035307     
  0.10650000000000001        -0.20295527253440046     
  0.10679999999999999         -8.5350844336433036E-003
  0.10710000000000000         0.26646561239590572     
  0.10740000000000001         0.60675329965960323     
  0.10770000000000000         0.99065696044977680     
  0.10800000000000000          1.3923419955270029     
  0.10830000000000001          1.7823204548829708     
  0.10859999999999999          2.1299819188781872     
  0.10890000000000000          2.4046235410086565     
  0.10920000000000001          2.5780963893347342     
  0.10950000000000001          2.6268955003991699     
  0.10979999999999999          2.5342632171695261     
  0.11009999999999999          2.2916913757787816     
  0.11040000000000001          1.9005904170257750     
  0.11070000000000001          1.3718210260026420     
  0.11100000000000000         0.72780226803375303     
  0.11130000000000000         -1.4072311957476491E-003
  0.11160000000000002        -0.77673637589238309     
  0.11190000000000001         -1.5550662941179734     
  0.11220000000000001         -2.2902349601182248     
  0.11250000000000000         -2.9378789230105862     
  0.11280000000000000         -3.4574714601447978     
  0.11309999999999999         -3.8162096149250511     
  0.11340000000000001         -3.9916856733270807     
  0.11369999999999998         -3.9724751751944911     
  0.11400000000000000         -3.7610285648522392     
  0.11430000000000000         -3.3710725808561821     
  0.11460000000000002         -2.8290620935956019     
  0.11489999999999999         -2.1692958902466666     
  0.11520000000000001         -1.4338593304824219     
  0.11550000000000001        -0.66663721304835433     
  0.11580000000000000          8.7529138125400696E-002
  0.11609999999999999         0.78886430686201992     
  0.11640000000000002          1.4032417938736219     
  0.11670000000000001          1.9057005238150246     
  0.11700000000000001          2.2812920808490063     
  0.11730000000000000          2.5255037663200413     
  0.11760000000000000          2.6434640578664288     
  0.11789999999999999          2.6490153085752768     
  0.11820000000000001          2.5618930027872509     
  0.11850000000000001          2.4059564454866740     
  0.11880000000000000          2.2055786136512663     
  0.11910000000000000          1.9844912851223384     
  0.11940000000000002          1.7618737562526667     
  0.11970000000000001          1.5528848146418759     
  0.12000000000000001          1.3655247528116592     
  0.12030000000000000          1.2030938719848197     
  0.12060000000000000          1.0620984498168058     
  0.12089999999999999         0.93603639884561196     
  0.12119999999999999         0.81470081707250908     
  0.12150000000000001         0.68838143556489073     
  0.12180000000000001         0.54768114989071803     
  0.12210000000000000         0.38640297674526070     
  0.12239999999999999         0.20238952299305002     
  0.12270000000000002         -2.4964517611444081E-003
  0.12300000000000001        -0.22084360802249892     
  0.12330000000000001        -0.44230841443864100     
  0.12360000000000000        -0.65263122140963592     
  0.12390000000000000        -0.83749320688613693     
  0.12419999999999999        -0.98179890158897809     
  0.12450000000000001         -1.0735769434351448     
  0.12480000000000001         -1.1042971986344430     
  0.12509999999999999         -1.0702753043113220     
  0.12540000000000001        -0.97409563914816155     
  0.12570000000000003        -0.82337218867803819     
  0.12600000000000000        -0.63140418798042464     
  0.12630000000000002        -0.41511854654824742     
  0.12659999999999999        -0.19428399584483574     
  0.12690000000000001          1.1050781333545590E-002
  0.12719999999999998         0.18192534042503877     
  0.12750000000000000         0.30303936169933782     
  0.12780000000000002         0.36341287214669932     
  0.12809999999999999         0.35809922073557243     
  0.12840000000000001         0.28859559207394087     
  0.12869999999999998         0.16195756967457747     
  0.12900000000000000         -9.2348321142109030E-003
  0.12930000000000003        -0.20890330412467789     
  0.12959999999999999        -0.41902111972444822     
  0.12990000000000002        -0.62192634435527994     
  0.13019999999999998        -0.80180081706785800     
  0.13050000000000000        -0.94746683376975249     
  0.13080000000000003         -1.0523127251243971     
  0.13109999999999999         -1.1162377028476989     
  0.13140000000000002         -1.1448758217813930     
  0.13169999999999998         -1.1488462767037200     
  0.13200000000000001         -1.1426477567810061     
  0.13229999999999997         -1.1422786954821869     
  0.13260000000000000         -1.1637689522672765     
  0.13290000000000002         -1.2200822494736725     
  0.13319999999999999         -1.3203265402299664     
  0.13350000000000001         -1.4671529434779851     
  0.13380000000000003         -1.6575880831038732     
  0.13410000000000000         -1.8813117574437963     
  0.13440000000000002         -2.1233215181912897     
  0.13469999999999999         -2.3636816310294004     
  0.13500000000000001         -2.5809767347008674     
  0.13529999999999998         -2.7529145844465388     
  0.13560000000000000         -2.8591225418607418     
  0.13590000000000002         -2.8830910335123936     
  0.13619999999999999         -2.8128944611864850     
  0.13650000000000001         -2.6420323710007554     
  0.13680000000000003         -2.3700140839981532     
  0.13710000000000000         -2.0013592361325578     
  0.13740000000000002         -1.5459978461210144     
  0.13769999999999999         -1.0167584428905001     
  0.13800000000000001        -0.43047769089264387     
  0.13829999999999998         0.19505107569239011     
  0.13860000000000000         0.83971253641257637     
  0.13890000000000002          1.4830018357626771     
  0.13919999999999999          2.1035636354231126     
  0.13950000000000001          2.6800754189154317     
  0.13979999999999998          3.1916511504268836     
  0.14010000000000000          3.6178271224302216     
  0.14040000000000002          3.9408818166718618     
  0.14069999999999999          4.1452097732034741     
  0.14100000000000001          4.2204969348566177     
  0.14130000000000004          4.1618964757466408     
  0.14160000000000000          3.9714725900972043     
  0.14189999999999997          3.6597851430017490     
  0.14219999999999999          3.2444416126339841     
  0.14250000000000002          2.7508104863129419     
  0.14279999999999998          2.2097755151236456     
  0.14310000000000000          1.6551255463986674     
  0.14339999999999997          1.1213522025865186     
  0.14369999999999999         0.63904600777369081     
  0.14400000000000002         0.23451571400831822     
  0.14429999999999998         -7.6877494111816574E-002
  0.14460000000000001        -0.28726628109415564     
  0.14490000000000003        -0.40123557154554279     
  0.14520000000000000        -0.43115591020656202     
  0.14550000000000002        -0.39814425692359912     
  0.14579999999999999        -0.32633110732947418     
  0.14610000000000001        -0.24114024392993877     
  0.14640000000000003        -0.16404585442661979     
  0.14670000000000000        -0.11091020775960569     
  0.14699999999999996         -8.7963178177475121E-002
  0.14729999999999999         -9.2601445602461946E-002
  0.14760000000000001        -0.11279994922281178     
  0.14789999999999998        -0.12988976464868382     
  0.14820000000000000        -0.12075312522598391     