  -1.4999999999999999E-002     0.0000000000000000     
  -1.4700000000000000E-002     0.0000000000000000     
  -1.4400000000000000E-002     0.0000000000000000     
  -1.4100000000000000E-002     0.0000000000000000     
  -1.3800000000000000E-002     0.0000000000000000     
  -1.3500000000000000E-002     0.0000000000000000     
  -1.3200000000000000E-002     0.0000000000000000     
  -1.2899999999999998E-002     0.0000000000000000     
  -1.2600000000000000E-002     0.0000000000000000     
  -1.2299999999999998E-002     0.0000000000000000     
  -1.2000000000000000E-002     0.0000000000000000     
  -1.1699999999999999E-002     0.0000000000000000     
  -1.1399999999999999E-002     0.0000000000000000     
  -1.1099999999999999E-002     0.0000000000000000     
  -1.0799999999999999E-002     0.0000000000000000     
  -1.0499999999999999E-002     0.0000000000000000     
  -1.0199999999999999E-002     0.0000000000000000     
  -9.8999999999999991E-003     0.0000000000000000     
  -9.5999999999999992E-003     0.0000000000000000     
  -9.2999999999999992E-003     0.0000000000000000     
  -8.9999999999999993E-003     0.0000000000000000     
  -8.6999999999999994E-003     0.0000000000000000     
  -8.3999999999999995E-003     0.0000000000000000     
  -8.0999999999999996E-003     0.0000000000000000     
  -7.7999999999999988E-003     0.0000000000000000     
  -7.4999999999999997E-003     0.0000000000000000     
  -7.1999999999999998E-003     0.0000000000000000     
  -6.8999999999999981E-003     0.0000000000000000     
  -6.5999999999999982E-003     0.0000000000000000     
  -6.3000000000000000E-003     0.0000000000000000     
  -6.0000000000000001E-003     0.0000000000000000     
  -5.6999999999999985E-003     0.0000000000000000     
  -5.3999999999999986E-003     0.0000000000000000     
  -5.1000000000000004E-003     0.0000000000000000     
  -4.7999999999999987E-003     0.0000000000000000     
  -4.5000000000000005E-003     0.0000000000000000     
  -4.1999999999999989E-003     0.0000000000000000     
  -3.8999999999999990E-003     0.0000000000000000     
  -3.5999999999999990E-003     0.0000000000000000     
  -3.2999999999999991E-003     0.0000000000000000     
  -2.9999999999999992E-003     0.0000000000000000     
  -2.6999999999999993E-003     0.0000000000000000     
  -2.3999999999999994E-003     0.0000000000000000     
  -2.0999999999999977E-003     0.0000000000000000     
  -1.7999999999999995E-003     0.0000000000000000     
  -1.4999999999999979E-003     0.0000000000000000     
  -1.1999999999999997E-003     0.0000000000000000     
  -8.9999999999999976E-004     0.0000000000000000     
  -5.9999999999999810E-004     0.0000000000000000     
  -2.9999999999999992E-004     0.0000000000000000     
   0.0000000000000000          8.2051665088718241E-045
   3.0000000000000165E-004     1.7719327957821335E-036
   5.9999999999999984E-004     4.4479414805171625E-035
   9.0000000000000149E-004    -1.0650624691828255E-034
   1.2000000000000031E-003     9.8475855677790768E-034
   1.5000000000000013E-003    -3.8368592909346690E-033
   1.8000000000000030E-003     7.5178645677332736E-033
   2.1000000000000012E-003     1.5830526355492784E-033
   2.3999999999999994E-003    -5.8675031943043083E-032
   2.7000000000000010E-003     1.9678662505664425E-031
   2.9999999999999992E-003    -3.2448442877714596E-031
   3.3000000000000008E-003    -9.7617735203420485E-033
   3.6000000000000025E-003     1.6643145517719598E-030
   3.9000000000000007E-003    -4.8445254022516110E-030
   4.2000000000000023E-003     6.0491275786750704E-030
   4.5000000000000005E-003     4.8629505280672369E-030
   4.7999999999999987E-003    -3.8299799567435092E-029
   5.1000000000000004E-003     7.7156429765366804E-029
   5.4000000000000020E-003    -3.9294012846128409E-029
   5.7000000000000037E-003    -1.9556004500559853E-028
   5.9999999999999984E-003     5.8589910335480281E-028
   6.3000000000000000E-003    -6.1637962428612950E-028
   6.6000000000000017E-003    -6.1864651603659329E-028
   6.9000000000000034E-003     3.2142086816586802E-027
   7.2000000000000015E-003    -4.5519214715316139E-027
   7.5000000000000032E-003    -3.2599781743752741E-028
   7.8000000000000014E-003     1.2625626271945607E-026
   8.0999999999999996E-003    -2.1578857328532558E-026
   8.4000000000000012E-003     8.8403341069683052E-027
   8.7000000000000029E-003     2.5224745512702085E-026
   9.0000000000000011E-003    -4.2901933896375746E-026
   9.2999999999999992E-003     1.8881977445828732E-026
   9.6000000000000009E-003    -4.3595621524394561E-026
   9.8999999999999991E-003     2.8194540169821424E-025
   1.0200000000000001E-002    -5.7936219048961866E-025
   1.0500000000000002E-002     1.5614744796394269E-026
   1.0800000000000004E-002     2.5930574407463482E-024
   1.1099999999999999E-002    -6.6013262183068613E-024
   1.1400000000000000E-002     7.2899050604975179E-024
   1.1700000000000002E-002     3.2365139974845046E-024
   1.2000000000000004E-002    -3.0063840626192140E-023
   1.2300000000000002E-002     6.5741786087880218E-023
   1.2600000000000000E-002    -7.8612899921983852E-023
   1.2900000000000002E-002     3.3539855797030955E-024
   1.3200000000000000E-002     2.4007677085145850E-022
   1.3500000000000002E-002    -6.4010014077758298E-022
   1.3800000000000003E-002     8.8270692488872127E-022
   1.4100000000000001E-002    -2.2967896248703559E-022
   1.4400000000000000E-002    -2.0699276157746895E-021
   1.4700000000000001E-002     5.5585004255291552E-021
   1.4999999999999999E-002    -7.1955623226386598E-021
   1.5300000000000001E-002     1.6413063166236554E-021
   1.5600000000000003E-002     1.5040698720549220E-020
   1.5899999999999997E-002    -3.8596654194280392E-020
   1.6199999999999999E-002     5.0201333274872039E-020
   1.6500000000000001E-002    -1.6853276141491356E-020
   1.6800000000000002E-002    -9.1881936047908345E-020
   1.7100000000000004E-002     2.5977352719223444E-019
   1.7400000000000006E-002    -3.5814126222021947E-019
   1.7700000000000000E-002     1.2306667939145784E-019
   1.8000000000000002E-002     6.8243436939862949E-019
   1.8300000000000004E-002    -1.8252993850951566E-018
   1.8600000000000005E-002     2.1368263776444826E-018
   1.8900000000000000E-002     1.6838747685446974E-019
   1.9200000000000002E-002    -5.5937777438109270E-018
   1.9500000000000003E-002     1.0618456442964660E-017
   1.9799999999999998E-002    -7.4539570325961162E-018
   2.0100000000000000E-002    -9.8237177959714514E-018
   2.0400000000000001E-002     3.4209842003809076E-017
   2.0700000000000003E-002    -4.0770849582192630E-017
   2.0999999999999998E-002     1.8425207010127634E-018
   2.1299999999999999E-002     7.8366681512327360E-017
   2.1600000000000001E-002    -1.3847954578587895E-016
   2.1900000000000003E-002     8.4757758006912729E-017
   2.2200000000000004E-002     1.2540180813245900E-016
   2.2500000000000006E-002    -3.9282239811630927E-016
   2.2800000000000001E-002     4.4853672115587863E-016
   2.3100000000000002E-002     8.4347768907990930E-017
   2.3400000000000004E-002    -1.4283930981994466E-015
   2.3699999999999999E-002     2.7734726607867558E-015
   2.4000000000000000E-002    -9.3645727625520109E-016
   2.4300000000000002E-002    -8.0794705427825091E-015
   2.4599999999999997E-002     1.9545652122787427E-014
   2.4900000000000005E-002    -1.0580437688907585E-014
   2.5200000000000000E-002    -3.9265134810580807E-014
   2.5499999999999995E-002     9.7112903443341321E-014
   2.5800000000000003E-002    -8.2119554780353324E-014
   2.6099999999999998E-002    -5.4948737483620318E-014
   2.6400000000000007E-002     3.6352801175820628E-013
   2.6700000000000002E-002    -7.2403171873273117E-013
   2.6999999999999996E-002    -2.3117930507268009E-013
   2.7300000000000005E-002     3.7507278804268486E-012
   2.7600000000000000E-002    -2.0248178515795299E-012
   2.7900000000000008E-002    -1.7875665142116249E-011
   2.8200000000000003E-002     2.3180868618678389E-011
   2.8499999999999998E-002     6.3615656167583466E-011
   2.8800000000000006E-002    -1.2859718644930411E-010
   2.9100000000000001E-002    -1.8321412422962462E-010
   2.9400000000000003E-002     4.8555075119650391E-010
   2.9700000000000004E-002     6.9135860397973234E-010
   3.0000000000000006E-002    -2.0561363789788893E-009
   3.0300000000000001E-002    -2.4731768624235263E-009
   3.0600000000000002E-002     1.0021281348178918E-008
   3.0900000000000004E-002     2.7085533405925402E-009
   3.1199999999999999E-002    -3.8560571599143894E-008
   3.1500000000000007E-002     2.6029368229739855E-008
   3.1800000000000002E-002     9.2309149356053642E-008
   3.2099999999999997E-002    -1.6769811034568079E-007
   3.2400000000000005E-002    -1.0337013625919118E-007
   3.2700000000000000E-002     5.0931376186845143E-007
   3.3000000000000002E-002     3.3329740335064470E-007
   3.3300000000000003E-002     1.4461321072474242E-006
   3.3599999999999998E-002     6.4689236294946927E-006
   3.3900000000000000E-002     1.1831205453710611E-005
   3.4200000000000001E-002     1.8463554788347989E-005
   3.4500000000000003E-002     3.0275792009703600E-005
   3.4799999999999998E-002     4.3451821543218608E-005
   3.5099999999999999E-002     6.3051998640187339E-005
   3.5400000000000001E-002     9.6770161177786771E-005
   3.5699999999999996E-002     1.4395005979391833E-004
   3.6000000000000004E-002     2.1956947704537567E-004
   3.6299999999999999E-002     3.3327397719335106E-004
   3.6600000000000008E-002     4.8404240831943508E-004
   3.6900000000000002E-002     7.0132580746068050E-004
   3.7199999999999997E-002     1.0116182635012830E-003
   3.7500000000000006E-002     1.4236242947788119E-003
   3.7800000000000000E-002     1.9688763880943705E-003
   3.8100000000000009E-002     2.6863940458471940E-003
   3.8400000000000004E-002     3.6105286309261919E-003
   3.8699999999999998E-002     4.7745562994049575E-003
   3.9000000000000007E-002     6.2190380089025849E-003
   3.9300000000000002E-002     8.0027995775471018E-003
   3.9600000000000003E-002     1.0148228603035778E-002
   3.9900000000000005E-002     1.2641455361446572E-002
   4.0200000000000000E-002     1.5486206998324330E-002
   4.0500000000000001E-002     1.8667445450405658E-002
   4.0800000000000003E-002     2.2140162690272778E-002
   4.1100000000000005E-002     2.5837732827960175E-002
   4.1399999999999999E-002     2.9632577716615087E-002
   4.1700000000000008E-002     3.3373532535629517E-002
   4.2000000000000003E-002     3.6925361806096714E-002
   4.2299999999999997E-002     4.0131234544211698E-002
   4.2600000000000006E-002     4.2811401784750069E-002
   4.2900000000000001E-002     4.4800483016635459E-002
   4.3200000000000002E-002     4.5965403446296842E-002
   4.3500000000000004E-002     4.6173665695921497E-002
   4.3799999999999999E-002     4.5305643278551820E-002
   4.4100000000000000E-002     4.3250449236422593E-002
   4.4400000000000002E-002     3.9835699514338921E-002
   4.4700000000000004E-002     3.4819578099904248E-002
   4.4999999999999998E-002     2.7844671362324880E-002
   4.5300000000000000E-002     1.8340730518695374E-002
   4.5600000000000002E-002     5.5697131838057991E-003
   4.5899999999999996E-002    -1.1466271335071781E-002
   4.6200000000000005E-002    -3.4030074998661244E-002
   4.6500000000000000E-002    -6.3488058846680212E-002
   4.6799999999999994E-002   -0.10124928970207088     
   4.7100000000000003E-002   -0.14866913993892941     
   4.7399999999999998E-002   -0.20668302252618190     
   4.7700000000000006E-002   -0.27563116826136463     
   4.8000000000000001E-002   -0.35500035143479386     
   4.8300000000000010E-002   -0.44308364414527818     
   4.8600000000000004E-002   -0.53688308192391565     
   4.8899999999999999E-002   -0.63198610332939720     
   4.9200000000000008E-002   -0.72257007987863198     
   4.9500000000000002E-002   -0.80170817728276900     
   4.9800000000000011E-002   -0.86168296525991350     
   5.0100000000000006E-002   -0.89457161594194523     
   5.0400000000000000E-002   -0.89288266025041452     
   5.0700000000000009E-002   -0.85036667063638016     
   5.1000000000000004E-002   -0.76273515269058578     
   5.1299999999999998E-002   -0.62836262820278976     
   5.1600000000000007E-002   -0.44883917019654679     
   5.1900000000000002E-002   -0.22922774596842108     
   5.2200000000000010E-002     2.1812516773356178E-002
   5.2500000000000005E-002    0.29271066950755298     
   5.2800000000000000E-002    0.56910672084438696     
   5.3099999999999994E-002    0.83535850923058763     
   5.3400000000000003E-002     1.0752652247307879     
   5.3699999999999998E-002     1.2736789437214124     
   5.4000000000000006E-002     1.4177375210534326     
   5.4300000000000001E-002     1.4977023926295479     
   5.4599999999999996E-002     1.5087780076737189     
   5.4900000000000004E-002     1.4505403386677358     
   5.5199999999999999E-002     1.3281584195547114     
   5.5499999999999994E-002     1.1514311343019961     
   5.5800000000000002E-002    0.93436718300798050     
   5.6099999999999997E-002    0.69420929462780689     
   5.6400000000000006E-002    0.44956991250348505     
   5.6700000000000000E-002    0.21945870030645412     
   5.6999999999999995E-002     2.1367228718018542E-002
   5.7300000000000004E-002   -0.13023286055090200     
   5.7599999999999998E-002   -0.22467770858232647     
   5.7900000000000007E-002   -0.25638527377575504     
   5.8200000000000002E-002   -0.22515646201193903     
   5.8499999999999996E-002   -0.13561154203061848     
   5.8800000000000005E-002     2.3612285465462049E-003
   5.9100000000000000E-002    0.17542749037802779     
   5.9400000000000008E-002    0.36742505360847622     
   5.9700000000000003E-002    0.56083934379061584     
   6.0000000000000012E-002    0.73817787387061562     
   6.0300000000000006E-002    0.88311883654133361     
   6.0600000000000001E-002    0.98213275321908600     
   6.0900000000000010E-002     1.0245961694654846     
   6.1200000000000004E-002     1.0043003083828785     
   6.1500000000000013E-002    0.91885752742073090     
   6.1800000000000008E-002    0.77043153485322857     
   6.2100000000000002E-002    0.56506814884382606     
   6.2399999999999997E-002    0.31238854229795093     
   6.2700000000000006E-002     2.4873904853715611E-002
   6.3000000000000000E-002   -0.28278646015726683     
   6.3300000000000009E-002   -0.59461991679891513     
   6.3600000000000004E-002   -0.89430371171625278     
   6.3899999999999998E-002    -1.1657090968797044     
   6.4199999999999993E-002    -1.3944841091726128     
   6.4500000000000002E-002    -1.5680642689589919     
   6.4800000000000010E-002    -1.6769286883875532     
   6.5100000000000005E-002    -1.7153523417791694     
   6.5400000000000000E-002    -1.6817900384260991     
   6.5700000000000008E-002    -1.5790049303359970     
   6.5999999999999989E-002    -1.4148124975391849     
   6.6299999999999998E-002    -1.2010858654158358     
   6.6600000000000006E-002   -0.95377779925283990     
   6.6900000000000001E-002   -0.69193526041763287     
   6.7199999999999996E-002   -0.43605098034526574     
   6.7500000000000004E-002   -0.20726793271101726     
   6.7800000000000013E-002    -2.4695810675996802E-002
   6.8099999999999994E-002     9.5383001130877346E-002
   6.8400000000000002E-002    0.14192154792311201     
   6.8700000000000011E-002    0.10996703228578544     
   6.8999999999999992E-002     1.8587624800431024E-003
   6.9300000000000000E-002   -0.17263060404832345     
   6.9600000000000009E-002   -0.39695225541442247     
   6.9900000000000004E-002   -0.64865571372364395     
   7.0199999999999999E-002   -0.90091209516263426     
   7.0500000000000007E-002    -1.1262231263459377     
   7.0800000000000016E-002    -1.2970161767329460     
   7.1099999999999997E-002    -1.3902455884639386     
   7.1400000000000005E-002    -1.3886357905535360     
   7.1700000000000000E-002    -1.2826838955582480     
   7.1999999999999995E-002    -1.0726628926365089     
   7.2300000000000003E-002   -0.76756473777568557     
   7.2600000000000012E-002   -0.38553743473403279     
   7.2900000000000006E-002     4.8076523735452452E-002
   7.3200000000000001E-002    0.50346328362971726     
   7.3499999999999996E-002    0.94851039751478960     
   7.3800000000000004E-002     1.3515126960965846     
   7.4099999999999999E-002     1.6858490780323319     
   7.4400000000000008E-002     1.9294153403431178     
   7.4700000000000003E-002     2.0697165623378462     
   7.5000000000000011E-002     2.1024099495845761     
   7.5299999999999992E-002     2.0323404054117593     
   7.5600000000000001E-002     1.8735342133757924     
   7.5900000000000009E-002     1.6456396853526996     
   7.6200000000000004E-002     1.3739376531362903     
   7.6499999999999999E-002     1.0854670468024799     
   7.6800000000000007E-002    0.80662247022980049     
   7.7099999999999988E-002    0.56099865905413016     
   7.7399999999999997E-002    0.36708407883113575     
   7.7700000000000005E-002    0.23649989107509706     
   7.8000000000000014E-002    0.17380847357319304     
   7.8299999999999995E-002    0.17544284599960214     
   7.8600000000000003E-002    0.23120675556089795     
   7.8900000000000012E-002    0.32496310989820115     
   7.9199999999999993E-002    0.43658921826522057     
   7.9500000000000001E-002    0.54467287357986260     
   7.9800000000000010E-002    0.62686874281862215     
   8.0100000000000018E-002    0.66476030342449133     
   8.0399999999999999E-002    0.64295024619775043     
   8.0700000000000008E-002    0.55206955612266573     
   8.1000000000000003E-002    0.38976814147133526     
   8.1299999999999997E-002    0.15983912269690184     
   8.1600000000000006E-002   -0.12786844432404149     
   8.1900000000000014E-002   -0.45654532028703559     
   8.2199999999999995E-002   -0.80719057387621251     
   8.2500000000000004E-002    -1.1569501910864577     
   8.2799999999999999E-002    -1.4824848719396717     
   8.3100000000000007E-002    -1.7625798345490544     
   8.3400000000000002E-002    -1.9776842796523271     
   8.3700000000000011E-002    -2.1132718411398081     
   8.4000000000000005E-002    -2.1599575297988571     
   8.4300000000000000E-002    -2.1144253011859440     
   8.4599999999999995E-002    -1.9794968392750816     
   8.4900000000000003E-002    -1.7643118006316540     
   8.5199999999999998E-002    -1.4826438645216280     
   8.5500000000000007E-002    -1.1532804141344466     
   8.5800000000000001E-002   -0.79683619162045172     
   8.6100000000000010E-002   -0.43623570872981388     
   8.6399999999999991E-002    -9.2651256588128061E-002
   8.6699999999999999E-002    0.21440803636740524     
   8.7000000000000008E-002    0.46931531599305309     
   8.7300000000000003E-002    0.66237453899256038     
   8.7599999999999997E-002    0.78890404392720781     
   8.7900000000000006E-002    0.85145464170141383     
   8.8200000000000014E-002    0.85843225586876015     
   8.8499999999999995E-002    0.82332356930457284     
   8.8800000000000004E-002    0.76384314141097387     
   8.9100000000000013E-002    0.69915386448988248     
   8.9399999999999993E-002    0.64861681628191936     
   8.9700000000000002E-002    0.62972274051071664     
   9.0000000000000011E-002    0.65536567054542305     
   9.0299999999999991E-002    0.73324908890185259     
   9.0600000000000000E-002    0.86538733426309944     
   9.0900000000000009E-002     1.0462186969201730     
   9.1200000000000017E-002     1.2656531841235990     
   9.1499999999999998E-002     1.5075178505496210     
   9.1800000000000007E-002     1.7534505329139236     
   9.2100000000000001E-002     1.9832268993509543     
   9.2399999999999996E-002     2.1776035913798033     
   9.2700000000000005E-002     2.3191245557945752     
   9.3000000000000013E-002     2.3939574627208198     
   9.3300000000000008E-002     2.3931952336177535     
   9.3600000000000003E-002     2.3116341453256770     
   9.3899999999999997E-002     2.1493614596164656     
   9.4200000000000006E-002     1.9097988409942210     
   9.4500000000000001E-002     1.6000215993553999     
   9.4800000000000009E-002     1.2281364428767547     
   9.5100000000000004E-002    0.80464481569466073     
   9.5399999999999999E-002    0.33936944316842610     
   9.5699999999999993E-002   -0.15744631923936678     
   9.6000000000000002E-002   -0.67595995750447602     
   9.6300000000000011E-002    -1.2068257628469850     
   9.6600000000000005E-002    -1.7400735482354908     
   9.6900000000000000E-002    -2.2657912417846018     
   9.7200000000000009E-002    -2.7724519026916008     
   9.7499999999999989E-002    -3.2472689057694080     
   9.7799999999999998E-002    -3.6760010339552753     
   9.8100000000000007E-002    -4.0415307882557494     
   9.8400000000000015E-002    -4.3270785087983450     
   9.8699999999999996E-002    -4.5128699976980098     
   9.9000000000000005E-002    -4.5811669135506872     
   9.9300000000000013E-002    -4.5144664714340621     
   9.9599999999999994E-002    -4.2993452286536913     
   9.9900000000000003E-002    -3.9262876604485131     
  0.10020000000000001         -3.3935959872529740     
  0.10049999999999999         -2.7067748158381240     
  0.10080000000000000         -1.8816861325754375     
  0.10110000000000001        -0.94386045274299235     
  0.10140000000000000          7.0550727225752091E-002
  0.10170000000000000          1.1169935637378461     
  0.10200000000000001          2.1426888311483898     
  0.10230000000000002          3.0925205046477173     
  0.10260000000000000          3.9085068565061176     
  0.10290000000000001          4.5396396643293278     
  0.10320000000000000          4.9411637090074105     
  0.10350000000000001          5.0830661458857227     
  0.10380000000000000          4.9509712882646122     
  0.10410000000000001          4.5506789067679190     
  0.10440000000000001          3.9077250604050819     
  0.10470000000000000          3.0667767530768337     
  0.10500000000000000          2.0905547585337603     
  0.10530000000000000          1.0517227382450767     
  0.10560000000000000          3.1596170110646936E-002
  0.10590000000000001        -0.89105020689235226     
  0.10620000000000000         -1.6430333875986998     
  0.10650000000000001         -2.1669180038744105     
  0.10679999999999999         -2.4229020427379817     
  0.10710000000000000         -2.3953878042419574     
  0.10740000000000001         -2.0931459931974752     
  0.10770000000000000         -1.5485778131120982     
  0.10800000000000000        -0.81568548817856679     
  0.10830000000000001          3.4796557144873327E-002
  0.10859999999999999         0.92147038956081229     
  0.10890000000000000          1.7589620588247084     
  0.10920000000000001          2.4633121519495154     
  0.10950000000000001          2.9611906868494455     
  0.10979999999999999          3.1913974043970077     
  0.11009999999999999          3.1123902536628876     
  0.11040000000000001          2.7021369751525053     
  0.11070000000000001          1.9614350795439599     
  0.11100000000000000         0.91305449533075145     
  0.11130000000000000        -0.40041103091240432     
  0.11160000000000002         -1.9169886137868206     
  0.11190000000000001         -3.5594144530836069     
  0.11220000000000001         -5.2395966118301276     
  0.11250000000000000         -6.8603541302887061     
  0.11280000000000000         -8.3233467397898071     
  0.11309999999999999         -9.5308357008716538     
  0.11340000000000001         -10.395236522737269     
  0.11369999999999998         -10.840803626422309     
  0.11400000000000000         -10.812179082695742     
  0.11430000000000000         -10.277490144880851     
  0.11460000000000002         -9.2334256572950437     
  0.11489999999999999         -7.7068158167034246     
  0.11520000000000001         -5.7557322350016129     
  0.11550000000000001         -3.4681597098425705     
  0.11580000000000000        -0.95491483440955471     
  0.11609999999999999          1.6515645712509910     
  0.11640000000000002          4.2125910229456771     
  0.11670000000000001          6.5857946603751101     
  0.11700000000000001          8.6417385210573201     
  0.11730000000000000          10.270359534716222     
  0.11760000000000000          11.390113306783878     
  0.11789999999999999          11.955898674553755     
  0.11820000000000001          11.960394281443254     
  0.11850000000000001          11.435780912794003     
  0.11880000000000000          10.450210993502310     
  0.11910000000000000          9.1022830000899759     
  0.11940000000000002          7.5098953906590316     
  0.11970000000000001          5.8049422718984909     
  0.12000000000000001          4.1153485559581240     
  0.12030000000000000          2.5631685767575658     
  0.12060000000000000          1.2464905934845647     
  0.12089999999999999         0.23933065255507821     
  0.12119999999999999        -0.41709032973692262     
  0.12150000000000001        -0.71336514677652341     
  0.12180000000000001        -0.67264115719033801     
  0.12210000000000000        -0.34427598218453381     
  0.12239999999999999         0.19917913040262900     
  0.12270000000000002         0.87209913071765077     
  0.12300000000000001          1.5838677362556022     
  0.12330000000000001          2.2448312485925102     
  0.12360000000000000          2.7783507335439719     
  0.12390000000000000          3.1221269404473078     
  0.12419999999999999          3.2379895331524424     
  0.12450000000000001          3.1106792459412826     
  0.12480000000000001          2.7509838043456565     
  0.12509999999999999          2.1925981910576859     
  0.12540000000000001          1.4884147331315500     
  0.12570000000000003         0.70561907113513544     
  0.12600000000000000         -8.2524180540759218E-002
  0.12630000000000002        -0.80485540500192287     
  0.12659999999999999         -1.3989078754755802     
  0.12690000000000001         -1.8199473061760092     
  0.12719999999999998         -2.0474174255898263     
  0.12750000000000000         -2.0859071938323313     
  0.12780000000000002         -1.9713710872644454     
  0.12809999999999999         -1.7620662090016495     
  0.12840000000000001         -1.5422815163414696     
  0.12869999999999998         -1.4053086521226117     
  0.12900000000000000         -1.4497632667911085     
  0.12930000000000003         -1.7648694645422611     
  0.12959999999999999         -2.4199873873026743     
  0.12990000000000002         -3.4524969000512797     
  0.13019999999999998         -4.8617099309087735     
  0.13050000000000000         -6.6037701004736880     
  0.13080000000000003         -8.5871671138157080     
  0.13109999999999999         -10.683931707242255     
  0.13140000000000002         -12.730480599429500     
  0.13169999999999998         -14.545655723032214     
  0.13200000000000001         -15.943173008428946     
  0.13229999999999997         -16.747234034588832     
  0.13260000000000000         -16.813344740915376     
  0.13290000000000002         -16.036439775326070     
  0.13319999999999999         -14.371211975394619     
  0.13350000000000001         -11.830239347477859     
  0.13380000000000003         -8.4936438829245500     
  0.13410000000000000         -4.5022766020247307     
  0.13440000000000002         -4.8539031771678773E-002
  0.13469999999999999          4.6326768158293223     
  0.13500000000000001          9.2828404420653445     
  0.13529999999999998          13.637930568546038     
  0.13560000000000000          17.442956614911264     
  0.13590000000000002          20.475169824577225     
  0.13619999999999999          22.551772763230481     
  0.13650000000000001          23.548074421699059     
  0.13680000000000003          23.399772354592304     
  0.13710000000000000          22.110084259178159     
  0.13740000000000002          19.748029453429659     
  0.13769999999999999          16.440198665699384     
  0.13800000000000001          12.369169983317246     
  0.13829999999999998          7.7562692796606703     
  0.13860000000000000          2.8516744145504793     
  0.13890000000000002         -2.0812455298678092     
  0.13919999999999999         -6.7795644529863592     
  0.13950000000000001         -10.999272385271766     
  0.13979999999999998         -14.523168571728400     
  0.14010000000000000         -17.179639797749026     
  0.14040000000000002         -18.845901450134164     
  0.14069999999999999         -19.456783241551985     
  0.14100000000000001         -19.010003984283848     
  0.14130000000000004         -17.556842746112451     
  0.14160000000000000         -15.206396054589083     
  0.14189999999999997         -12.110948531148262     
  0.14219999999999999         -8.4556789314592926     
  0.14250000000000002         -4.4486627781596386     
  0.14279999999999998        -0.30404569979683022     
  0.14310000000000000          3.7699879736308741     
  0.14339999999999997          7.5825380076622428     
  0.14369999999999999          10.972260323830234     
  0.14400000000000002          13.808943570248529     
  0.14429999999999998          16.004424850013447     
  0.14460000000000001          17.509193209005819     
  0.14490000000000003          18.308105253139466     
  0.14520000000000000          18.424489765106991     
  0.14550000000000002          17.904838366691919     
  0.14579999999999999          16.818328685380958     
  0.14610000000000001          15.246888019264524     
  0.14640000000000003          13.281353845709715     
  0.14670000000000000          11.010672505034599     
  0.14699999999999996          8.5234699039972188     
  0.14729999999999999          5.8991117701475515     
  0.14760000000000001          3.2111125644318537     
  0.14789999999999998         0.52013485284679850     
  0.14820000000000000         -2.1184247489949377     