  -1.4999999999999999E-002     0.0000000000000000     
  -1.4700000000000000E-002     0.0000000000000000     
  -1.4400000000000000E-002     0.0000000000000000     
  -1.4100000000000000E-002     0.0000000000000000     
  -1.3800000000000000E-002     0.0000000000000000     
  -1.3500000000000000E-002     0.0000000000000000     
  -1.3200000000000000E-002     0.0000000000000000     
  -1.2899999999999998E-002     0.0000000000000000     
  -1.2600000000000000E-002     0.0000000000000000     
  -1.2299999999999998E-002     0.0000000000000000     
  -1.2000000000000000E-002     0.0000000000000000     
  -1.1699999999999999E-002     0.0000000000000000     
  -1.1399999999999999E-002     0.0000000000000000     
  -1.1099999999999999E-002     0.0000000000000000     
  -1.0799999999999999E-002     0.0000000000000000     
  -1.0499999999999999E-002     0.0000000000000000     
  -1.0199999999999999E-002     0.0000000000000000     
  -9.8999999999999991E-003     0.0000000000000000     
  -9.5999999999999992E-003     0.0000000000000000     
  -9.2999999999999992E-003     0.0000000000000000     
  -8.9999999999999993E-003     0.0000000000000000     
  -8.6999999999999994E-003     0.0000000000000000     
  -8.3999999999999995E-003     0.0000000000000000     
  -8.0999999999999996E-003     0.0000000000000000     
  -7.7999999999999988E-003     0.0000000000000000     
  -7.4999999999999997E-003     0.0000000000000000     
  -7.1999999999999998E-003     0.0000000000000000     
  -6.8999999999999981E-003     0.0000000000000000     
  -6.5999999999999982E-003     0.0000000000000000     
  -6.3000000000000000E-003     0.0000000000000000     
  -6.0000000000000001E-003     0.0000000000000000     
  -5.6999999999999985E-003     0.0000000000000000     
  -5.3999999999999986E-003     0.0000000000000000     
  -5.1000000000000004E-003     0.0000000000000000     
  -4.7999999999999987E-003     0.0000000000000000     
  -4.5000000000000005E-003     0.0000000000000000     
  -4.1999999999999989E-003     0.0000000000000000     
  -3.8999999999999990E-003     0.0000000000000000     
  -3.5999999999999990E-003     0.0000000000000000     
  -3.2999999999999991E-003     0.0000000000000000     
  -2.9999999999999992E-003     0.0000000000000000     
  -2.6999999999999993E-003     0.0000000000000000     
  -2.3999999999999994E-003     0.0000000000000000     
  -2.0999999999999977E-003     0.0000000000000000     
  -1.7999999999999995E-003     0.0000000000000000     
  -1.4999999999999979E-003     0.0000000000000000     
  -1.1999999999999997E-003     0.0000000000000000     
  -8.9999999999999976E-004     0.0000000000000000     
  -5.9999999999999810E-004     0.0000000000000000     
  -2.9999999999999992E-004     0.0000000000000000     
   0.0000000000000000          0.0000000000000000     
   3.0000000000000165E-004     0.0000000000000000     
   5.9999999999999984E-004     0.0000000000000000     
   9.0000000000000149E-004     0.0000000000000000     
   1.2000000000000031E-003     0.0000000000000000     
   1.5000000000000013E-003     0.0000000000000000     
   1.8000000000000030E-003     0.0000000000000000     
   2.1000000000000012E-003    -4.4418325896864650E-050
   2.3999999999999994E-003    -8.8774935155679417E-050
   2.7000000000000010E-003     1.0971565418054317E-048
   2.9999999999999992E-003     5.4522942778592628E-036
   3.3000000000000008E-003    -3.2974902372497437E-035
   3.6000000000000025E-003     1.1043367011668907E-034
   3.9000000000000007E-003    -2.2359930615398591E-034
   4.2000000000000023E-003     9.3977931467887284E-034
   4.5000000000000005E-003    -3.7167086980412720E-034
   4.7999999999999987E-003    -5.5761916284397312E-033
   5.1000000000000004E-003     2.3337592571409020E-032
   5.4000000000000020E-003    -4.3066614272150837E-032
   5.7000000000000037E-003     1.5391375961499889E-032
   5.9999999999999984E-003     1.3186266370333593E-031
   6.3000000000000000E-003    -3.7475456800652226E-031
   6.6000000000000017E-003     3.7435303314587793E-031
   6.9000000000000034E-003     5.3904545976397235E-031
   7.2000000000000015E-003    -2.5320034721962123E-030
   7.5000000000000032E-003     3.5528809082906246E-030
   7.8000000000000014E-003     1.0523764789976584E-030
   8.0999999999999996E-003    -1.3623758755780782E-029
   8.4000000000000012E-003     2.4067087567574790E-029
   8.7000000000000029E-003    -7.0511443752092422E-030
   9.0000000000000011E-003    -5.3497813018572108E-029
   9.2999999999999992E-003     1.1848059317172395E-028
   9.6000000000000009E-003    -8.9369618064013098E-029
   9.8999999999999991E-003    -8.7833493777639850E-029
   1.0200000000000001E-002     2.9394287975393481E-028
   1.0500000000000002E-002    -3.4896121949381591E-028
   1.0800000000000004E-002     4.1902180090603335E-028
   1.1099999999999999E-002    -1.0148169351638572E-027
   1.1400000000000000E-002     1.6147932141981567E-027
   1.1700000000000002E-002     1.1755972426167841E-027
   1.2000000000000004E-002    -1.1852457532456618E-026
   1.2300000000000002E-002     2.7416341990739807E-026
   1.2600000000000000E-002    -2.7716336713713964E-026
   1.2900000000000002E-002    -1.9975787253744079E-026
   1.3200000000000000E-002     1.3290039086350309E-025
   1.3500000000000002E-002    -2.7277462944146333E-025
   1.3800000000000003E-002     3.1223832724550352E-025
   1.4100000000000001E-002    -1.4259580390479653E-026
   1.4400000000000000E-002    -9.2464750953765771E-025
   1.4700000000000001E-002     2.5667201784548275E-024
   1.4999999999999999E-002    -3.9446466964345498E-024
   1.5300000000000001E-002     2.1902026761396203E-024
   1.5600000000000003E-002     6.7934105003717147E-024
   1.5899999999999997E-002    -2.3997946196717779E-023
   1.6199999999999999E-002     3.9450108338537113E-023
   1.6500000000000001E-002    -2.6338160624256591E-023
   1.6800000000000002E-002    -5.1248099155081455E-023
   1.7100000000000004E-002     2.0280941656015315E-022
   1.7400000000000006E-002    -3.4397532116986851E-022
   1.7700000000000000E-002     2.3518862326595317E-022
   1.8000000000000002E-002     4.4855529380118595E-022
   1.8300000000000004E-002    -1.7350726634046817E-021
   1.8600000000000005E-002     2.6810311706510252E-021
   1.8900000000000000E-002    -1.0896279725278096E-021
   1.9200000000000002E-002    -5.0080465835825988E-021
   1.9500000000000003E-002     1.3480574837448402E-020
   1.9799999999999998E-002    -1.4678577601342559E-020
   2.0100000000000000E-002    -4.5286272750530533E-021
   2.0400000000000001E-002     4.4472941099880042E-020
   2.0700000000000003E-002    -7.3880317986921368E-020
   2.0999999999999998E-002     3.6395080548883537E-020
   2.1299999999999999E-002     9.5463388666678167E-020
   2.1600000000000001E-002    -2.4666263870467728E-019
   2.1900000000000003E-002     2.3564559523482666E-019
   2.2200000000000004E-002     8.3957173025706990E-020
   2.2500000000000006E-002    -5.9655938571941509E-019
   2.2800000000000001E-002     8.3516968880449895E-019
   2.3100000000000002E-002    -2.4284206735263770E-019
   2.3400000000000004E-002    -1.2356034081248492E-018
   2.3699999999999999E-002     2.5273716919006513E-018
   2.4000000000000000E-002    -1.3130254550853109E-018
   2.4300000000000002E-002    -4.5085209953851314E-018
   2.4599999999999997E-002     1.2316857958619784E-017
   2.4900000000000005E-002    -8.7478615033225964E-018
   2.5200000000000000E-002    -2.6980837528568548E-017
   2.5499999999999995E-002     9.2773418479152351E-017
   2.5800000000000003E-002    -1.0841238022070797E-016
   2.6099999999999998E-002    -1.0767402835794867E-016
   2.6400000000000007E-002     6.9713086121604209E-016
   2.6700000000000002E-002    -1.2317506425331344E-015
   2.6999999999999996E-002    -1.6654106767427734E-016
   2.7300000000000005E-002     6.0290384436877513E-015
   2.7600000000000000E-002    -1.2415028645316513E-014
   2.7900000000000008E-002    -2.1385751550153660E-016
   2.8200000000000003E-002     4.6957912043505067E-014
   2.8499999999999998E-002    -7.9417785944162038E-014
   2.8800000000000006E-002     1.5985797177976947E-014
   2.9100000000000001E-002     7.7353834072371309E-014
   2.9400000000000003E-002    -2.4300782631919288E-013
   2.9700000000000004E-002     1.3009787606752604E-012
   3.0000000000000006E-002    -1.9553079594866656E-012
   3.0300000000000001E-002    -7.4617611684303544E-012
   3.0600000000000002E-002     2.6664459256282484E-011
   3.0900000000000004E-002     1.3068037857230549E-011
   3.1199999999999999E-002    -1.9177649544184978E-010
   3.1500000000000007E-002     2.1654161189992183E-010
   3.1800000000000002E-002     6.8548646872213176E-010
   3.2099999999999997E-002    -2.0999093276809087E-009
   3.2400000000000005E-002     2.5356215567106447E-010
   3.2700000000000000E-002     7.7636374170067551E-009
   3.3000000000000002E-002    -1.2114496763461539E-008
   3.3300000000000003E-002    -7.7936129717148427E-009
   3.3599999999999998E-002     4.6060312779739737E-008
   3.3900000000000000E-002    -3.9912208071922150E-008
   3.4200000000000001E-002    -6.4482168210673170E-008
   3.4500000000000003E-002     1.7109943664790800E-007
   3.4799999999999998E-002    -5.9651974133067045E-008
   3.5099999999999999E-002    -2.7265401749003785E-007
   3.5400000000000001E-002     3.7355807832444346E-007
   3.5699999999999996E-002     2.2709360683696038E-007
   3.6000000000000004E-002     1.1250573474091209E-006
   3.6299999999999999E-002     8.4356150979883530E-006
   3.6600000000000008E-002     2.2848996846990640E-005
   3.6900000000000002E-002     4.4157480690148043E-005
   3.7199999999999997E-002     7.0008004525176211E-005
   3.7500000000000006E-002     9.4439200129244673E-005
   3.7800000000000000E-002     1.2757416549682857E-004
   3.8100000000000009E-002     1.9301083878353492E-004
   3.8400000000000004E-002     3.0172141487048543E-004
   3.8699999999999998E-002     4.5599176692792410E-004
   3.9000000000000007E-002     6.6817783874222058E-004
   3.9300000000000002E-002     9.6647766190470876E-004
   3.9600000000000003E-002     1.3927487722152703E-003
   3.9900000000000005E-002     1.9845210241228460E-003
   4.0200000000000000E-002     2.7691840323816239E-003
   4.0500000000000001E-002     3.7931350067195355E-003
   4.0800000000000003E-002     5.1160947731975909E-003
   4.1100000000000005E-002     6.7742056321156482E-003
   4.1399999999999999E-002     8.7867322240510835E-003
   4.1700000000000008E-002     1.1156874573144539E-002
   4.2000000000000003E-002     1.3846818189068293E-002
   4.2299999999999997E-002     1.6777518932132428E-002
   4.2600000000000006E-002     1.9806656744808603E-002
   4.2900000000000001E-002     2.2678859254936814E-002
   4.3200000000000002E-002     2.5010972909334794E-002
   4.3500000000000004E-002     2.6307601159843080E-002
   4.3799999999999999E-002     2.5986764262323742E-002
   4.4100000000000000E-002     2.3373892245513287E-002
   4.4400000000000002E-002     1.7680389591320646E-002
   4.4700000000000004E-002     8.0872335432613136E-003
   4.4999999999999998E-002    -6.1097363149725378E-003
   4.5300000000000000E-002    -2.5439755671844987E-002
   4.5600000000000002E-002    -5.0162858634709075E-002
   4.5899999999999996E-002    -8.0083011582835276E-002
   4.6200000000000005E-002   -0.11440893120067085     
   4.6500000000000000E-002   -0.15171134282823623     
   4.6799999999999994E-002   -0.18982603909338847     
   4.7100000000000003E-002   -0.22579437212687833     
   4.7399999999999998E-002   -0.25601288356921487     
   4.7700000000000006E-002   -0.27640810264019383     
   4.8000000000000001E-002   -0.28266259675250732     
   4.8300000000000010E-002   -0.27063166757932616     
   4.8600000000000004E-002   -0.23681792322483472     
   4.8899999999999999E-002   -0.17880011874018573     
   4.9200000000000008E-002    -9.5687336061793471E-002
   4.9500000000000002E-002     1.1475506970786788E-002
   4.9800000000000011E-002    0.13939675506583410     
   5.0100000000000006E-002    0.28258561724219428     
   5.0400000000000000E-002    0.43345602791481969     
   5.0700000000000009E-002    0.58267020434344485     
   5.1000000000000004E-002    0.71987288271015837     
   5.1299999999999998E-002    0.83445166476709409     
   5.1600000000000007E-002    0.91644035601504970     
   5.1900000000000002E-002    0.95754240723994211     
   5.2200000000000010E-002    0.95193951111789021     
   5.2500000000000005E-002    0.89701901728627598     
   5.2800000000000000E-002    0.79376684616361204     
   5.3099999999999994E-002    0.64683353089366868     
   5.3400000000000003E-002    0.46426620505528871     
   5.3699999999999998E-002    0.25679221445232497     
   5.4000000000000006E-002     3.7037111627683916E-002
   5.4300000000000001E-002   -0.18161985013583440     
   5.4599999999999996E-002   -0.38627531594933262     
   5.4900000000000004E-002   -0.56564085914398043     
   5.5199999999999999E-002   -0.71096937901367740     
   5.5499999999999994E-002   -0.81667380445458548     
   5.5800000000000002E-002   -0.88071792161737172     
   5.6099999999999997E-002   -0.90458809150354902     
   5.6400000000000006E-002   -0.89304660595909924     
   5.6700000000000000E-002   -0.85340707401788429     
   5.6999999999999995E-002   -0.79470216224728474     
   5.7300000000000004E-002   -0.72667717032572166     
   5.7599999999999998E-002   -0.65890698824991301     
   5.7900000000000007E-002   -0.59977030042084267     
   5.8200000000000002E-002   -0.55577259611069807     
   5.8499999999999996E-002   -0.53097766033374538     
   5.8800000000000005E-002   -0.52647464873543215     
   5.9100000000000000E-002   -0.54036717995462058     
   5.9400000000000008E-002   -0.56808137242260726     
   5.9700000000000003E-002   -0.60253953229673296     
   6.0000000000000012E-002   -0.63462655978772187     
   6.0300000000000006E-002   -0.65399145282456539     
   6.0600000000000001E-002   -0.65013962172887407     
   6.0900000000000010E-002   -0.61300241163369418     
   6.1200000000000004E-002   -0.53402309906469403     
   6.1500000000000013E-002   -0.40718030367862690     
   6.1800000000000008E-002   -0.22956877594965985     
   6.2100000000000002E-002    -2.1723920371933109E-003
   6.2399999999999997E-002    0.26992186643048544     
   6.2700000000000006E-002    0.57746183225811110     
   6.3000000000000000E-002    0.90736447700745460     
   6.3300000000000009E-002     1.2431471198339801     
   6.3600000000000004E-002     1.5663786935175859     
   6.3899999999999998E-002     1.8575975665270337     
   6.4199999999999993E-002     2.0975167489781210     
   6.4500000000000002E-002     2.2690248204451144     
   6.4800000000000010E-002     2.3576838672346248     
   6.5100000000000005E-002     2.3532328306636976     
   6.5400000000000000E-002     2.2506744573872801     
   6.5700000000000008E-002     2.0501734946528538     
   6.5999999999999989E-002     1.7571173678479945     
   6.6299999999999998E-002     1.3821713743291553     
   6.6600000000000006E-002    0.93998645480007104     
   6.6900000000000001E-002    0.44866704304559940     
   6.7199999999999996E-002    -7.1311890845555850E-002
   6.7500000000000004E-002   -0.59851425189705088     
   6.7800000000000013E-002    -1.1114864214052913     
   6.8099999999999994E-002    -1.5897872251427767     
   6.8400000000000002E-002    -2.0146422134892652     
   6.8700000000000011E-002    -2.3698322475581937     
   6.8999999999999992E-002    -2.6421215201185331     
   6.9300000000000000E-002    -2.8216759801994660     
   6.9600000000000009E-002    -2.9020869364721857     
   6.9900000000000004E-002    -2.8805753819914317     
   7.0199999999999999E-002    -2.7580058225050204     
   7.0500000000000007E-002    -2.5392255461076423     
   7.0800000000000016E-002    -2.2325136378776684     
   7.1099999999999997E-002    -1.8494460349277766     
   7.1400000000000005E-002    -1.4044641080007763     
   7.1700000000000000E-002   -0.91484879311626055     
   7.1999999999999995E-002   -0.39952611444838776     
   7.2300000000000003E-002    0.12134837918225098     
   7.2600000000000012E-002    0.62716405753697824     
   7.2900000000000006E-002     1.0982760048056304     
   7.3200000000000001E-002     1.5163037581391157     
   7.3499999999999996E-002     1.8652297019483397     
   7.3800000000000004E-002     2.1322211948099690     
   7.4099999999999999E-002     2.3080117410751906     
   7.4400000000000008E-002     2.3868963418545239     
   7.4700000000000003E-002     2.3679217996398938     
   7.5000000000000011E-002     2.2540251928861577     
   7.5299999999999992E-002     2.0523528800024904     
   7.5600000000000001E-002     1.7734174512436898     
   7.5900000000000009E-002     1.4313961095619823     
   7.6200000000000004E-002     1.0430207129701305     
   7.6499999999999999E-002    0.62719266900107307     
   7.6800000000000007E-002    0.20493711348248037     
   7.7099999999999988E-002   -0.20312601005145700     
   7.7399999999999997E-002   -0.57597088036109034     
   7.7700000000000005E-002   -0.89405285148844349     
   7.8000000000000014E-002    -1.1403944346371699     
   7.8299999999999995E-002    -1.3011538817416852     
   7.8600000000000003E-002    -1.3675443953683541     
   7.8900000000000012E-002    -1.3357689212890351     
   7.9199999999999993E-002    -1.2080685940857105     
   7.9500000000000001E-002   -0.99254761878293651     
   7.9800000000000010E-002   -0.70372872652328189     
   8.0100000000000018E-002   -0.36097540985295973     
   8.0399999999999999E-002     1.2582933525820345E-002
   8.0700000000000008E-002    0.39120935920722333     
   8.1000000000000003E-002    0.74847083368801204     
   8.1299999999999997E-002     1.0597356427500937     
   8.1600000000000006E-002     1.3030032950087640     
   8.1900000000000014E-002     1.4617718275444000     
   8.2199999999999995E-002     1.5260609196233530     
   8.2500000000000004E-002     1.4922772457046283     
   8.2799999999999999E-002     1.3642322843206207     
   8.3100000000000007E-002     1.1523066610050765     
   8.3400000000000002E-002    0.87249635490691746     
   8.3700000000000011E-002    0.54544990488693523     
   8.4000000000000005E-002    0.19404141268953776     
   8.4300000000000000E-002   -0.15870804986639794     
   8.4599999999999995E-002   -0.49076285453863294     
   8.4900000000000003E-002   -0.78292464347876045     
   8.5199999999999998E-002    -1.0203724984439468     
   8.5500000000000007E-002    -1.1931516987667059     
   8.5800000000000001E-002    -1.2969080060285252     
   8.6100000000000010E-002    -1.3324833954186388     
   8.6399999999999991E-002    -1.3054222909235120     
   8.6699999999999999E-002    -1.2253912544923711     
   8.7000000000000008E-002    -1.1047162880913604     
   8.7300000000000003E-002   -0.95726304123280637     
   8.7599999999999997E-002   -0.79753850938209292     
   8.7900000000000006E-002   -0.63923054142429370     
   8.8200000000000014E-002   -0.49418561999755606     
   8.8499999999999995E-002   -0.37254565411550161     
   8.8800000000000004E-002   -0.28098961237704734     
   8.9100000000000013E-002   -0.22348111418037125     
   8.9399999999999993E-002   -0.20094602832579711     
   8.9700000000000002E-002   -0.21184326189429611     
   9.0000000000000011E-002   -0.25226649044030397     
   9.0299999999999991E-002   -0.31625055574179634     
   9.0600000000000000E-002   -0.39725776709119243     
   9.0900000000000009E-002   -0.48764093811715620     
   9.1200000000000017E-002   -0.58011816947847583     
   9.1499999999999998E-002   -0.66809492253897662     
   9.1800000000000007E-002   -0.74536185367191243     
   9.2100000000000001E-002   -0.80724852177205886     
   9.2399999999999996E-002   -0.85040574184830398     
   9.2700000000000005E-002   -0.87235104008822617     
   9.3000000000000013E-002   -0.87233697415960498     
   9.3300000000000008E-002   -0.84930347537746798     
   9.3600000000000003E-002   -0.80313705651001455     
   9.3899999999999997E-002   -0.73454415173142140     
   9.4200000000000006E-002   -0.64223199596785652     
   9.4500000000000001E-002   -0.52563529865416292     
   9.4800000000000009E-002   -0.38267472201031993     
   9.5100000000000004E-002   -0.21110655347895041     
   9.5399999999999999E-002    -8.5295585854551943E-003
   9.5699999999999993E-002    0.22734638663881188     
   9.6000000000000002E-002    0.49781295021951938     
   9.6300000000000011E-002    0.80211334498501574     
   9.6600000000000005E-002     1.1366970414469713     
   9.6900000000000000E-002     1.4949513512599801     
   9.7200000000000009E-002     1.8654279507841560     
   9.7499999999999989E-002     2.2334928269649721     
   9.7799999999999998E-002     2.5804247571700549     
   9.8100000000000007E-002     2.8847367440029994     
   9.8400000000000015E-002     3.1227683664207255     
   9.8699999999999996E-002     3.2720071887502198     
   9.9000000000000005E-002     3.3111457429320521     
   9.9300000000000013E-002     3.2236845098789391     
   9.9599999999999994E-002     2.9988007168185802     
   9.9900000000000003E-002     2.6335668221294561     
  0.10020000000000001          2.1338145442064906     
  0.10049999999999999          1.5139858500540417     
  0.10080000000000000         0.79803358111741629     
  0.10110000000000001          1.6055024266873059E-002
  0.10140000000000000        -0.79455303615510986     
  0.10170000000000000         -1.5944523657838197     
  0.10200000000000001         -2.3422136056874079     
  0.10230000000000002         -2.9983446261019435     
  0.10260000000000000         -3.5279967374373844     
  0.10290000000000001         -3.9012612831549967     
  0.10320000000000000         -4.0970024564651570     
  0.10350000000000001         -4.1013454884405354     
  0.10380000000000000         -3.9100412831734714     
  0.10410000000000001         -3.5274602916218862     
  0.10440000000000001         -2.9659506887434297     
  0.10470000000000000         -2.2459239656846526     
  0.10500000000000000         -1.3929972448417571     
  0.10530000000000000        -0.43938492884036046     
  0.10560000000000000         0.58000230387568474     
  0.10590000000000001          1.6259822676799605     
  0.10620000000000000          2.6578797996873615     
  0.10650000000000001          3.6345297870257709     
  0.10679999999999999          4.5151113931768743     
  0.10710000000000000          5.2608885137434651     
  0.10740000000000001          5.8363270056159395     
  0.10770000000000000          6.2102336127935223     
  0.10800000000000000          6.3594211750288165     
  0.10830000000000001          6.2677745040278623     
  0.10859999999999999          5.9297250955607979     
  0.10890000000000000          5.3499893459663106     
  0.10920000000000001          4.5447520618635266     
  0.10950000000000001          3.5416924478977156     
  0.10979999999999999          2.3788520953295245     
  0.11009999999999999          1.1043903645160094     
  0.11040000000000001        -0.22699867370450633     
  0.11070000000000001         -1.5560592263550048     
  0.11100000000000000         -2.8220092938335593     
  0.11130000000000000         -3.9669107928506726     
  0.11160000000000002         -4.9378551843445102     
  0.11190000000000001         -5.6914967791275801     
  0.11220000000000001         -6.1961836040057952     
  0.11250000000000000         -6.4345044272194496     
  0.11280000000000000         -6.4051341184566306     
  0.11309999999999999         -6.1225718651850398     
  0.11340000000000001         -5.6179680082100090     
  0.11369999999999998         -4.9352616605730457     
  0.11400000000000000         -4.1301454943006082     
  0.11430000000000000         -3.2670764481573134     
  0.11460000000000002         -2.4131588610960812     
  0.11489999999999999         -1.6365648293305151     
  0.11520000000000001        -0.99730162620939045     
  0.11550000000000001        -0.54584127186467124     
  0.11580000000000000        -0.31745046313173958     
  0.11609999999999999        -0.32976293585241145     
  0.11640000000000002        -0.57999586845700701     
  0.11670000000000001         -1.0441772862197549     
  0.11700000000000001         -1.6769505582798001     
  0.11730000000000000         -2.4157619220015438     
  0.11760000000000000         -3.1841728323181568     
  0.11789999999999999         -3.8974077233864315     
  0.11820000000000001         -4.4674620073396847     
  0.11850000000000001         -4.8111390451851443     
  0.11880000000000000         -4.8571132974451512     
  0.11910000000000000         -4.5516785958457184     
  0.11940000000000002         -3.8651892595339055     
  0.11970000000000001         -2.7945839940716697     
  0.12000000000000001         -1.3654012436526601     
  0.12030000000000000         0.36665463718277458     
  0.12060000000000000          2.3205714004384639     
  0.12089999999999999          4.3924245344165325     
  0.12119999999999999          6.4640397263550371     
  0.12150000000000001          8.4095086031196793     
  0.12180000000000001          10.103510731876019     
  0.12210000000000000          11.431348657567524     
  0.12239999999999999          12.296214901756834     
  0.12270000000000002          12.627947645989885     
  0.12300000000000001          12.386794884430959     
  0.12330000000000001          11.567469446733083     
  0.12360000000000000          10.200201854662325     
  0.12390000000000000          8.3483513680515475     
  0.12419999999999999          6.1058649194829222     
  0.12450000000000001          3.5908939339523731     
  0.12480000000000001         0.93584553849057328     
  0.12509999999999999         -1.7183110520700433     
  0.12540000000000001         -4.2316431474399421     
  0.12570000000000003         -6.4746555457788890     
  0.12600000000000000         -8.3351506109522937     
  0.12630000000000002         -9.7261599223808908     
  0.12659999999999999         -10.588813642379019     
  0.12690000000000001         -10.896120880785844     
  0.12719999999999998         -10.651929713442923     
  0.12750000000000000         -9.8917196853961080     
  0.12780000000000002         -8.6786726732449075     
  0.12809999999999999         -7.0993293750305995     
  0.12840000000000001         -5.2576770063054852     
  0.12869999999999998         -3.2671372439228770     
  0.12900000000000000         -1.2469057858350501     
  0.12930000000000003         0.68615692009960227     
  0.12959999999999999          2.4229135188794975     
  0.12990000000000002          3.8701908059782024     
  0.13019999999999998          4.9538602145824555     
  0.13050000000000000          5.6240600759385666     
  0.13080000000000003          5.8545159477607038     
  0.13109999999999999          5.6477245490613326     
  0.13140000000000002          5.0335020302371678     
  0.13169999999999998          4.0686420803997709     
  0.13200000000000001          2.8333072238511194     
  0.13229999999999997          1.4236737258048369     
  0.13260000000000000         -4.9407671540649511E-002
  0.13290000000000002         -1.4712529020570679     
  0.13319999999999999         -2.7283930445597555     
  0.13350000000000001         -3.7186967857156921     
  0.13380000000000003         -4.3593787588421655     
  0.13410000000000000         -4.5947074298840773     
  0.13440000000000002         -4.4005999001150489     
  0.13469999999999999         -3.7870125291705650     
  0.13500000000000001         -2.8008074416927298     
  0.13529999999999998         -1.5217071603539662     
  0.13560000000000000         -5.7962696519725312E-002
  0.13590000000000002          1.4646794555288654     
  0.13619999999999999          2.9122602503477890     
  0.13650000000000001          4.1565460558323934     
  0.13680000000000003          5.0857824561170188     
  0.13710000000000000          5.6187943634435671     
  0.13740000000000002          5.7138604343304671     
  0.13769999999999999          5.3737200984172508     
  0.13800000000000001          4.6493348493157853     
  0.13829999999999998          3.6336943687519354     
  0.13860000000000000          2.4559092292574323     
  0.13890000000000002          1.2663184360441728     
  0.13919999999999999         0.22489268753534489     
  0.13950000000000001        -0.52107313942915989     
  0.13979999999999998        -0.85279843386795373     
  0.14010000000000000        -0.69431081891429214     
  0.14040000000000002         -2.5611245223480197E-002
  0.14069999999999999          1.1138653707119737     
  0.14100000000000001          2.6217639155170556     
  0.14130000000000004          4.3400959399993324     
  0.14160000000000000          6.0684093577054963     
  0.14189999999999997          7.5822843398719453     
  0.14219999999999999          8.6552456513695528     
  0.14250000000000002          9.0812395618057398     
  0.14279999999999998          8.6961668570090520     
  0.14310000000000000          7.3985322725143403     
  0.14339999999999997          5.1654833878251880     
  0.14369999999999999          2.0609020763833064     
  0.14400000000000002         -1.7666491133524138     
  0.14429999999999998         -6.0894197643331376     
  0.14460000000000001         -10.618849609763000     
  0.14490000000000003         -15.023539333186948     
  0.14520000000000000         -18.957107275211861     
  0.14550000000000002         -22.088533085598687     
  0.14579999999999999         -24.130694995979773     
  0.14610000000000001         -24.864509223763537     
  0.14640000000000003         -24.160857805111849     
  0.14670000000000000         -21.992597261990166     
  0.14699999999999996         -18.441692085870002     
  0.14729999999999999         -13.692951959018421     
  0.14760000000000001         -8.0240153125902491     
  0.14789999999999998         -1.7824463619166053     
  0.14820000000000000          4.6385039566922011     