  -1.4999999999999999E-002     0.0000000000000000     
  -1.4700000000000000E-002     0.0000000000000000     
  -1.4400000000000000E-002     0.0000000000000000     
  -1.4100000000000000E-002     0.0000000000000000     
  -1.3800000000000000E-002     0.0000000000000000     
  -1.3500000000000000E-002     0.0000000000000000     
  -1.3200000000000000E-002     0.0000000000000000     
  -1.2899999999999998E-002     0.0000000000000000     
  -1.2600000000000000E-002     0.0000000000000000     
  -1.2299999999999998E-002     0.0000000000000000     
  -1.2000000000000000E-002     0.0000000000000000     
  -1.1699999999999999E-002     0.0000000000000000     
  -1.1399999999999999E-002     0.0000000000000000     
  -1.1099999999999999E-002     0.0000000000000000     
  -1.0799999999999999E-002     0.0000000000000000     
  -1.0499999999999999E-002     0.0000000000000000     
  -1.0199999999999999E-002     0.0000000000000000     
  -9.8999999999999991E-003     0.0000000000000000     
  -9.5999999999999992E-003     0.0000000000000000     
  -9.2999999999999992E-003     0.0000000000000000     
  -8.9999999999999993E-003     0.0000000000000000     
  -8.6999999999999994E-003     0.0000000000000000     
  -8.3999999999999995E-003     0.0000000000000000     
  -8.0999999999999996E-003     0.0000000000000000     
  -7.7999999999999988E-003     0.0000000000000000     
  -7.4999999999999997E-003     0.0000000000000000     
  -7.1999999999999998E-003     0.0000000000000000     
  -6.8999999999999981E-003     0.0000000000000000     
  -6.5999999999999982E-003     0.0000000000000000     
  -6.3000000000000000E-003     0.0000000000000000     
  -6.0000000000000001E-003     0.0000000000000000     
  -5.6999999999999985E-003     0.0000000000000000     
  -5.3999999999999986E-003     0.0000000000000000     
  -5.1000000000000004E-003     0.0000000000000000     
  -4.7999999999999987E-003     0.0000000000000000     
  -4.5000000000000005E-003     0.0000000000000000     
  -4.1999999999999989E-003     0.0000000000000000     
  -3.8999999999999990E-003     0.0000000000000000     
  -3.5999999999999990E-003     0.0000000000000000     
  -3.2999999999999991E-003     0.0000000000000000     
  -2.9999999999999992E-003     0.0000000000000000     
  -2.6999999999999993E-003     0.0000000000000000     
  -2.3999999999999994E-003     0.0000000000000000     
  -2.0999999999999977E-003     0.0000000000000000     
  -1.7999999999999995E-003     0.0000000000000000     
  -1.4999999999999979E-003     0.0000000000000000     
  -1.1999999999999997E-003     0.0000000000000000     
  -8.9999999999999976E-004     0.0000000000000000     
  -5.9999999999999810E-004     0.0000000000000000     
  -2.9999999999999992E-004     0.0000000000000000     
   0.0000000000000000          0.0000000000000000     
   3.0000000000000165E-004     0.0000000000000000     
   5.9999999999999984E-004     0.0000000000000000     
   9.0000000000000149E-004     0.0000000000000000     
   1.2000000000000031E-003     0.0000000000000000     
   1.5000000000000013E-003     0.0000000000000000     
   1.8000000000000030E-003     0.0000000000000000     
   2.1000000000000012E-003     0.0000000000000000     
   2.3999999999999994E-003     0.0000000000000000     
   2.7000000000000010E-003     0.0000000000000000     
   2.9999999999999992E-003     0.0000000000000000     
   3.3000000000000008E-003     0.0000000000000000     
   3.6000000000000025E-003     0.0000000000000000     
   3.9000000000000007E-003     0.0000000000000000     
   4.2000000000000023E-003     0.0000000000000000     
   4.5000000000000005E-003     0.0000000000000000     
   4.7999999999999987E-003     0.0000000000000000     
   5.1000000000000004E-003     0.0000000000000000     
   5.4000000000000020E-003     0.0000000000000000     
   5.7000000000000037E-003     0.0000000000000000     
   5.9999999999999984E-003     0.0000000000000000     
   6.3000000000000000E-003     0.0000000000000000     
   6.6000000000000017E-003     0.0000000000000000     
   6.9000000000000034E-003     0.0000000000000000     
   7.2000000000000015E-003     0.0000000000000000     
   7.5000000000000032E-003     0.0000000000000000     
   7.8000000000000014E-003     0.0000000000000000     
   8.0999999999999996E-003     0.0000000000000000     
   8.4000000000000012E-003     0.0000000000000000     
   8.7000000000000029E-003     0.0000000000000000     
   9.0000000000000011E-003     0.0000000000000000     
   9.2999999999999992E-003     0.0000000000000000     
   9.6000000000000009E-003     0.0000000000000000     
   9.8999999999999991E-003     0.0000000000000000     
   1.0200000000000001E-002     0.0000000000000000     
   1.0500000000000002E-002     0.0000000000000000     
   1.0800000000000004E-002     0.0000000000000000     
   1.1099999999999999E-002     0.0000000000000000     
   1.1400000000000000E-002     0.0000000000000000     
   1.1700000000000002E-002     0.0000000000000000     
   1.2000000000000004E-002     0.0000000000000000     
   1.2300000000000002E-002     0.0000000000000000     
   1.2600000000000000E-002     0.0000000000000000     
   1.2900000000000002E-002     0.0000000000000000     
   1.3200000000000000E-002     0.0000000000000000     
   1.3500000000000002E-002     0.0000000000000000     
   1.3800000000000003E-002     0.0000000000000000     
   1.4100000000000001E-002     0.0000000000000000     
   1.4400000000000000E-002     0.0000000000000000     
   1.4700000000000001E-002     0.0000000000000000     
   1.4999999999999999E-002     0.0000000000000000     
   1.5300000000000001E-002     0.0000000000000000     
   1.5600000000000003E-002     0.0000000000000000     
   1.5899999999999997E-002     0.0000000000000000     
   1.6199999999999999E-002     0.0000000000000000     
   1.6500000000000001E-002     0.0000000000000000     
   1.6800000000000002E-002     0.0000000000000000     
   1.7100000000000004E-002     0.0000000000000000     
   1.7400000000000006E-002     0.0000000000000000     
   1.7700000000000000E-002     0.0000000000000000     
   1.8000000000000002E-002     0.0000000000000000     
   1.8300000000000004E-002     0.0000000000000000     
   1.8600000000000005E-002     0.0000000000000000     
   1.8900000000000000E-002     0.0000000000000000     
   1.9200000000000002E-002     0.0000000000000000     
   1.9500000000000003E-002     0.0000000000000000     
   1.9799999999999998E-002     0.0000000000000000     
   2.0100000000000000E-002     0.0000000000000000     
   2.0400000000000001E-002     0.0000000000000000     
   2.0700000000000003E-002     0.0000000000000000     
   2.0999999999999998E-002     0.0000000000000000     
   2.1299999999999999E-002     0.0000000000000000     
   2.1600000000000001E-002     0.0000000000000000     
   2.1900000000000003E-002     0.0000000000000000     
   2.2200000000000004E-002     0.0000000000000000     
   2.2500000000000006E-002     0.0000000000000000     
   2.2800000000000001E-002     0.0000000000000000     
   2.3100000000000002E-002     0.0000000000000000     
   2.3400000000000004E-002     0.0000000000000000     
   2.3699999999999999E-002     0.0000000000000000     
   2.4000000000000000E-002     0.0000000000000000     
   2.4300000000000002E-002     0.0000000000000000     
   2.4599999999999997E-002     0.0000000000000000     
   2.4900000000000005E-002     0.0000000000000000     
   2.5200000000000000E-002     0.0000000000000000     
   2.5499999999999995E-002     0.0000000000000000     
   2.5800000000000003E-002     0.0000000000000000     
   2.6099999999999998E-002     0.0000000000000000     
   2.6400000000000007E-002     0.0000000000000000     
   2.6700000000000002E-002     0.0000000000000000     
   2.6999999999999996E-002     0.0000000000000000     
   2.7300000000000005E-002     0.0000000000000000     
   2.7600000000000000E-002     0.0000000000000000     
   2.7900000000000008E-002     0.0000000000000000     
   2.8200000000000003E-002     0.0000000000000000     
   2.8499999999999998E-002     0.0000000000000000     
   2.8800000000000006E-002     0.0000000000000000     
   2.9100000000000001E-002     0.0000000000000000     
   2.9400000000000003E-002     0.0000000000000000     
   2.9700000000000004E-002     0.0000000000000000     
   3.0000000000000006E-002     0.0000000000000000     
   3.0300000000000001E-002     0.0000000000000000     
   3.0600000000000002E-002     0.0000000000000000     
   3.0900000000000004E-002     0.0000000000000000     
   3.1199999999999999E-002     0.0000000000000000     
   3.1500000000000007E-002     0.0000000000000000     
   3.1800000000000002E-002     0.0000000000000000     
   3.2099999999999997E-002     0.0000000000000000     
   3.2400000000000005E-002     0.0000000000000000     
   3.2700000000000000E-002     0.0000000000000000     
   3.3000000000000002E-002     0.0000000000000000     
   3.3300000000000003E-002     0.0000000000000000     
   3.3599999999999998E-002     0.0000000000000000     
   3.3900000000000000E-002     0.0000000000000000     
   3.4200000000000001E-002     0.0000000000000000     
   3.4500000000000003E-002     0.0000000000000000     
   3.4799999999999998E-002     0.0000000000000000     
   3.5099999999999999E-002     0.0000000000000000     
   3.5400000000000001E-002     0.0000000000000000     
   3.5699999999999996E-002     0.0000000000000000     
   3.6000000000000004E-002     0.0000000000000000     
   3.6299999999999999E-002     0.0000000000000000     
   3.6600000000000008E-002     0.0000000000000000     
   3.6900000000000002E-002     0.0000000000000000     
   3.7199999999999997E-002     0.0000000000000000     
   3.7500000000000006E-002     0.0000000000000000     
   3.7800000000000000E-002     0.0000000000000000     
   3.8100000000000009E-002     6.3592908389578594E-045
   3.8400000000000004E-002    -2.3540816828652598E-043
   3.8699999999999998E-002    -1.1017372188948004E-036
   3.9000000000000007E-002    -2.8715690515109983E-035
   3.9300000000000002E-002     1.5934497365294345E-034
   3.9600000000000003E-002    -5.1904381910697443E-034
   3.9900000000000005E-002     1.0384370888350819E-033
   4.0200000000000000E-002    -4.5444064679780353E-033
   4.0500000000000001E-002     1.4686409775961221E-032
   4.0800000000000003E-002    -3.2340082040160811E-032
   4.1100000000000005E-002     4.4377580895394662E-032
   4.1399999999999999E-002     2.1683506149964451E-032
   4.1700000000000008E-002    -3.6120310338256662E-031
   4.2000000000000003E-002     1.2904700303224238E-030
   4.2299999999999997E-002    -2.7243650153616357E-030
   4.2600000000000006E-002     1.8508063215033207E-030
   4.2900000000000001E-002     1.3288592520112765E-029
   4.3200000000000002E-002    -7.5484154410939098E-029
   4.3500000000000004E-002     2.4515414094647316E-028
   4.3799999999999999E-002    -5.6392844040841144E-028
   4.4100000000000000E-002     8.2547526018435860E-028
   4.4400000000000002E-002     5.3602069835098678E-029
   4.4700000000000004E-002    -5.1463639798188195E-027
   4.4999999999999998E-002     2.0219859465692936E-026
   4.5300000000000000E-002    -5.0347883964298695E-026
   4.5600000000000002E-002     8.4000530539495835E-026
   4.5899999999999996E-002    -5.3911877282251429E-026
   4.6200000000000005E-002    -2.2049133442928946E-025
   4.6500000000000000E-002     1.0434655159700506E-024
   4.6799999999999994E-002    -2.6199830400743157E-024
   4.7100000000000003E-002     4.3204803293561853E-024
   4.7399999999999998E-002    -3.4350677374211194E-024
   4.7700000000000006E-002    -5.2254634586662117E-024
   4.8000000000000001E-002     2.4325823616729562E-023
   4.8300000000000010E-002    -3.3945601800563399E-023
   4.8600000000000004E-002    -6.0191813474804074E-023
   4.8899999999999999E-002     5.4557312542561246E-022
   4.9200000000000008E-002    -2.2105511167912028E-021
   4.9500000000000002E-002     7.3040302831590864E-021
   4.9800000000000011E-002    -2.2679297881470168E-020
   5.0100000000000006E-002     6.9476606472740277E-020
   5.0400000000000000E-002    -2.1046571460799028E-019
   5.0700000000000009E-002     6.2109900243334442E-019
   5.1000000000000004E-002    -1.7539407967337425E-018
   5.1299999999999998E-002     4.6168283929711371E-018
   5.1600000000000007E-002    -1.0673571066600591E-017
   5.1900000000000002E-002     1.7936762257388509E-017
   5.2200000000000010E-002     2.2647112712897799E-018
   5.2500000000000005E-002    -2.0229409335555535E-016
   5.2800000000000000E-002     1.1783595708769900E-015
   5.3099999999999994E-002    -4.7919483926101463E-015
   5.3400000000000003E-002     1.5512050737327486E-014
   5.3699999999999998E-002    -3.9631748942426790E-014
   5.4000000000000006E-002     6.8445698041932646E-014
   5.4300000000000001E-002    -8.8299879656031517E-016
   5.4599999999999996E-002    -5.7855109710574716E-013
   5.4900000000000004E-002     2.7420513496175299E-012
   5.5199999999999999E-002    -7.7784091291803395E-012
   5.5499999999999994E-002     1.2228577795884532E-011
   5.5800000000000002E-002     9.0915178460059196E-012
   5.6099999999999997E-002    -1.2820747923913961E-010
   5.6400000000000006E-002     4.1466605524300439E-010
   5.6700000000000000E-002    -5.4560707762528085E-010
   5.6999999999999995E-002    -1.1004109499591505E-009
   5.7300000000000004E-002     7.0785735674156184E-009
   5.7599999999999998E-002    -1.2311535670414035E-008
   5.7900000000000007E-002    -1.5746553504656269E-008
   5.8200000000000002E-002     1.0992528316268534E-007
   5.8499999999999996E-002    -1.1309506252385391E-007
   5.8800000000000005E-002    -5.5195807241252275E-007
   5.9100000000000000E-002     1.5482376866381840E-006
   5.9400000000000008E-002     6.6855149750624928E-006
   5.9700000000000003E-002     9.5038158363254798E-006
   6.0000000000000012E-002     8.7416099577681029E-006
   6.0300000000000006E-002     1.0504103346135585E-005
   6.0600000000000001E-002     1.6510702932652945E-005
   6.0900000000000010E-002     2.4501390419974465E-005
   6.1200000000000004E-002     3.6885077324455314E-005
   6.1500000000000013E-002     5.6938060147088457E-005
   6.1800000000000008E-002     8.4190948548060917E-005
   6.2100000000000002E-002     1.1869214207344518E-004
   6.2399999999999997E-002     1.6506935716446253E-004
   6.2700000000000006E-002     2.2810743832871647E-004
   6.3000000000000000E-002     3.0738679538505230E-004
   6.3300000000000009E-002     4.0150497295170196E-004
   6.3600000000000004E-002     5.1053950388253158E-004
   6.3899999999999998E-002     6.3240544775096472E-004
   6.4199999999999993E-002     7.6083378136564291E-004
   6.4500000000000002E-002     8.8145524555139113E-004
   6.4800000000000010E-002     9.6964159711927377E-004
   6.5100000000000005E-002     9.9209729765500692E-004
   6.5400000000000000E-002     9.0629030073260627E-004
   6.5700000000000008E-002     6.5860506517306989E-004
   6.5999999999999989E-002     1.7878966035673053E-004
   6.6299999999999998E-002    -6.1808211301379499E-004
   6.6600000000000006E-002    -1.8136249617229647E-003
   6.6900000000000001E-002    -3.4814136585050279E-003
   6.7199999999999996E-002    -5.6931487486968939E-003
   6.7500000000000004E-002    -8.4998988397846469E-003
   6.7800000000000013E-002    -1.1906710302822532E-002
   6.8099999999999994E-002    -1.5860909396446982E-002
   6.8400000000000002E-002    -2.0234828561396016E-002
   6.8700000000000011E-002    -2.4807108256975068E-002
   6.8999999999999992E-002    -2.9259331160837867E-002
   6.9300000000000000E-002    -3.3182680195849308E-002
   6.9600000000000009E-002    -3.6084755810770558E-002
   6.9900000000000004E-002    -3.7406231750262788E-002
   7.0199999999999999E-002    -3.6562885644228396E-002
   7.0500000000000007E-002    -3.3003490019558018E-002
   7.0800000000000016E-002    -2.6271337331617083E-002
   7.1099999999999997E-002    -1.6072548743766239E-002
   7.1400000000000005E-002    -2.3437626541340526E-003
   7.1700000000000000E-002     1.4687481137076734E-002
   7.1999999999999995E-002     3.4462343456962537E-002
   7.2300000000000003E-002     5.6081875450110966E-002
   7.2600000000000012E-002     7.8329144929863509E-002
   7.2900000000000006E-002     9.9720566226173285E-002
   7.3200000000000001E-002    0.11860802623093966     
   7.3499999999999996E-002    0.13331575527865558     
   7.3800000000000004E-002    0.14228887681800512     
   7.4099999999999999E-002    0.14425536814124154     
   7.4400000000000008E-002    0.13838861714597686     
   7.4700000000000003E-002    0.12445216475465710     
   7.5000000000000011E-002    0.10289438690012635     
   7.5299999999999992E-002     7.4872053265154101E-002
   7.5600000000000001E-002     4.2221270007451635E-002
   7.5900000000000009E-002     7.3673025915230164E-003
   7.6200000000000004E-002    -2.6856202293130599E-002
   7.6499999999999999E-002    -5.7439579851769423E-002
   7.6800000000000007E-002    -8.1453173354312833E-002
   7.7099999999999988E-002    -9.6342882831272986E-002
   7.7399999999999997E-002   -0.10021332529675148     
   7.7700000000000005E-002    -9.2058426509740485E-002
   7.8000000000000014E-002    -7.1923076222375676E-002
   7.8299999999999995E-002    -4.1005838145997946E-002
   7.8600000000000003E-002    -1.6369767871984920E-003
   7.8900000000000012E-002     4.2868595108567047E-002
   7.9199999999999993E-002     8.8457359870274088E-002
   7.9500000000000001E-002    0.13063229472532867     
   7.9800000000000010E-002    0.16483774594596454     
   8.0100000000000018E-002    0.18695588198685914     
   8.0399999999999999E-002    0.19369131108787607     
   8.0700000000000008E-002    0.18288884853018678     
   8.1000000000000003E-002    0.15386973152427955     
   8.1299999999999997E-002    0.10756443326531080     
   8.1600000000000006E-002     4.6467400653479062E-002
   8.1900000000000014E-002    -2.5456349899250490E-002
   8.2199999999999995E-002   -0.10308428725012440     
   8.2500000000000004E-002   -0.18059158108833262     
   8.2799999999999999E-002   -0.25197961629615845     
   8.3100000000000007E-002   -0.31152602667171764     
   8.3400000000000002E-002   -0.35436707326067407     
   8.3700000000000011E-002   -0.37703528569282169     
   8.4000000000000005E-002   -0.37765669394314305     
   8.4300000000000000E-002   -0.35615121917753295     
   8.4599999999999995E-002   -0.31432550796872211     
   8.4900000000000003E-002   -0.25564914664084026     
   8.5199999999999998E-002   -0.18489534957987697     
   8.5500000000000007E-002   -0.10781469835641974     
   8.5800000000000001E-002    -3.0590381319524591E-002
   8.6100000000000010E-002     4.0779981098119825E-002
   8.6399999999999991E-002    0.10082694756137878     
   8.6699999999999999E-002    0.14506085037374553     
   8.7000000000000008E-002    0.17036779019643722     
   8.7300000000000003E-002    0.17509630116967351     
   8.7599999999999997E-002    0.15908840119599738     
   8.7900000000000006E-002    0.12361862378593558     
   8.8200000000000014E-002     7.1289389661685257E-002
   8.8499999999999995E-002     5.6670225923145176E-003
   8.8800000000000004E-002    -6.9000637936740036E-002
   8.9100000000000013E-002   -0.14794377781232806     
   8.9399999999999993E-002   -0.22632090454583845     
   8.9700000000000002E-002   -0.29956382136238602     
   9.0000000000000011E-002   -0.36321344524539778     
   9.0299999999999991E-002   -0.41338353850452630     
   9.0600000000000000E-002   -0.44698997802479040     
   9.0900000000000009E-002   -0.46155547556111476     
   9.1200000000000017E-002   -0.45533269119758224     
   9.1499999999999998E-002   -0.42753928416514081     
   9.1800000000000007E-002   -0.37828293021252013     
   9.2100000000000001E-002   -0.30845093387359279     
   9.2399999999999996E-002   -0.21982562303824429     
   9.2700000000000005E-002   -0.11515948057366297     
   9.3000000000000013E-002     2.1134329945654007E-003
   9.3300000000000008E-002    0.12786100660068930     
   9.3600000000000003E-002    0.25736650540672373     
   9.3899999999999997E-002    0.38562368922692791     
   9.4200000000000006E-002    0.50741695801321118     
   9.4500000000000001E-002    0.61765485324005309     
   9.4800000000000009E-002    0.71168970275955468     
   9.5100000000000004E-002    0.78551965076570573     
   9.5399999999999999E-002    0.83599310172256558     
   9.5699999999999993E-002    0.86111991615256156     
   9.6000000000000002E-002    0.86017583803356190     
   9.6300000000000011E-002    0.83362429349895628     
   9.6600000000000005E-002    0.78328709852013689     
   9.6900000000000000E-002    0.71213667708290029     
   9.7200000000000009E-002    0.62405567573174925     
   9.7499999999999989E-002    0.52361672436847162     
   9.7799999999999998E-002    0.41572227515532928     
   9.8100000000000007E-002    0.30532520579269007     
   9.8400000000000015E-002    0.19708461761449522     
   9.8699999999999996E-002     9.5032913774910521E-002
   9.9000000000000005E-002     2.4116108667691536E-003
   9.9300000000000013E-002    -7.8478633805096787E-002
   9.9599999999999994E-002   -0.14631754013361267     
   9.9900000000000003E-002   -0.20082404991834071     
  0.10020000000000001        -0.24240269987106700     
  0.10049999999999999        -0.27230843593390353     
  0.10080000000000000        -0.29225858717421982     
  0.10110000000000001        -0.30407616160399231     
  0.10140000000000000        -0.30981620812553279     
  0.10170000000000000        -0.31154000429585194     
  0.10200000000000001        -0.31097218070818777     
  0.10230000000000002        -0.30959558168815010     
  0.10260000000000000        -0.30885207333488163     
  0.10290000000000001        -0.30976646807729397     
  0.10320000000000000        -0.31319537408759107     
  0.10350000000000001        -0.31993934133550267     
  0.10380000000000000        -0.33063321888670116     
  0.10410000000000001        -0.34578120244355381     
  0.10440000000000001        -0.36581372696857728     
  0.10470000000000000        -0.39099954982062479     
  0.10500000000000000        -0.42141103109641476     
  0.10530000000000000        -0.45672126909020450     
  0.10560000000000000        -0.49639736851637972     
  0.10590000000000001        -0.53931450036644402     
  0.10620000000000000        -0.58382224184378706     
  0.10650000000000001        -0.62794058624553850     
  0.10679999999999999        -0.66899513279248102     
  0.10710000000000000        -0.70381282825943048     
  0.10740000000000001        -0.72899585029614833     
  0.10770000000000000        -0.74079309976227203     
  0.10800000000000000        -0.73547267031591013     
  0.10830000000000001        -0.70944588552571064     
  0.10859999999999999        -0.65956335521165699     
  0.10890000000000000        -0.58350860443527897     
  0.10920000000000001        -0.47989621264967114     
  0.10950000000000001        -0.34861436160470222     
  0.10979999999999999        -0.19129268698436727     
  0.11009999999999999         -1.1175143495656540E-002
  0.11040000000000001         0.18682269428546625     
  0.11070000000000001         0.39594402333247725     
  0.11100000000000000         0.60800700549521025     
  0.11130000000000000         0.81376515751437106     
  0.11160000000000002          1.0034416785186950     
  0.11190000000000001          1.1675470919216839     
  0.11220000000000001          1.2971440390779072     
  0.11250000000000000          1.3848599023477208     
  0.11280000000000000          1.4257982793520378     
  0.11309999999999999          1.4175129955079837     
  0.11340000000000001          1.3604203297269883     
  0.11369999999999998          1.2579630462118865     
  0.11400000000000000          1.1163350210779639     
  0.11430000000000000         0.94389014326624754     
  0.11460000000000002         0.75026845068710313     
  0.11489999999999999         0.54600065341325521     
  0.11520000000000001         0.34129666932181252     
  0.11550000000000001         0.14523757884016050     
  0.11580000000000000         -3.4583634501102897E-002
  0.11609999999999999        -0.19306619156250143     
  0.11640000000000002        -0.32690044763347903     
  0.11670000000000001        -0.43517714135049151     
  0.11700000000000001        -0.51887290964827071     
  0.11730000000000000        -0.57998143843661454     
  0.11760000000000000        -0.62113415364549485     
  0.11789999999999999        -0.64499168737637591     
  0.11820000000000001        -0.65361278395309186     
  0.11850000000000001        -0.64805190917637834     
  0.11880000000000000        -0.62821476858024117     
  0.11910000000000000        -0.59314297909526870     
  0.11940000000000002        -0.54094343745127704     
  0.11970000000000001        -0.46980696400343797     
  0.12000000000000001        -0.37797739738563718     
  0.12030000000000000        -0.26470613286963751     
  0.12060000000000000        -0.13107781108431060     
  0.12089999999999999          2.0592732194262688E-002
  0.12119999999999999         0.18583122969350874     
  0.12150000000000001         0.35794886321187774     
  0.12180000000000001         0.52936964410623910     
  0.12210000000000000         0.69118617980199892     
  0.12239999999999999         0.83404259755042820     
  0.12270000000000002         0.94933222515462889     
  0.12300000000000001          1.0294862860314749     
  0.12330000000000001          1.0686073179090412     
  0.12360000000000000          1.0630944848955435     
  0.12390000000000000          1.0118367563858015     
  0.12419999999999999         0.91621141692188102     
  0.12450000000000001         0.77986537662342592     
  0.12480000000000001         0.60865872552645917     
  0.12509999999999999         0.40969377431931941     
  0.12540000000000001         0.19076788338419243     
  0.12570000000000003         -3.9519628863958378E-002
  0.12600000000000000        -0.27303045611690391     
  0.12630000000000002        -0.50264769190547476     
  0.12659999999999999        -0.72163998259654472     
  0.12690000000000001        -0.92459510735164052     
  0.12719999999999998         -1.1074126838757661     
  0.12750000000000000         -1.2665788989763127     
  0.12780000000000002         -1.3994841422494262     
  0.12809999999999999         -1.5039241148114828     
  0.12840000000000001         -1.5779090943515164     
  0.12869999999999998         -1.6197563225500680     
  0.12900000000000000         -1.6272398044762730     
  0.12930000000000003         -1.5984015276105616     
  0.12959999999999999         -1.5317011887206569     
  0.12990000000000002         -1.4257067266750343     
  0.13019999999999998         -1.2797131377607531     
  0.13050000000000000         -1.0945732452436596     
  0.13080000000000003        -0.87224494251840412     
  0.13109999999999999        -0.61660789576784814     
  0.13140000000000002        -0.33382406297213402     
  0.13169999999999998         -3.1404754281836977E-002
  0.13200000000000001         0.28095719011565273     
  0.13229999999999997         0.59234207283982032     
  0.13260000000000000         0.89112012629949722     
  0.13290000000000002          1.1652347912434087     
  0.13319999999999999          1.4034893353889233     
  0.13350000000000001          1.5956889207835638     
  0.13380000000000003          1.7336723602535689     
  0.13410000000000000          1.8117431188820314     
  0.13440000000000002          1.8266385576226640     
  0.13469999999999999          1.7784313941025143     
  0.13500000000000001          1.6699191127131705     
  0.13529999999999998          1.5062378456979710     
  0.13560000000000000          1.2951642109694739     
  0.13590000000000002          1.0461603265204615     
  0.13619999999999999         0.76970623858637632     
  0.13650000000000001         0.47729396098779059     
  0.13680000000000003         0.18080806366003174     
  0.13710000000000000        -0.10844989131422861     
  0.13740000000000002        -0.37938549779316810     
  0.13769999999999999        -0.62166052405807037     
  0.13800000000000001        -0.82632552652509106     
  0.13829999999999998        -0.98550050301155967     
  0.13860000000000000         -1.0932224858111372     
  0.13890000000000002         -1.1453492502045819     
  0.13919999999999999         -1.1401164391119862     
  0.13950000000000001         -1.0783784255368511     
  0.13979999999999998        -0.96364383686745159     
  0.14010000000000000        -0.80247627688355538     
  0.14040000000000002        -0.60409253086780079     
  0.14069999999999999        -0.38027005925244967     
  0.14100000000000001        -0.14489462807020159     
  0.14130000000000004          8.7201296016885171E-002
  0.14160000000000000         0.30091452206477237     
  0.14189999999999997         0.48162310709953277     
  0.14219999999999999         0.61709576093577101     
  0.14250000000000002         0.69798593882128612     
  0.14279999999999998         0.71844159723879075     
  0.14310000000000000         0.67716484519603826     
  0.14339999999999997         0.57735323318186849     
  0.14369999999999999         0.42652305572038784     
  0.14400000000000002         0.23575594885394452     
  0.14429999999999998          1.8808783570886160E-002
  0.14460000000000001        -0.20853067522844554     
  0.14490000000000003        -0.43034675062677802     
  0.14520000000000000        -0.63211005047335278     
  0.14550000000000002        -0.80061214112537138     
  0.14579999999999999        -0.92578380156334650     
  0.14610000000000001         -1.0014196515880671     
  0.14640000000000003         -1.0247212530826431     
  0.14670000000000000        -0.99603282310411201     
  0.14699999999999996        -0.91898291344898997     
  0.14729999999999999        -0.79978501004879510     
  0.14760000000000001        -0.64582818146433252     
  0.14789999999999998        -0.46533774952164259     
  0.14820000000000000        -0.26692211485269646     