  -1.4999999999999999E-002     0.0000000000000000     
  -1.4700000000000000E-002     0.0000000000000000     
  -1.4400000000000000E-002     0.0000000000000000     
  -1.4100000000000000E-002     0.0000000000000000     
  -1.3800000000000000E-002     0.0000000000000000     
  -1.3500000000000000E-002     0.0000000000000000     
  -1.3200000000000000E-002     0.0000000000000000     
  -1.2899999999999998E-002     0.0000000000000000     
  -1.2600000000000000E-002     0.0000000000000000     
  -1.2299999999999998E-002     0.0000000000000000     
  -1.2000000000000000E-002     0.0000000000000000     
  -1.1699999999999999E-002     0.0000000000000000     
  -1.1399999999999999E-002     0.0000000000000000     
  -1.1099999999999999E-002     0.0000000000000000     
  -1.0799999999999999E-002     0.0000000000000000     
  -1.0499999999999999E-002     0.0000000000000000     
  -1.0199999999999999E-002     0.0000000000000000     
  -9.8999999999999991E-003     0.0000000000000000     
  -9.5999999999999992E-003     0.0000000000000000     
  -9.2999999999999992E-003     0.0000000000000000     
  -8.9999999999999993E-003     0.0000000000000000     
  -8.6999999999999994E-003     0.0000000000000000     
  -8.3999999999999995E-003     0.0000000000000000     
  -8.0999999999999996E-003     0.0000000000000000     
  -7.7999999999999988E-003     0.0000000000000000     
  -7.4999999999999997E-003     0.0000000000000000     
  -7.1999999999999998E-003     0.0000000000000000     
  -6.8999999999999981E-003     0.0000000000000000     
  -6.5999999999999982E-003     0.0000000000000000     
  -6.3000000000000000E-003     0.0000000000000000     
  -6.0000000000000001E-003     0.0000000000000000     
  -5.6999999999999985E-003     0.0000000000000000     
  -5.3999999999999986E-003     0.0000000000000000     
  -5.1000000000000004E-003     0.0000000000000000     
  -4.7999999999999987E-003     0.0000000000000000     
  -4.5000000000000005E-003     0.0000000000000000     
  -4.1999999999999989E-003     0.0000000000000000     
  -3.8999999999999990E-003     0.0000000000000000     
  -3.5999999999999990E-003     0.0000000000000000     
  -3.2999999999999991E-003     0.0000000000000000     
  -2.9999999999999992E-003     0.0000000000000000     
  -2.6999999999999993E-003     0.0000000000000000     
  -2.3999999999999994E-003     0.0000000000000000     
  -2.0999999999999977E-003     0.0000000000000000     
  -1.7999999999999995E-003     0.0000000000000000     
  -1.4999999999999979E-003     0.0000000000000000     
  -1.1999999999999997E-003     0.0000000000000000     
  -8.9999999999999976E-004     0.0000000000000000     
  -5.9999999999999810E-004     0.0000000000000000     
  -2.9999999999999992E-004     0.0000000000000000     
   0.0000000000000000          0.0000000000000000     
   3.0000000000000165E-004     0.0000000000000000     
   5.9999999999999984E-004     0.0000000000000000     
   9.0000000000000149E-004     0.0000000000000000     
   1.2000000000000031E-003     0.0000000000000000     
   1.5000000000000013E-003     0.0000000000000000     
   1.8000000000000030E-003     0.0000000000000000     
   2.1000000000000012E-003     0.0000000000000000     
   2.3999999999999994E-003     0.0000000000000000     
   2.7000000000000010E-003     0.0000000000000000     
   2.9999999999999992E-003     0.0000000000000000     
   3.3000000000000008E-003     0.0000000000000000     
   3.6000000000000025E-003     0.0000000000000000     
   3.9000000000000007E-003     0.0000000000000000     
   4.2000000000000023E-003     0.0000000000000000     
   4.5000000000000005E-003     0.0000000000000000     
   4.7999999999999987E-003     0.0000000000000000     
   5.1000000000000004E-003     0.0000000000000000     
   5.4000000000000020E-003     0.0000000000000000     
   5.7000000000000037E-003     0.0000000000000000     
   5.9999999999999984E-003     0.0000000000000000     
   6.3000000000000000E-003     0.0000000000000000     
   6.6000000000000017E-003     0.0000000000000000     
   6.9000000000000034E-003     0.0000000000000000     
   7.2000000000000015E-003     0.0000000000000000     
   7.5000000000000032E-003     0.0000000000000000     
   7.8000000000000014E-003     0.0000000000000000     
   8.0999999999999996E-003     0.0000000000000000     
   8.4000000000000012E-003     0.0000000000000000     
   8.7000000000000029E-003     0.0000000000000000     
   9.0000000000000011E-003     0.0000000000000000     
   9.2999999999999992E-003     0.0000000000000000     
   9.6000000000000009E-003     0.0000000000000000     
   9.8999999999999991E-003     0.0000000000000000     
   1.0200000000000001E-002     0.0000000000000000     
   1.0500000000000002E-002     0.0000000000000000     
   1.0800000000000004E-002     0.0000000000000000     
   1.1099999999999999E-002     0.0000000000000000     
   1.1400000000000000E-002     0.0000000000000000     
   1.1700000000000002E-002     0.0000000000000000     
   1.2000000000000004E-002     0.0000000000000000     
   1.2300000000000002E-002     0.0000000000000000     
   1.2600000000000000E-002     0.0000000000000000     
   1.2900000000000002E-002     0.0000000000000000     
   1.3200000000000000E-002     0.0000000000000000     
   1.3500000000000002E-002     0.0000000000000000     
   1.3800000000000003E-002     0.0000000000000000     
   1.4100000000000001E-002     0.0000000000000000     
   1.4400000000000000E-002     0.0000000000000000     
   1.4700000000000001E-002     9.1444743221882209E-039
   1.4999999999999999E-002     2.0328347970749263E-037
   1.5300000000000001E-002    -1.2780357737107619E-036
   1.5600000000000003E-002     2.0174405656855116E-036
   1.5899999999999997E-002    -1.2474105751436325E-036
   1.6199999999999999E-002    -7.3637309872160228E-036
   1.6500000000000001E-002     2.6553761254491661E-035
   1.6800000000000002E-002    -4.6524027357367376E-035
   1.7100000000000004E-002     3.4992053811268678E-035
   1.7400000000000006E-002    -1.2675471550438940E-035
   1.7700000000000000E-002    -1.1997828797368110E-034
   1.8000000000000002E-002     1.7143645279130009E-034
   1.8300000000000004E-002    -1.2146681654839512E-034
   1.8600000000000005E-002     9.3439910012848132E-034
   1.8900000000000000E-002    -3.5893913369440324E-033
   1.9200000000000002E-002     3.1139017113759092E-033
   1.9500000000000003E-002     6.2951716283716987E-033
   1.9799999999999998E-002    -2.4244098359059486E-032
   2.0100000000000000E-002     3.6813969767003266E-032
   2.0400000000000001E-002    -1.1767803421301101E-032
   2.0700000000000003E-002    -8.5446850095751634E-032
   2.0999999999999998E-002     2.4673955574484835E-031
   2.1299999999999999E-002    -3.4741060386416940E-031
   2.1600000000000001E-002     7.1573949474223542E-032
   2.1900000000000003E-002     9.5650968680669938E-031
   2.2200000000000004E-002    -2.5565479533921570E-030
   2.2500000000000006E-002     3.0721393676598924E-030
   2.2800000000000001E-002     6.4347711311359891E-031
   2.3100000000000002E-002    -1.0496895677614891E-029
   2.3400000000000004E-002     2.1645551311248860E-029
   2.3699999999999999E-002    -1.8890602398531167E-029
   2.4000000000000000E-002    -1.6706688478592721E-029
   2.4300000000000002E-002     8.6551033695212821E-029
   2.4599999999999997E-002    -1.4735302663428938E-028
   2.4900000000000005E-002     1.0305985791292991E-028
   2.5200000000000000E-002     1.4899677869850665E-028
   2.5499999999999995E-002    -5.9262528540816716E-028
   2.5800000000000003E-002     9.3048907714587866E-028
   2.6099999999999998E-002    -5.7926832273234114E-028
   2.6400000000000007E-002    -9.0603932144743563E-028
   2.6700000000000002E-002     3.1229113491444201E-027
   2.6999999999999996E-002    -4.7878803079497136E-027
   2.7300000000000005E-002     4.4508545511182397E-027
   2.7600000000000000E-002     2.6088341888990257E-027
   2.7900000000000008E-002    -3.3804871786210364E-026
   2.8200000000000003E-002     9.7192435808661615E-026
   2.8499999999999998E-002    -3.5022410067679691E-026
   2.8800000000000006E-002    -7.1600190101363678E-025
   2.9100000000000001E-002     2.6013279558389547E-024
   2.9400000000000003E-002    -2.9955064247282797E-024
   2.9700000000000004E-002    -8.0584786217574630E-024
   3.0000000000000006E-002     4.1938439655665312E-023
   3.0300000000000001E-002    -7.4851397003130810E-023
   3.0600000000000002E-002    -1.7541402786850140E-023
   3.0900000000000004E-002     4.7638303660651931E-022
   3.1199999999999999E-002    -1.4331899020875200E-021
   3.1500000000000007E-002     2.0839899766455605E-021
   3.1800000000000002E-002     1.1507352698594868E-021
   3.2099999999999997E-002    -1.6702585301896507E-020
   3.2400000000000005E-002     5.5640108756453372E-020
   3.2700000000000000E-002    -1.1588215657958997E-019
   3.3000000000000002E-002     1.2188747887743665E-019
   3.3300000000000003E-002     3.2742466272960933E-019
   3.3599999999999998E-002    -2.6212272487441355E-018
   3.3900000000000000E-002     8.9062715083413761E-018
   3.4200000000000001E-002    -1.3884030353369397E-017
   3.4500000000000003E-002    -2.0594683615050354E-017
   3.4799999999999998E-002     1.7526352200801799E-016
   3.5099999999999999E-002    -4.1592893770729887E-016
   3.5400000000000001E-002     1.2710354348789523E-016
   3.5699999999999996E-002     2.0569483748570260E-015
   3.6000000000000004E-002    -6.0530282266344756E-015
   3.6299999999999999E-002     4.7871231561908256E-015
   3.6600000000000008E-002     1.6521764338519260E-014
   3.6900000000000002E-002    -5.7208135085048474E-014
   3.7199999999999997E-002     5.6182941338720251E-014
   3.7500000000000006E-002     9.5929568381400241E-014
   3.7800000000000000E-002    -3.7326679596807598E-013
   3.8100000000000009E-002     3.7342397852629732E-013
   3.8400000000000004E-002     4.2988495865074563E-013
   3.8699999999999998E-002    -1.5853588988356857E-012
   3.9000000000000007E-002     1.1040706364739238E-012
   3.9300000000000002E-002     1.7257872226634653E-012
   3.9600000000000003E-002    -1.9384972366885753E-012
   3.9900000000000005E-002    -5.0682795035176183E-012
   4.0200000000000000E-002     3.7068674492773855E-012
   4.0500000000000001E-002     3.0792978564414003E-011
   4.0800000000000003E-002    -5.2868103984789142E-011
   4.1100000000000005E-002    -3.6502979495413692E-011
   4.1399999999999999E-002     9.7744306355989902E-011
   4.1700000000000008E-002     1.0177403734097452E-010
   4.2000000000000003E-002     4.0021643508759432E-010
   4.2299999999999997E-002    -2.6490672323925232E-009
   4.2600000000000006E-002     9.4160117618628215E-010
   4.2900000000000001E-002     1.4818086406523969E-008
   4.3200000000000002E-002    -3.0383819034100747E-008
   4.3500000000000004E-002    -2.4466784123861986E-008
   4.3799999999999999E-002     1.7806353338004971E-007
   4.4100000000000000E-002    -2.1206597947816624E-007
   4.4400000000000002E-002    -4.4362279136951162E-007
   4.4700000000000004E-002     6.1677756923223544E-006
   4.4999999999999998E-002     2.5410707746899355E-005
   4.5300000000000000E-002     5.0236387435060520E-005
   4.5600000000000002E-002     6.8341117700040837E-005
   4.5899999999999996E-002     8.1113330105576562E-005
   4.6200000000000005E-002     1.0647750283811983E-004
   4.6500000000000000E-002     1.6554898322351200E-004
   4.6799999999999994E-002     2.6684909486608330E-004
   4.7100000000000003E-002     4.0678334240339294E-004
   4.7399999999999998E-002     5.9298629981322892E-004
   4.7700000000000006E-002     8.5441754816646361E-004
   4.8000000000000001E-002     1.2231784862724322E-003
   4.8300000000000010E-002     1.7256000558562379E-003
   4.8600000000000004E-002     2.3890195063402549E-003
   4.8899999999999999E-002     3.2434464309756945E-003
   4.9200000000000008E-002     4.3211602932966102E-003
   4.9500000000000002E-002     5.6472989358927863E-003
   4.9800000000000011E-002     7.2191877908224060E-003
   5.0100000000000006E-002     9.0043692862511512E-003
   5.0400000000000000E-002     1.0945193721016403E-002
   5.0700000000000009E-002     1.2930306965769444E-002
   5.1000000000000004E-002     1.4764899368018346E-002
   5.1299999999999998E-002     1.6170141742983202E-002
   5.1600000000000007E-002     1.6776189925365087E-002
   5.1900000000000002E-002     1.6108658826588556E-002
   5.2200000000000010E-002     1.3613413631161779E-002
   5.2500000000000005E-002     8.6835453996087046E-003
   5.2800000000000000E-002     6.7058528152700008E-004
   5.3099999999999994E-002    -1.1048742857886634E-002
   5.3400000000000003E-002    -2.6945948174460565E-002
   5.3699999999999998E-002    -4.7239813884466693E-002
   5.4000000000000006E-002    -7.1814850034569694E-002
   5.4300000000000001E-002   -0.10009094125605342     
   5.4599999999999996E-002   -0.13090221566064336     
   5.4900000000000004E-002   -0.16244584030611320     
   5.5199999999999999E-002   -0.19226730200345116     
   5.5499999999999994E-002   -0.21727043888778191     
   5.5800000000000002E-002   -0.23385812153985752     
   5.6099999999999997E-002   -0.23820505285626969     
   5.6400000000000006E-002   -0.22656279576740412     
   5.6700000000000000E-002   -0.19562963682627249     
   5.6999999999999995E-002   -0.14298243462415938     
   5.7300000000000004E-002    -6.7533856986122645E-002
   5.7599999999999998E-002     3.0076437971605662E-002
   5.7900000000000007E-002    0.14715959510644838     
   5.8200000000000002E-002    0.27887402935960226     
   5.8499999999999996E-002    0.41836957954755982     
   5.8800000000000005E-002    0.55697748864861563     
   5.9100000000000000E-002    0.68471876917564412     
   5.9400000000000008E-002    0.79115575575463748     
   5.9700000000000003E-002    0.86620462189855707     
   6.0000000000000012E-002    0.90108492612555846     
   6.0300000000000006E-002    0.88924867083249648     
   6.0600000000000001E-002    0.82717769446707345     
   6.0900000000000010E-002    0.71493753108214708     
   6.1200000000000004E-002    0.55652639954546046     
   6.1500000000000013E-002    0.35971168437792606     
   6.1800000000000008E-002    0.13553816932473234     
   6.2100000000000002E-002   -0.10233437939807496     
   6.2399999999999997E-002   -0.33868726747004863     
   6.2700000000000006E-002   -0.55812279309302193     
   6.3000000000000000E-002   -0.74618793764991564     
   6.3300000000000009E-002   -0.89060696939082895     
   6.3600000000000004E-002   -0.98227846189293411     
   6.3899999999999998E-002    -1.0160051366048790     
   6.4199999999999993E-002   -0.99092000599888830     
   6.4500000000000002E-002   -0.91041186257484963     
   6.4800000000000010E-002   -0.78176725925153057     
   6.5100000000000005E-002   -0.61551981093630270     
   6.5400000000000000E-002   -0.42461019558912227     
   6.5700000000000008E-002   -0.22328641836857005     
   6.5999999999999989E-002    -2.5982530318678858E-002
   6.6299999999999998E-002    0.15368976660684333     
   6.6600000000000006E-002    0.30381728889786458     
   6.6900000000000001E-002    0.41486978080133308     
   6.7199999999999996E-002    0.48036793943982847     
   6.7500000000000004E-002    0.49710380428159207     
   6.7800000000000013E-002    0.46509740169697866     
   6.8099999999999994E-002    0.38749644809068357     
   6.8400000000000002E-002    0.27023905896780426     
   6.8700000000000011E-002    0.12174654115440534     
   6.8999999999999992E-002    -4.7889858213269278E-002
   6.9300000000000000E-002   -0.22755849545210383     
   6.9600000000000009E-002   -0.40559539649620047     
   6.9900000000000004E-002   -0.57067883974878819     
   7.0199999999999999E-002   -0.71247657329362080     
   7.0500000000000007E-002   -0.82221117941198152     
   7.0800000000000016E-002   -0.89323029016704902     
   7.1099999999999997E-002   -0.92130166459698648     
   7.1400000000000005E-002   -0.90485935667717787     
   7.1700000000000000E-002   -0.84514198604490787     
   7.1999999999999995E-002   -0.74591465040603799     
   7.2300000000000003E-002   -0.61301266099671858     
   7.2600000000000012E-002   -0.45399619377384715     
   7.2900000000000006E-002   -0.27746125480945694     
   7.3200000000000001E-002    -9.2229701254673224E-002
   7.3499999999999996E-002     9.3315735169074765E-002
   7.3800000000000004E-002    0.27167144214279515     
   7.4099999999999999E-002    0.43666598803925216     
   7.4400000000000008E-002    0.58399767152036197     
   7.4700000000000003E-002    0.71087624537401772     
   7.5000000000000011E-002    0.81587539826189182     
   7.5299999999999992E-002    0.89861274437994765     
   7.5600000000000001E-002    0.95934383939014234     
   7.5900000000000009E-002    0.99854308987295637     
   7.6200000000000004E-002     1.0161541096624032     
   7.6499999999999999E-002     1.0116266999837560     
   7.6800000000000007E-002    0.98401098202529846     
   7.7099999999999988E-002    0.93184980665925510     
   7.7399999999999997E-002    0.85375589139160013     
   7.7700000000000005E-002    0.74880675332523539     
   7.8000000000000014E-002    0.61725717186463758     
   7.8299999999999995E-002    0.46105011936603579     
   7.8600000000000003E-002    0.28399419287940386     
   7.8900000000000012E-002     9.2195517040421837E-002
   7.9199999999999993E-002   -0.10640125835462999     
   7.9500000000000001E-002   -0.30226030140142507     
   7.9800000000000010E-002   -0.48506413094116141     
   8.0100000000000018E-002   -0.64450307328751721     
   8.0399999999999999E-002   -0.77110497751861518     
   8.0700000000000008E-002   -0.85741267422987955     
   8.1000000000000003E-002   -0.89830802458104364     
   8.1299999999999997E-002   -0.89176172418083266     
   8.1600000000000006E-002   -0.83870763446167662     
   8.1900000000000014E-002   -0.74304862033463048     
   8.2199999999999995E-002   -0.61124766890929749     
   8.2500000000000004E-002   -0.45143697087450263     
   8.2799999999999999E-002   -0.27272067387571797     
   8.3100000000000007E-002    -8.4256981573211445E-002
   8.3400000000000002E-002    0.10520444135286143     
   8.3700000000000011E-002    0.28821460642477970     
   8.4000000000000005E-002    0.45885128542468046     
   8.4300000000000000E-002    0.61285164666055869     
   8.4599999999999995E-002    0.74735500502698105     
   8.4900000000000003E-002    0.86061101462479295     
   8.5199999999999998E-002    0.95177564870242426     
   8.5500000000000007E-002     1.0198910477704346     
   8.5800000000000001E-002     1.0638868173030265     
   8.6100000000000010E-002     1.0821747213510478     
   8.6399999999999991E-002     1.0723138823806102     
   8.6699999999999999E-002     1.0314587948276055     
   8.7000000000000008E-002    0.95635281951786788     
   8.7300000000000003E-002    0.84383395277209217     
   8.7599999999999997E-002    0.69183235243361363     
   8.7900000000000006E-002    0.49971887919980773     
   8.8200000000000014E-002    0.26877832625332304     
   8.8499999999999995E-002     3.0232520909009020E-003
   8.8800000000000004E-002   -0.29062368939612060     
   8.9100000000000013E-002   -0.60259043459018358     
   8.9399999999999993E-002   -0.92092194521418036     
   8.9700000000000002E-002    -1.2315931798733497     
   9.0000000000000011E-002    -1.5196541987165093     
   9.0299999999999991E-002    -1.7703037482432493     
   9.0600000000000000E-002    -1.9694141435110915     
   9.0900000000000009E-002    -2.1053844912682669     
   9.1200000000000017E-002    -2.1693302458576236     
   9.1499999999999998E-002    -2.1557448476057672     
   9.1800000000000007E-002    -2.0634779974158857     
   9.2100000000000001E-002    -1.8955195717535060     
   9.2399999999999996E-002    -1.6586969664204569     
   9.2700000000000005E-002    -1.3632592294346708     
   9.3000000000000013E-002    -1.0223825570956071     
   9.3300000000000008E-002   -0.65128911835742986     
   9.3600000000000003E-002   -0.26620984148046833     
   9.3899999999999997E-002    0.11612090876291931     
   9.4200000000000006E-002    0.48001595167224953     
   9.4500000000000001E-002    0.81133900010799975     
   9.4800000000000009E-002     1.0978230186712046     
   9.5100000000000004E-002     1.3300285653656183     
   9.5399999999999999E-002     1.5019567578810493     
   9.5699999999999993E-002     1.6107011452633864     
   9.6000000000000002E-002     1.6565858690065118     
   9.6300000000000011E-002     1.6433413470766569     
   9.6600000000000005E-002     1.5770909077594883     
   9.6900000000000000E-002     1.4664832596192976     
   9.7200000000000009E-002     1.3217354699348669     
   9.7499999999999989E-002     1.1538306070931559     
   9.7799999999999998E-002    0.97418096548317967     
   9.8100000000000007E-002    0.79351278894369282     
   9.8400000000000015E-002    0.62183639566544846     
   9.8699999999999996E-002    0.46747776047641132     
   9.9000000000000005E-002    0.33709961748565470     
   9.9300000000000013E-002    0.23544696851206687     
   9.9599999999999994E-002    0.16519815148088915     
   9.9900000000000003E-002    0.12725817386715677     
  0.10020000000000001         0.12048886926038868     
  0.10049999999999999         0.14243169341662021     
  0.10080000000000000         0.18876629151416530     
  0.10110000000000001         0.25421937596103694     
  0.10140000000000000         0.33231095813505607     
  0.10170000000000000         0.41516467093696729     
  0.10200000000000001         0.49492586929074578     
  0.10230000000000002         0.56281064217427068     
  0.10260000000000000         0.60987837775094089     
  0.10290000000000001         0.62773650886027732     
  0.10320000000000000         0.60890849487905396     
  0.10350000000000001         0.54711263537231636     
  0.10380000000000000         0.43811234111461506     
  0.10410000000000001         0.28034345188473142     
  0.10440000000000001          7.4936493085648384E-002
  0.10470000000000000        -0.17336354314619218     
  0.10500000000000000        -0.45704521009563226     
  0.10530000000000000        -0.76502090632956898     
  0.10560000000000000         -1.0832587713924717     
  0.10590000000000001         -1.3959753986552164     
  0.10620000000000000         -1.6855666826102458     
  0.10650000000000001         -1.9345059420629700     
  0.10679999999999999         -2.1254178051466583     
  0.10710000000000000         -2.2431764953116713     
  0.10740000000000001         -2.2755245048597343     
  0.10770000000000000         -2.2140862582250511     
  0.10800000000000000         -2.0555369232984200     
  0.10830000000000001         -1.8014868572301608     
  0.10859999999999999         -1.4597238144420348     
  0.10890000000000000         -1.0432475695595540     
  0.10920000000000001        -0.57047787030388641     
  0.10950000000000001         -6.4036352418339326E-002
  0.10979999999999999         0.45062456623346026     
  0.11009999999999999         0.94580994625033465     
  0.11040000000000001          1.3942067040381247     
  0.11070000000000001          1.7700483478958144     
  0.11100000000000000          2.0512821269535695     
  0.11130000000000000          2.2208193616950913     
  0.11160000000000002          2.2675094435921088     
  0.11190000000000001          2.1877012785746066     
  0.11220000000000001          1.9852828354922853     
  0.11250000000000000          1.6714168018699178     
  0.11280000000000000          1.2637106417935380     
  0.11309999999999999         0.78583009632655398     
  0.11340000000000001         0.26535201625243715     
  0.11369999999999998        -0.26773142575459213     
  0.11400000000000000        -0.78251677897341509     
  0.11430000000000000         -1.2495877606890844     
  0.11460000000000002         -1.6420137366629410     
  0.11489999999999999         -1.9371763169552829     
  0.11520000000000001         -2.1176313932555484     
  0.11550000000000001         -2.1722028033230378     
  0.11580000000000000         -2.0961912448244426     
  0.11609999999999999         -1.8915936322709483     
  0.11640000000000002         -1.5671430294339865     
  0.11670000000000001         -1.1377767250835573     
  0.11700000000000001        -0.62415537547582578     
  0.11730000000000000         -5.1989849517555253E-002
  0.11760000000000000         0.54950846248231988     
  0.11789999999999999          1.1483337349357712     
  0.11820000000000001          1.7116761376502907     
  0.11850000000000001          2.2071130721585446     
  0.11880000000000000          2.6046219595509599     
  0.11910000000000000          2.8789318581877241     
  0.11940000000000002          3.0104444967585571     
  0.11970000000000001          2.9871989865534365     
  0.12000000000000001          2.8058740045422059     
  0.12030000000000000          2.4729470273065450     
  0.12060000000000000          2.0038875496562216     
  0.12089999999999999          1.4229167258719575     
  0.12119999999999999         0.76137964353717558     
  0.12150000000000001          5.5943485788947700E-002
  0.12180000000000001        -0.65372150926901218     
  0.12210000000000000         -1.3288332786283230     
  0.12239999999999999         -1.9327971859912383     
  0.12270000000000002         -2.4346164324740327     
  0.12300000000000001         -2.8110379031883101     
  0.12330000000000001         -3.0483196672912203     
  0.12360000000000000         -3.1419690533163243     
  0.12390000000000000         -3.0972200682477506     
  0.12419999999999999         -2.9283512793785968     
  0.12450000000000001         -2.6564225342895744     
  0.12480000000000001         -2.3078728580804997     
  0.12509999999999999         -1.9105910696707227     
  0.12540000000000001         -1.4930620623267248     
  0.12570000000000003         -1.0815742276707718     
  0.12600000000000000        -0.69745503262454434     
  0.12630000000000002        -0.35668463303003484     
  0.12659999999999999         -6.8385408821904595E-002
  0.12690000000000001         0.16455335751794833     
  0.12719999999999998         0.34529944179095701     
  0.12750000000000000         0.48219846899895524     
  0.12780000000000002         0.58736727184258619     
  0.12809999999999999         0.67452300110719776     
  0.12840000000000001         0.75765817156628523     
  0.12869999999999998         0.84947585900296796     
  0.12900000000000000         0.96007826126716145     
  0.12930000000000003          1.0955466089354602     
  0.12959999999999999          1.2574606370065287     
  0.12990000000000002          1.4427862187016200     
  0.13019999999999998          1.6436130488405181     
  0.13050000000000000          1.8488706513154369     
  0.13080000000000003          2.0443253049833419     
  0.13109999999999999          2.2132513452855349     
  0.13140000000000002          2.3393757299312536     
  0.13169999999999998          2.4075017097829052     
  0.13200000000000001          2.4046373587271574     
  0.13229999999999997          2.3215889282720132     
  0.13260000000000000          2.1533357748332058     
  0.13290000000000002          1.9005322968714045     
  0.13319999999999999          1.5693096093362946     
  0.13350000000000001          1.1704547854627381     
  0.13380000000000003         0.71920042881645263     
  0.13410000000000000         0.23437940712275407     
  0.13440000000000002        -0.26273351493896002     
  0.13469999999999999        -0.75003995780287647     
  0.13500000000000001         -1.2064114848096543     
  0.13529999999999998         -1.6121952957155363     
  0.13560000000000000         -1.9502507452230669     
  0.13590000000000002         -2.2072609989788274     
  0.13619999999999999         -2.3742163103332214     
  0.13650000000000001         -2.4462117556828780     
  0.13680000000000003         -2.4225267674876267     
  0.13710000000000000         -2.3062832206400170     
  0.13740000000000002         -2.1044694047234049     
  0.13769999999999999         -1.8272644730647603     
  0.13800000000000001         -1.4874301077772794     
  0.13829999999999998         -1.0993610284710698     
  0.13860000000000000        -0.67958142171431302     
  0.13890000000000002        -0.24554357300846849     
  0.13919999999999999         0.18544431878181766     
  0.13950000000000001         0.59651995828812887     
  0.13979999999999998         0.97283186883451767     
  0.14010000000000000          1.3011827996483674     
  0.14040000000000002          1.5719481503087502     
  0.14069999999999999          1.7800316379707803     
  0.14100000000000001          1.9242907034156906     
  0.14130000000000004          2.0080432654331246     
  0.14160000000000000          2.0383637089601798     
  0.14189999999999997          2.0256116704651399     
  0.14219999999999999          1.9820337542263302     
  0.14250000000000002          1.9200934157785605     
  0.14279999999999998          1.8506842609228813     
  0.14310000000000000          1.7821381319716609     
  0.14339999999999997          1.7193831435824884     
  0.14369999999999999          1.6621388533093486     
  0.14400000000000002          1.6061295064115302     
  0.14429999999999998          1.5427058802868014     
  0.14460000000000001          1.4605711473586447     
  0.14490000000000003          1.3471455390365243     
  0.14520000000000000          1.1892567701883456     
  0.14550000000000002         0.97552810545368263     
  0.14579999999999999         0.69784521026664526     
  0.14610000000000001         0.35164193315671510     
  0.14640000000000003         -6.3931096685097499E-002
  0.14670000000000000        -0.54488447423289521     
  0.14699999999999996         -1.0836998713994426     
  0.14729999999999999         -1.6695651300440455     
  0.14760000000000001         -2.2889610838872332     
  0.14789999999999998         -2.9264861597337486     
  0.14820000000000000         -3.5652893755025503     