  -1.4999999999999999E-002     0.0000000000000000     
  -1.4700000000000000E-002     0.0000000000000000     
  -1.4400000000000000E-002     0.0000000000000000     
  -1.4100000000000000E-002     0.0000000000000000     
  -1.3800000000000000E-002     0.0000000000000000     
  -1.3500000000000000E-002     0.0000000000000000     
  -1.3200000000000000E-002     0.0000000000000000     
  -1.2899999999999998E-002     0.0000000000000000     
  -1.2600000000000000E-002     0.0000000000000000     
  -1.2299999999999998E-002     0.0000000000000000     
  -1.2000000000000000E-002     0.0000000000000000     
  -1.1699999999999999E-002     0.0000000000000000     
  -1.1399999999999999E-002     0.0000000000000000     
  -1.1099999999999999E-002     0.0000000000000000     
  -1.0799999999999999E-002     5.7450174359393872E-037
  -1.0499999999999999E-002     2.1188884900184163E-034
  -1.0199999999999999E-002    -5.1693704875654000E-034
  -9.8999999999999991E-003     1.7238145273518902E-033
  -9.5999999999999992E-003     5.1135807909914050E-033
  -9.2999999999999992E-003    -6.5875136883622858E-033
  -8.9999999999999993E-003    -6.4788534884977690E-032
  -8.6999999999999994E-003     8.5229732185148441E-033
  -8.3999999999999995E-003     6.1541511508486617E-031
  -8.0999999999999996E-003     8.5438521728499969E-031
  -7.7999999999999988E-003    -6.4566726153943629E-030
  -7.4999999999999997E-003    -7.4726931959739266E-030
  -7.1999999999999998E-003     4.0256753671819736E-029
  -6.8999999999999981E-003     4.3802098800679441E-029
  -6.5999999999999982E-003    -5.4065114658951667E-029
  -6.3000000000000000E-003    -5.9581079130998791E-028
  -6.0000000000000001E-003    -3.0403616029871323E-028
  -5.6999999999999985E-003     4.9772893777287971E-027
  -5.3999999999999986E-003    -1.2336432554835665E-027
  -5.1000000000000004E-003    -1.1791096246618686E-026
  -4.7999999999999987E-003     7.0136975970738846E-029
  -4.5000000000000005E-003    -6.8423292750686816E-026
  -4.1999999999999989E-003     3.4837586549518486E-025
  -3.8999999999999990E-003    -2.0880164550258985E-025
  -3.5999999999999990E-003    -8.3752958016100898E-025
  -3.2999999999999991E-003     1.9065359962476036E-024
  -2.9999999999999992E-003    -6.2272739022714563E-024
  -2.6999999999999993E-003     1.7048461142296655E-023
  -2.3999999999999994E-003    -1.4959150413044322E-023
  -2.0999999999999977E-003    -1.4893031247412317E-023
  -1.7999999999999995E-003     6.0544089977302940E-023
  -1.4999999999999979E-003    -2.3208444341605763E-022
  -1.1999999999999997E-003     6.7370589328497972E-022
  -8.9999999999999976E-004    -1.0984229501010038E-021
  -5.9999999999999810E-004     9.7886081841210439E-022
  -2.9999999999999992E-004     1.3566896995831213E-021
   0.0000000000000000         -1.1604732494388800E-020
   3.0000000000000165E-004     3.2581519879818571E-020
   5.9999999999999984E-004    -4.4327743072012987E-020
   9.0000000000000149E-004    -6.9864450018052986E-021
   1.2000000000000031E-003     1.9813704074196731E-019
   1.5000000000000013E-003    -5.2162236902262377E-019
   1.8000000000000030E-003     5.9153753555198392E-019
   2.1000000000000012E-003     4.2251605037505557E-019
   2.3999999999999994E-003    -2.8941564844030906E-018
   2.7000000000000010E-003     5.1430310273147893E-018
   2.9999999999999992E-003    -2.6921970291258186E-018
   3.3000000000000008E-003    -8.8333161776659732E-018
   3.6000000000000025E-003     2.5102115868179259E-017
   3.9000000000000007E-003    -2.7264331247807147E-017
   4.2000000000000023E-003    -4.8988468968988293E-018
   4.5000000000000005E-003     6.7105331595829790E-017
   4.7999999999999987E-003    -1.2027449628493358E-016
   5.1000000000000004E-003     1.0717149877839549E-016
   5.4000000000000020E-003     1.3217978920405409E-017
   5.7000000000000037E-003    -2.4625632703824624E-016
   5.9999999999999984E-003     5.6433993627291387E-016
   6.3000000000000000E-003    -7.9439154364834008E-016
   6.6000000000000017E-003     4.2389501794523404E-016
   6.9000000000000034E-003     1.1275195432872078E-015
   7.2000000000000015E-003    -3.6014168027182023E-015
   7.5000000000000032E-003     5.1704021889387077E-015
   7.8000000000000014E-003    -2.7059998512090786E-015
   8.0999999999999996E-003    -6.1691463603427785E-015
   8.4000000000000012E-003     1.9194351037516051E-014
   8.7000000000000029E-003    -2.6707072493738389E-014
   9.0000000000000011E-003     1.3607277671713429E-014
   9.2999999999999992E-003     3.0770267518860639E-014
   9.6000000000000009E-003    -9.2577265569260964E-014
   9.8999999999999991E-003     1.1954917307835378E-013
   1.0200000000000001E-002    -4.5287182342959934E-014
   1.0500000000000002E-002    -1.4902201651498248E-013
   1.0800000000000004E-002     3.7500146217450681E-013
   1.1099999999999999E-002    -4.3138279406940150E-013
   1.1400000000000000E-002     1.1446548461684081E-013
   1.1700000000000002E-002     5.7455857562990764E-013
   1.2000000000000004E-002    -1.2841394614326873E-012
   1.2300000000000002E-002     1.3778080239224000E-012
   1.2600000000000000E-002    -3.0331043666259605E-013
   1.2900000000000002E-002    -1.8090414149324330E-012
   1.3200000000000000E-002     3.8451867558075836E-012
   1.3500000000000002E-002    -4.1410264974006683E-012
   1.3800000000000003E-002     1.3795496862922807E-012
   1.4100000000000001E-002     4.3993454712509816E-012
   1.4400000000000000E-002    -1.1027984948841496E-011
   1.4700000000000001E-002     1.4203741481588761E-011
   1.4999999999999999E-002    -8.2171405096920225E-012
   1.5300000000000001E-002    -1.1346410790091799E-011
   1.5600000000000003E-002     4.0040873394708854E-011
   1.5899999999999997E-002    -5.5331808579417441E-011
   1.6199999999999999E-002     2.1523423668345920E-011
   1.6500000000000001E-002     7.2127873118610353E-011
   1.6800000000000002E-002    -1.5818149567969897E-010
   1.7100000000000004E-002     1.1238332486840363E-010
   1.7400000000000006E-002     9.9402978903651018E-011
   1.7700000000000000E-002    -3.2837413344033450E-010
   1.8000000000000002E-002     3.8069458696554648E-010
   1.8300000000000004E-002     4.3766545942958146E-011
   1.8600000000000005E-002    -1.7285027853475299E-009
   1.8900000000000000E-002     3.5868490400048358E-009
   1.9200000000000002E-002     3.6166469818965652E-009
   1.9500000000000003E-002    -2.5616280652229761E-008
   1.9799999999999998E-002     9.8337054055264161E-009
   2.0100000000000000E-002     1.1397563781656572E-007
   2.0400000000000001E-002    -1.2703520724244299E-007
   2.0700000000000003E-002    -4.5102743229108455E-007
   2.0999999999999998E-002     9.2986442723486107E-007
   2.1299999999999999E-002     5.0508469939813949E-006
   2.1600000000000001E-002     1.0765327715489548E-005
   2.1900000000000003E-002     1.6545620383112691E-005
   2.2200000000000004E-002     2.1529554942389950E-005
   2.2500000000000006E-002     2.7794323614216410E-005
   2.2800000000000001E-002     4.1304490878246725E-005
   2.3100000000000002E-002     6.4638094045221806E-005
   2.3400000000000004E-002     9.6851661510299891E-005
   2.3699999999999999E-002     1.4281491166912019E-004
   2.4000000000000000E-002     2.0739542378578335E-004
   2.4300000000000002E-002     2.9282929608598351E-004
   2.4599999999999997E-002     4.1540135862305760E-004
   2.4900000000000005E-002     5.9212063206359744E-004
   2.5200000000000000E-002     8.1569078611209989E-004
   2.5499999999999995E-002     1.0789335938170552E-003
   2.5800000000000003E-002     1.3898737961426377E-003
   2.6099999999999998E-002     1.7564549343660474E-003
   2.6400000000000007E-002     2.1733571775257587E-003
   2.6700000000000002E-002     2.6090927422046661E-003
   2.6999999999999996E-002     3.0201668851077557E-003
   2.7300000000000005E-002     3.3376261126250029E-003
   2.7600000000000000E-002     3.4494374413043261E-003
   2.7900000000000008E-002     3.2090558670461178E-003
   2.8200000000000003E-002     2.4231399875134230E-003
   2.8499999999999998E-002     8.4054487524554133E-004
   2.8800000000000006E-002    -1.8469734350219369E-003
   2.9100000000000001E-002    -5.9498026967048645E-003
   2.9400000000000003E-002    -1.1815934441983700E-002
   2.9700000000000004E-002    -1.9895322620868683E-002
   3.0000000000000006E-002    -3.0635299161076546E-002
   3.0300000000000001E-002    -4.4411394745111465E-002
   3.0600000000000002E-002    -6.1549723148345947E-002
   3.0900000000000004E-002    -8.2307904958724976E-002
   3.1199999999999999E-002   -0.10681690275669098     
   3.1500000000000007E-002   -0.13505873084068298     
   3.1800000000000002E-002   -0.16686716675758362     
   3.2099999999999997E-002   -0.20191225409507751     
   3.2400000000000005E-002   -0.23969919979572296     
   3.2700000000000000E-002   -0.27958467602729797     
   3.3000000000000002E-002   -0.32081973552703857     
   3.3300000000000003E-002   -0.36256802082061768     
   3.3599999999999998E-002   -0.40404137969017029     
   3.3900000000000000E-002   -0.44437721371650696     
   3.4200000000000001E-002   -0.48274698853492737     
   3.4500000000000003E-002   -0.51835983991622925     
   3.4799999999999998E-002   -0.55038934946060181     
   3.5099999999999999E-002   -0.57796740531921387     
   3.5400000000000001E-002   -0.60010707378387451     
   3.5699999999999996E-002   -0.61558967828750610     
   3.6000000000000004E-002   -0.62297224998474121     
   3.6299999999999999E-002   -0.62055146694183350     
   3.6600000000000008E-002   -0.60632467269897461     
   3.6900000000000002E-002   -0.57816207408905029     
   3.7199999999999997E-002   -0.53379732370376587     
   3.7500000000000006E-002   -0.47113978862762451     
   3.7800000000000000E-002   -0.38858240842819214     
   3.8100000000000009E-002   -0.28494212031364441     
   3.8400000000000004E-002   -0.15997639298439026     
   3.8699999999999998E-002    -1.4604408293962479E-002
   3.9000000000000007E-002    0.14940038323402405     
   3.9300000000000002E-002    0.32884988188743591     
   3.9600000000000003E-002    0.51944303512573242     
   3.9900000000000005E-002    0.71648705005645752     
   4.0200000000000000E-002    0.91421884298324585     
   4.0500000000000001E-002     1.1072237491607666     
   4.0800000000000003E-002     1.2902504205703735     
   4.1100000000000005E-002     1.4585007429122925     
   4.1399999999999999E-002     1.6083439588546753     
   4.1700000000000008E-002     1.7372310161590576     
   4.2000000000000003E-002     1.8437134027481079     
   4.2299999999999997E-002     1.9275138378143311     
   4.2600000000000006E-002     1.9891763925552368     
   4.2900000000000001E-002     2.0295927524566650     
   4.3200000000000002E-002     2.0501830577850342     
   4.3500000000000004E-002     2.0517315864562988     
   4.3799999999999999E-002     2.0346484184265137     
   4.4100000000000000E-002     1.9989846944808960     
   4.4400000000000002E-002     1.9432497024536133     
   4.4700000000000004E-002     1.8662601709365845     
   4.4999999999999998E-002     1.7657994031906128     
   4.5300000000000000E-002     1.6395106315612793     
   4.5600000000000002E-002     1.4856541156768799     
   4.5899999999999996E-002     1.3025469779968262     
   4.6200000000000005E-002     1.0893372297286987     
   4.6500000000000000E-002    0.84629034996032715     
   4.6799999999999994E-002    0.57383793592453003     
   4.7100000000000003E-002    0.27347242832183838     
   4.7399999999999998E-002    -5.3353205323219299E-002
   4.7700000000000006E-002   -0.40483844280242920     
   4.8000000000000001E-002   -0.77949947118759155     
   4.8300000000000010E-002    -1.1755760908126831     
   4.8600000000000004E-002    -1.5916064977645874     
   4.8899999999999999E-002    -2.0253000259399414     
   4.9200000000000008E-002    -2.4728565216064453     
   4.9500000000000002E-002    -2.9291324615478516     
   4.9800000000000011E-002    -3.3852124214172363     
   5.0100000000000006E-002    -3.8287563323974609     
   5.0400000000000000E-002    -4.2438998222351074     
   5.0700000000000009E-002    -4.6099648475646973     
   5.1000000000000004E-002    -4.9033379554748535     
   5.1299999999999998E-002    -5.0981998443603516     
   5.1600000000000007E-002    -5.1680479049682617     
   5.1900000000000002E-002    -5.0889739990234375     
   5.2200000000000010E-002    -4.8409914970397949     
   5.2500000000000005E-002    -4.4115905761718750     
   5.2800000000000000E-002    -3.7982594966888428     
   5.3099999999999994E-002    -3.0088140964508057     
   5.3400000000000003E-002    -2.0649330615997314     
   5.3699999999999998E-002   -0.99940341711044312     
   5.4000000000000006E-002    0.14333266019821167     
   5.4300000000000001E-002     1.3095519542694092     
   5.4599999999999996E-002     2.4403297901153564     
   5.4900000000000004E-002     3.4743392467498779     
   5.5199999999999999E-002     4.3531618118286133     
   5.5499999999999994E-002     5.0242981910705566     
   5.5800000000000002E-002     5.4468340873718262     
   5.6099999999999997E-002     5.5927290916442871     
   5.6400000000000006E-002     5.4512252807617188     
   5.6700000000000000E-002     5.0281538963317871     
   5.6999999999999995E-002     4.3468618392944336     
   5.7300000000000004E-002     3.4475486278533936     
   5.7599999999999998E-002     2.3824105262756348     
   5.7900000000000007E-002     1.2154880762100220     
   5.8200000000000002E-002     1.6616370528936386E-002
   5.8499999999999996E-002    -1.1433357000350952     
   5.8800000000000005E-002    -2.1941468715667725     
   5.9100000000000000E-002    -3.0738673210144043     
   5.9400000000000008E-002    -3.7302830219268799     
   5.9700000000000003E-002    -4.1241083145141602     
   6.0000000000000012E-002    -4.2320361137390137     
   6.0300000000000006E-002    -4.0472817420959473     
   6.0600000000000001E-002    -3.5788822174072266     
   6.0900000000000010E-002    -2.8524515628814697     
   6.1200000000000004E-002    -1.9070396423339844     
   6.1500000000000013E-002   -0.79216921329498291     
   6.1800000000000008E-002    0.43315646052360535     
   6.2100000000000002E-002     1.7069398164749146     
   6.2399999999999997E-002     2.9654018878936768     
   6.2700000000000006E-002     4.1467809677124023     
   6.3000000000000000E-002     5.1970596313476562     
   6.3300000000000009E-002     6.0677909851074219     
   6.3600000000000004E-002     6.7232275009155273     
   6.3899999999999998E-002     7.1378803253173828     
   6.4199999999999993E-002     7.2986273765563965     
   6.4500000000000002E-002     7.2046389579772949     
   6.4800000000000010E-002     6.8654041290283203     
   6.5100000000000005E-002     6.3013157844543457     
   6.5400000000000000E-002     5.5401768684387207     
   6.5700000000000008E-002     4.6167054176330566     
   6.5999999999999989E-002     3.5700435638427734     
   6.6299999999999998E-002     2.4415049552917480     
   6.6600000000000006E-002     1.2737083435058594     
   6.6900000000000001E-002    0.10809053480625153     
   6.7199999999999996E-002    -1.0152368545532227     
   6.7500000000000004E-002    -2.0611102581024170     
   6.7800000000000013E-002    -2.9963393211364746     
   6.8099999999999994E-002    -3.7946977615356445     
   6.8400000000000002E-002    -4.4352297782897949     
   6.8700000000000011E-002    -4.9022850990295410     
   6.8999999999999992E-002    -5.1891622543334961     
   6.9300000000000000E-002    -5.2953515052795410     
   6.9600000000000009E-002    -5.2287020683288574     
   6.9900000000000004E-002    -5.0062527656555176     
   7.0199999999999999E-002    -4.6521739959716797     
   7.0500000000000007E-002    -4.1992096900939941     
   7.0800000000000016E-002    -3.6871666908264160     
   7.1099999999999997E-002    -3.1607179641723633     
   7.1400000000000005E-002    -2.6675488948822021     
   7.1700000000000000E-002    -2.2560045719146729     
   7.1999999999999995E-002    -1.9698158502578735     
   7.2300000000000003E-002    -1.8462191820144653     
   7.2600000000000012E-002    -1.9107109308242798     
   7.2900000000000006E-002    -2.1749181747436523     
   7.3200000000000001E-002    -2.6327650547027588     
   7.3499999999999996E-002    -3.2599320411682129     
   7.3800000000000004E-002    -4.0136389732360840     
   7.4099999999999999E-002    -4.8352174758911133     
   7.4400000000000008E-002    -5.6516108512878418     
   7.4700000000000003E-002    -6.3832793235778809     
   7.5000000000000011E-002    -6.9491014480590820     
   7.5299999999999992E-002    -7.2724900245666504     
   7.5600000000000001E-002    -7.2905106544494629     
   7.5900000000000009E-002    -6.9599781036376953     
   7.6200000000000004E-002    -6.2610201835632324     
   7.6499999999999999E-002    -5.2022428512573242     
   7.6800000000000007E-002    -3.8225646018981934     
   7.7099999999999988E-002    -2.1861152648925781     
   7.7399999999999997E-002   -0.38286519050598145     
   7.7700000000000005E-002     1.4800733327865601     
   7.8000000000000014E-002     3.2881498336791992     
   7.8299999999999995E-002     4.9243311882019043     
   7.8600000000000003E-002     6.2833623886108398     
   7.8900000000000012E-002     7.2798213958740234     
   7.9199999999999993E-002     7.8543710708618164     
   7.9500000000000001E-002     7.9830412864685059     
   7.9800000000000010E-002     7.6801080703735352     
   8.0100000000000018E-002     6.9952340126037598     
   8.0399999999999999E-002     6.0160140991210938     
   8.0700000000000008E-002     4.8575592041015625     
   8.1000000000000003E-002     3.6516067981719971     
   8.1299999999999997E-002     2.5410742759704590     
   8.1600000000000006E-002     1.6604440212249756     
   8.1900000000000014E-002     1.1215412616729736     
   8.2199999999999995E-002     1.0093762874603271     
   8.2500000000000004E-002     1.3593273162841797     
   8.2799999999999999E-002     2.1595227718353271     
   8.3100000000000007E-002     3.3460438251495361     
   8.3400000000000002E-002     4.8023481369018555     
   8.3700000000000011E-002     6.3732290267944336     
   8.4000000000000005E-002     7.8759799003601074     
   8.4300000000000000E-002     9.1134223937988281     
   8.4599999999999995E-002     9.9026536941528320     
   8.4900000000000003E-002     10.086201667785645     
   8.5199999999999998E-002     9.5536651611328125     
   8.5500000000000007E-002     8.2596845626831055     
   8.5800000000000001E-002     6.2269945144653320     
   8.6100000000000010E-002     3.5518412590026855     
   8.6399999999999991E-002    0.40285456180572510     
   8.6699999999999999E-002    -3.0010640621185303     
   8.7000000000000008E-002    -6.3973422050476074     
   8.7300000000000003E-002    -9.5077791213989258     
   8.7599999999999997E-002    -12.068665504455566     
   8.7900000000000006E-002    -13.840785026550293     
   8.8200000000000014E-002    -14.648642539978027     
   8.8499999999999995E-002    -14.387418746948242     
   8.8800000000000004E-002    -13.033298492431641     
   8.9100000000000013E-002    -10.653954505920410     
   8.9399999999999993E-002    -7.3990545272827148     
   8.9700000000000002E-002    -3.4835889339447021     
   9.0000000000000011E-002    0.81667947769165039     
   9.0299999999999991E-002     5.2006545066833496     
   9.0600000000000000E-002     9.3637886047363281     
   9.0900000000000009E-002     13.011491775512695     
   9.1200000000000017E-002     15.897800445556641     
   9.1499999999999998E-002     17.832319259643555     
   9.1800000000000007E-002     18.689313888549805     
   9.2100000000000001E-002     18.428462982177734     
   9.2399999999999996E-002     17.076492309570312     
   9.2700000000000005E-002     14.730447769165039     
   9.3000000000000013E-002     11.549527168273926     
   9.3300000000000008E-002     7.7291388511657715     
   9.3600000000000003E-002     3.4918785095214844     
   9.3899999999999997E-002   -0.92476081848144531     
   9.4200000000000006E-002    -5.3010196685791016     
   9.4500000000000001E-002    -9.4296245574951172     
   9.4800000000000009E-002    -13.137403488159180     
   9.5100000000000004E-002    -16.293909072875977     
   9.5399999999999999E-002    -18.805793762207031     
   9.5699999999999993E-002    -20.622316360473633     
   9.6000000000000002E-002    -21.737806320190430     
   9.6300000000000011E-002    -22.170049667358398     
   9.6600000000000005E-002    -21.969860076904297     
   9.6900000000000000E-002    -21.205495834350586     
   9.7200000000000009E-002    -19.948022842407227     
   9.7499999999999989E-002    -18.279956817626953     
   9.7799999999999998E-002    -16.275655746459961     
   9.8100000000000007E-002    -13.999381065368652     
   9.8400000000000015E-002    -11.514982223510742     
   9.8699999999999996E-002    -8.8685474395751953     
   9.9000000000000005E-002    -6.1036663055419922     
   9.9300000000000013E-002    -3.2611849308013916     
   9.9599999999999994E-002   -0.37673830986022949     
   9.9900000000000003E-002     2.5071086883544922     
  0.10020000000000001          5.3419404029846191     
  0.10049999999999999          8.0773086547851562     
  0.10080000000000000          10.648986816406250     
  0.10110000000000001          12.991855621337891     
  0.10140000000000000          15.042136192321777     
  0.10170000000000000          16.729885101318359     
  0.10200000000000001          18.004821777343750     
  0.10230000000000002          18.820400238037109     
  0.10260000000000000          19.150201797485352     
  0.10290000000000001          18.991500854492188     
  0.10320000000000000          18.356214523315430     
  0.10350000000000001          17.281995773315430     
  0.10380000000000000          15.826641082763672     
  0.10410000000000001          14.057196617126465     
  0.10440000000000001          12.058666229248047     
  0.10470000000000000          9.9183788299560547     
  0.10500000000000000          7.7198882102966309     
  0.10530000000000000          5.5479106903076172     
  0.10560000000000000          3.4717302322387695     
  0.10590000000000001          1.5455416440963745     
  0.10620000000000000        -0.18682859838008881     
  0.10650000000000001         -1.7057292461395264     
  0.10679999999999999         -3.0046069622039795     
  0.10710000000000000         -4.0911059379577637     
  0.10740000000000001         -4.9887833595275879     
  0.10770000000000000         -5.7257881164550781     
  0.10800000000000000         -6.3358917236328125     
  0.10830000000000001         -6.8536152839660645     
  0.10859999999999999         -7.3072304725646973     
  0.10890000000000000         -7.7149720191955566     
  0.10920000000000001         -8.0942859649658203     
  0.10950000000000001         -8.4378652572631836     
  0.10979999999999999         -8.7412853240966797     
  0.11009999999999999         -8.9840993881225586     
  0.11040000000000001         -9.1394510269165039     
  0.11070000000000001         -9.1825675964355469     
  0.11100000000000000         -9.0843191146850586     
  0.11130000000000000         -8.8231201171875000     
  0.11160000000000002         -8.3857698440551758     
  0.11190000000000001         -7.7666935920715332     
  0.11220000000000001         -6.9726123809814453     
  0.11250000000000000         -6.0240664482116699     
  0.11280000000000000         -4.9481973648071289     
  0.11309999999999999         -3.7821245193481445     
  0.11340000000000001         -2.5728011131286621     
  0.11369999999999998         -1.3601074218750000     
  0.11400000000000000        -0.19288910925388336     
  0.11430000000000000         0.88877362012863159     
  0.11460000000000002          1.8532532453536987     
  0.11489999999999999          2.6699335575103760     
  0.11520000000000001          3.3281497955322266     
  0.11550000000000001          3.8198723793029785     
  0.11580000000000000          4.1499795913696289     
  0.11609999999999999          4.3349032402038574     
  0.11640000000000002          4.3940258026123047     
  0.11670000000000001          4.3514804840087891     
  0.11700000000000001          4.2397308349609375     
  0.11730000000000000          4.0832514762878418     
  0.11760000000000000          3.9067006111145020     
  0.11789999999999999          3.7357723712921143     
  0.11820000000000001          3.5809333324432373     
  0.11850000000000001          3.4512507915496826     
  0.11880000000000000          3.3497009277343750     
  0.11910000000000000          3.2670629024505615     
  0.11940000000000002          3.1936705112457275     
  0.11970000000000001          3.1140007972717285     
  0.12000000000000001          3.0085167884826660     
  0.12030000000000000          2.8613810539245605     
  0.12060000000000000          2.6537005901336670     
  0.12089999999999999          2.3752398490905762     
  0.12119999999999999          2.0181574821472168     
  0.12150000000000001          1.5822231769561768     
  0.12180000000000001          1.0759472846984863     
  0.12210000000000000         0.51463341712951660     
  0.12239999999999999         -7.8766934573650360E-002
  0.12270000000000002        -0.67666977643966675     
  0.12300000000000001         -1.2447769641876221     
  0.12330000000000001         -1.7538809776306152     
  0.12360000000000000         -2.1689343452453613     
  0.12390000000000000         -2.4652323722839355     
  0.12419999999999999         -2.6251857280731201     
  0.12450000000000001         -2.6357374191284180     
  0.12480000000000001         -2.5015909671783447     
  0.12509999999999999         -2.2345485687255859     
  0.12540000000000001         -1.8577476739883423     
  0.12570000000000003         -1.4048559665679932     
  0.12600000000000000        -0.91450262069702148     
  0.12630000000000002        -0.42716246843338013     
  0.12659999999999999          1.6287347301840782E-002
  0.12690000000000001         0.37936016917228699     
  0.12719999999999998         0.63559657335281372     
  0.12750000000000000         0.76561355590820312     
  0.12780000000000002         0.76374906301498413     
  0.12809999999999999         0.63535499572753906     
  0.12840000000000001         0.39675712585449219     
  0.12869999999999998          7.4931256473064423E-002
  0.12900000000000000        -0.29819479584693909     
  0.12930000000000003        -0.68616676330566406     
  0.12959999999999999         -1.0506880283355713     
  0.12990000000000002         -1.3587486743927002     
  0.13019999999999998         -1.5805302858352661     
  0.13050000000000000         -1.6939250230789185     
  0.13080000000000003         -1.6887954473495483     
  0.13109999999999999         -1.5620070695877075     
  0.13140000000000002         -1.3206521272659302     
  0.13169999999999998        -0.98408704996109009     
  0.13200000000000001        -0.57497835159301758     
  0.13229999999999997        -0.12462054193019867     
  0.13260000000000000         0.33147779107093811     
  0.13290000000000002         0.76144391298294067     
  0.13319999999999999          1.1325039863586426     
  0.13350000000000001          1.4151258468627930     
  0.13380000000000003          1.5934011936187744     
  0.13410000000000000          1.6511508226394653     
  0.13440000000000002          1.5895437002182007     
  0.13469999999999999          1.4149792194366455     
  0.13500000000000001          1.1437937021255493     
  0.13529999999999998         0.80155301094055176     
  0.13560000000000000         0.41560730338096619     
  0.13590000000000002          1.8694095313549042E-002
  0.13619999999999999        -0.35752037167549133     
  0.13650000000000001        -0.68470406532287598     
  0.13680000000000003        -0.93899267911911011     
  0.13710000000000000         -1.1029310226440430     
  0.13740000000000002         -1.1686865091323853     
  0.13769999999999999         -1.1365991830825806     
  0.13800000000000001         -1.0138820409774780     
  0.13829999999999998        -0.81840628385543823     
  0.13860000000000000        -0.56922656297683716     
  0.13890000000000002        -0.29164040088653564     
  0.13919999999999999         -1.2239456176757812E-002
  0.13950000000000001         0.24615608155727386     
  0.13979999999999998         0.46174433827400208     
  0.14010000000000000         0.61875927448272705     
  0.14040000000000002         0.70979291200637817     
  0.14069999999999999         0.73257517814636230     
  0.14100000000000001         0.69192647933959961     
  0.14130000000000004         0.60228842496871948     
  0.14160000000000000         0.47704178094863892     
  0.14189999999999997         0.33742493391036987     
  0.14219999999999999         0.20305119454860687     
  0.14250000000000002          9.0244695544242859E-002
  0.14279999999999998          1.5914818271994591E-002
  0.14310000000000000         -1.2830236926674843E-002
  0.14339999999999997          9.4721689820289612E-003
  0.14369999999999999          7.7989540994167328E-002
  0.14400000000000002         0.18604944646358490     
  0.14429999999999998         0.31948071718215942     
  0.14460000000000001         0.46124097704887390     
  0.14490000000000003         0.59544199705123901     
  0.14520000000000000         0.70249670743942261     
  0.14550000000000002         0.77051478624343872     
  0.14579999999999999         0.78742045164108276     
  0.14610000000000001         0.74641114473342896     
  0.14640000000000003         0.64865064620971680     
  0.14670000000000000         0.49410215020179749     
  0.14699999999999996         0.29474034905433655     
  0.14729999999999999          6.2171518802642822E-002
  0.14760000000000001        -0.18876770138740540     
  0.14789999999999998        -0.43756884336471558     
  0.14820000000000000        -0.66821682453155518     