  -1.4999999999999999E-002     0.0000000000000000     
  -1.4700000000000000E-002     0.0000000000000000     
  -1.4400000000000000E-002     0.0000000000000000     
  -1.4100000000000000E-002     0.0000000000000000     
  -1.3800000000000000E-002     0.0000000000000000     
  -1.3500000000000000E-002     0.0000000000000000     
  -1.3200000000000000E-002     0.0000000000000000     
  -1.2899999999999998E-002     0.0000000000000000     
  -1.2600000000000000E-002     0.0000000000000000     
  -1.2299999999999998E-002     0.0000000000000000     
  -1.2000000000000000E-002     0.0000000000000000     
  -1.1699999999999999E-002     0.0000000000000000     
  -1.1399999999999999E-002     0.0000000000000000     
  -1.1099999999999999E-002     0.0000000000000000     
  -1.0799999999999999E-002     0.0000000000000000     
  -1.0499999999999999E-002     0.0000000000000000     
  -1.0199999999999999E-002     0.0000000000000000     
  -9.8999999999999991E-003     0.0000000000000000     
  -9.5999999999999992E-003     0.0000000000000000     
  -9.2999999999999992E-003     0.0000000000000000     
  -8.9999999999999993E-003     0.0000000000000000     
  -8.6999999999999994E-003     0.0000000000000000     
  -8.3999999999999995E-003     0.0000000000000000     
  -8.0999999999999996E-003     0.0000000000000000     
  -7.7999999999999988E-003     0.0000000000000000     
  -7.4999999999999997E-003     0.0000000000000000     
  -7.1999999999999998E-003     0.0000000000000000     
  -6.8999999999999981E-003     0.0000000000000000     
  -6.5999999999999982E-003     0.0000000000000000     
  -6.3000000000000000E-003     0.0000000000000000     
  -6.0000000000000001E-003     0.0000000000000000     
  -5.6999999999999985E-003     0.0000000000000000     
  -5.3999999999999986E-003     0.0000000000000000     
  -5.1000000000000004E-003     0.0000000000000000     
  -4.7999999999999987E-003     0.0000000000000000     
  -4.5000000000000005E-003     0.0000000000000000     
  -4.1999999999999989E-003     0.0000000000000000     
  -3.8999999999999990E-003     0.0000000000000000     
  -3.5999999999999990E-003     0.0000000000000000     
  -3.2999999999999991E-003     0.0000000000000000     
  -2.9999999999999992E-003     0.0000000000000000     
  -2.6999999999999993E-003     0.0000000000000000     
  -2.3999999999999994E-003     0.0000000000000000     
  -2.0999999999999977E-003     0.0000000000000000     
  -1.7999999999999995E-003     0.0000000000000000     
  -1.4999999999999979E-003     0.0000000000000000     
  -1.1999999999999997E-003     0.0000000000000000     
  -8.9999999999999976E-004     0.0000000000000000     
  -5.9999999999999810E-004     0.0000000000000000     
  -2.9999999999999992E-004     0.0000000000000000     
   0.0000000000000000          0.0000000000000000     
   3.0000000000000165E-004     0.0000000000000000     
   5.9999999999999984E-004     0.0000000000000000     
   9.0000000000000149E-004     0.0000000000000000     
   1.2000000000000031E-003     0.0000000000000000     
   1.5000000000000013E-003     0.0000000000000000     
   1.8000000000000030E-003     0.0000000000000000     
   2.1000000000000012E-003     0.0000000000000000     
   2.3999999999999994E-003     0.0000000000000000     
   2.7000000000000010E-003     0.0000000000000000     
   2.9999999999999992E-003     0.0000000000000000     
   3.3000000000000008E-003     0.0000000000000000     
   3.6000000000000025E-003     0.0000000000000000     
   3.9000000000000007E-003     0.0000000000000000     
   4.2000000000000023E-003     0.0000000000000000     
   4.5000000000000005E-003     0.0000000000000000     
   4.7999999999999987E-003     0.0000000000000000     
   5.1000000000000004E-003     0.0000000000000000     
   5.4000000000000020E-003     0.0000000000000000     
   5.7000000000000037E-003     0.0000000000000000     
   5.9999999999999984E-003     0.0000000000000000     
   6.3000000000000000E-003     0.0000000000000000     
   6.6000000000000017E-003     0.0000000000000000     
   6.9000000000000034E-003     0.0000000000000000     
   7.2000000000000015E-003     0.0000000000000000     
   7.5000000000000032E-003     0.0000000000000000     
   7.8000000000000014E-003     0.0000000000000000     
   8.0999999999999996E-003     0.0000000000000000     
   8.4000000000000012E-003     0.0000000000000000     
   8.7000000000000029E-003     0.0000000000000000     
   9.0000000000000011E-003     0.0000000000000000     
   9.2999999999999992E-003     0.0000000000000000     
   9.6000000000000009E-003     0.0000000000000000     
   9.8999999999999991E-003     0.0000000000000000     
   1.0200000000000001E-002     0.0000000000000000     
   1.0500000000000002E-002     0.0000000000000000     
   1.0800000000000004E-002     0.0000000000000000     
   1.1099999999999999E-002     0.0000000000000000     
   1.1400000000000000E-002     0.0000000000000000     
   1.1700000000000002E-002     0.0000000000000000     
   1.2000000000000004E-002     0.0000000000000000     
   1.2300000000000002E-002     0.0000000000000000     
   1.2600000000000000E-002     0.0000000000000000     
   1.2900000000000002E-002     0.0000000000000000     
   1.3200000000000000E-002     0.0000000000000000     
   1.3500000000000002E-002     0.0000000000000000     
   1.3800000000000003E-002     0.0000000000000000     
   1.4100000000000001E-002     0.0000000000000000     
   1.4400000000000000E-002     0.0000000000000000     
   1.4700000000000001E-002     0.0000000000000000     
   1.4999999999999999E-002     0.0000000000000000     
   1.5300000000000001E-002     0.0000000000000000     
   1.5600000000000003E-002     0.0000000000000000     
   1.5899999999999997E-002     0.0000000000000000     
   1.6199999999999999E-002     0.0000000000000000     
   1.6500000000000001E-002     0.0000000000000000     
   1.6800000000000002E-002     0.0000000000000000     
   1.7100000000000004E-002     0.0000000000000000     
   1.7400000000000006E-002     0.0000000000000000     
   1.7700000000000000E-002     0.0000000000000000     
   1.8000000000000002E-002     0.0000000000000000     
   1.8300000000000004E-002     0.0000000000000000     
   1.8600000000000005E-002     0.0000000000000000     
   1.8900000000000000E-002     0.0000000000000000     
   1.9200000000000002E-002     0.0000000000000000     
   1.9500000000000003E-002     0.0000000000000000     
   1.9799999999999998E-002     0.0000000000000000     
   2.0100000000000000E-002     0.0000000000000000     
   2.0400000000000001E-002     0.0000000000000000     
   2.0700000000000003E-002     0.0000000000000000     
   2.0999999999999998E-002     0.0000000000000000     
   2.1299999999999999E-002     0.0000000000000000     
   2.1600000000000001E-002     0.0000000000000000     
   2.1900000000000003E-002     0.0000000000000000     
   2.2200000000000004E-002     0.0000000000000000     
   2.2500000000000006E-002     0.0000000000000000     
   2.2800000000000001E-002     0.0000000000000000     
   2.3100000000000002E-002     0.0000000000000000     
   2.3400000000000004E-002     0.0000000000000000     
   2.3699999999999999E-002     0.0000000000000000     
   2.4000000000000000E-002     0.0000000000000000     
   2.4300000000000002E-002     0.0000000000000000     
   2.4599999999999997E-002     0.0000000000000000     
   2.4900000000000005E-002     0.0000000000000000     
   2.5200000000000000E-002     0.0000000000000000     
   2.5499999999999995E-002     0.0000000000000000     
   2.5800000000000003E-002    -5.9440189680081969E-044
   2.6099999999999998E-002     4.0977945084733634E-043
   2.6400000000000007E-002    -2.7088642539486437E-037
   2.6700000000000002E-002    -1.6415053131704564E-036
   2.6999999999999996E-002     5.1184205345018776E-035
   2.7300000000000005E-002    -2.6626416296010727E-034
   2.7600000000000000E-002    -3.7307398834953404E-033
   2.7900000000000008E-002     1.4025789026009197E-032
   2.8200000000000003E-002    -3.4346823406978837E-032
   2.8499999999999998E-002     8.8945450049705968E-032
   2.8800000000000006E-002    -2.2934690707833719E-031
   2.9100000000000001E-002     5.1540146580953579E-031
   2.9400000000000003E-002    -9.1831266354528626E-031
   2.9700000000000004E-002     8.3691708698208784E-031
   3.0000000000000006E-002     2.8134229604057379E-030
   3.0300000000000001E-002    -2.1844984031665846E-029
   3.0600000000000002E-002     9.4907213204913640E-029
   3.0900000000000004E-002    -3.3434838206578298E-028
   3.1199999999999999E-002     1.0318468492578876E-027
   3.1500000000000007E-002    -2.8533524828667215E-027
   3.1800000000000002E-002     7.0741499469129704E-027
   3.2099999999999997E-002    -1.5451144491812596E-026
   3.2400000000000005E-002     2.8271341445782973E-026
   3.2700000000000000E-002    -3.6653890156464209E-026
   3.3000000000000002E-002     8.5815662004266241E-028
   3.3300000000000003E-002     1.9780743859203239E-025
   3.3599999999999998E-002    -8.3748063529388670E-025
   3.3900000000000000E-002     2.4300832667504760E-024
   3.4200000000000001E-002    -5.6259060643605713E-024
   3.4500000000000003E-002     1.0577498769093674E-023
   3.4799999999999998E-002    -1.5271949815612000E-023
   3.5099999999999999E-002     1.2637146404512368E-023
   3.5400000000000001E-002     1.3403829195447005E-023
   3.5699999999999996E-002    -9.4896023655866216E-023
   3.6000000000000004E-002     2.9819650467858160E-022
   3.6299999999999999E-002    -7.5455722848037278E-022
   3.6600000000000008E-002     1.6215390779944269E-021
   3.6900000000000002E-002    -2.7036461370433383E-021
   3.7199999999999997E-002     2.4138389020882362E-021
   3.7500000000000006E-002     3.6080443057075222E-021
   3.7800000000000000E-002    -2.3198003449764745E-020
   3.8100000000000009E-002     6.9038753013180866E-020
   3.8400000000000004E-002    -1.6326432560374028E-019
   3.8699999999999998E-002     3.0559547757718519E-019
   3.9000000000000007E-002    -2.1214504234820398E-019
   3.9300000000000002E-002    -1.4560252170953309E-018
   3.9600000000000003E-002     7.6807379796085290E-018
   3.9900000000000005E-002    -1.9245014197275354E-017
   4.0200000000000000E-002     1.8348199169060557E-017
   4.0500000000000001E-002     5.7696830528971318E-017
   4.0800000000000003E-002    -2.9871745608841162E-016
   4.1100000000000005E-002     6.2675473672531425E-016
   4.1399999999999999E-002    -3.4488003179528589E-016
   4.1700000000000008E-002    -2.1379061769705236E-015
   4.2000000000000003E-002     7.9660143450244108E-015
   4.2299999999999997E-002    -1.3139888343004406E-014
   4.2600000000000006E-002     1.7140239055432576E-015
   4.2900000000000001E-002     5.3928454130099670E-014
   4.3200000000000002E-002    -1.6517543916913102E-013
   4.3500000000000004E-002     2.4091667549436294E-013
   4.3799999999999999E-002     6.2478693926662149E-014
   4.4100000000000000E-002    -1.3492269480533198E-012
   4.4400000000000002E-002     3.5756121527290304E-012
   4.4700000000000004E-002    -3.2859304486659877E-012
   4.4999999999999998E-002    -8.6344188520135111E-012
   4.5300000000000000E-002     3.7312370164620810E-011
   4.5600000000000002E-002    -4.9004118947917114E-011
   4.5899999999999996E-002    -5.8354679602235234E-011
   4.6200000000000005E-002     3.4350862453422221E-010
   4.6500000000000000E-002    -4.4278894444782658E-010
   4.6799999999999994E-002    -6.2967711843502333E-010
   4.7100000000000003E-002     2.9912607263599020E-009
   4.7399999999999998E-002    -2.3308201276335500E-009
   4.7700000000000006E-002    -8.5988337012868529E-009
   4.8000000000000001E-002     2.1138794147353219E-008
   4.8300000000000010E-002     7.1033261753681137E-009
   4.8600000000000004E-002    -8.9112278381430927E-008
   4.8899999999999999E-002     5.9445943245602451E-008
   4.9200000000000008E-002     2.8018682125988901E-007
   4.9500000000000002E-002    -4.7192057135657346E-007
   4.9800000000000011E-002    -8.5240289452726604E-007
   5.0100000000000006E-002     3.9205272475441969E-006
   5.0400000000000000E-002     1.4467953357109117E-005
   5.0700000000000009E-002     2.4168097440100510E-005
   5.1000000000000004E-002     3.0808158045315727E-005
   5.1299999999999998E-002     4.1297014714156151E-005
   5.1600000000000007E-002     6.0851114424004421E-005
   5.1900000000000002E-002     9.1475419858233630E-005
   5.2200000000000010E-002     1.3697762908079084E-004
   5.2500000000000005E-002     2.0093559572994596E-004
   5.2800000000000000E-002     2.9181607476594384E-004
   5.3099999999999994E-002     4.2641762323365095E-004
   5.3400000000000003E-002     6.1746907826638919E-004
   5.3699999999999998E-002     8.7020755672900612E-004
   5.4000000000000006E-002     1.1959936221993055E-003
   5.4300000000000001E-002     1.6144450037021952E-003
   5.4599999999999996E-002     2.1416647339883512E-003
   5.4900000000000004E-002     2.7842530954972433E-003
   5.5199999999999999E-002     3.5338692801920031E-003
   5.5499999999999994E-002     4.3649892288084562E-003
   5.5800000000000002E-002     5.2364845719725947E-003
   5.6099999999999997E-002     6.0774432451482291E-003
   5.6400000000000006E-002     6.7680831957313801E-003
   5.6700000000000000E-002     7.1372170889677589E-003
   5.6999999999999995E-002     6.9702016144486236E-003
   5.7300000000000004E-002     6.0031278956928806E-003
   5.7599999999999998E-002     3.9161294677517253E-003
   5.7900000000000007E-002     3.5607337260893496E-004
   5.8200000000000002E-002    -5.0277877618540821E-003
   5.8499999999999996E-002    -1.2553286739687589E-002
   5.8800000000000005E-002    -2.2452566775129114E-002
   5.9100000000000000E-002    -3.4790743148172189E-002
   5.9400000000000008E-002    -4.9407456080041053E-002
   5.9700000000000003E-002    -6.5862223523271993E-002
   6.0000000000000012E-002    -8.3338484196687393E-002
   6.0300000000000006E-002   -0.10060665015498768     
   6.0600000000000001E-002   -0.11604290461245077     
   6.0900000000000010E-002   -0.12763170905406962     
   6.1200000000000004E-002   -0.13303524264719765     
   6.1500000000000013E-002   -0.12978458414804489     
   6.1800000000000008E-002   -0.11548476677338983     
   6.2100000000000002E-002    -8.8060133266057786E-002
   6.2399999999999997E-002    -4.6072788623468308E-002
   6.2700000000000006E-002     1.1020505748493625E-002
   6.3000000000000000E-002     8.2593806093266997E-002
   6.3300000000000009E-002    0.16657869526502278     
   6.3600000000000004E-002    0.25939574856624120     
   6.3899999999999998E-002    0.35603877933302408     
   6.4199999999999993E-002    0.45019820377771097     
   6.4500000000000002E-002    0.53462761700066930     
   6.4800000000000010E-002    0.60169863774043308     
   6.5100000000000005E-002    0.64399790849389493     
   6.5400000000000000E-002    0.65503859614886073     
   6.5700000000000008E-002    0.62999689678125681     
   6.5999999999999989E-002    0.56631070473267553     
   6.6299999999999998E-002    0.46417152972088455     
   6.6600000000000006E-002    0.32682493405377211     
   6.6900000000000001E-002    0.16058017368061581     
   6.7199999999999996E-002    -2.5513503436589629E-002
   6.7500000000000004E-002   -0.22021295135746616     
   6.7800000000000013E-002   -0.41085994284777999     
   6.8099999999999994E-002   -0.58436954099554905     
   6.8400000000000002E-002   -0.72838384026139236     
   6.8700000000000011E-002   -0.83225703383134086     
   6.8999999999999992E-002   -0.88804006744954189     
   6.9300000000000000E-002   -0.89123547262904301     
   6.9600000000000009E-002   -0.84125048114918355     
   6.9900000000000004E-002   -0.74151635358630807     
   7.0199999999999999E-002   -0.59926909382311178     
   7.0500000000000007E-002   -0.42498946341105492     
   7.0800000000000016E-002   -0.23159273087848634     
   7.1099999999999997E-002    -3.3426479296613833E-002
   7.1400000000000005E-002    0.15497025812635357     
   7.1700000000000000E-002    0.31998640308424880     
   7.1999999999999995E-002    0.44988608412804110     
   7.2300000000000003E-002    0.53574901913632411     
   7.2600000000000012E-002    0.57212782036117360     
   7.2900000000000006E-002    0.55734521305661056     
   7.3200000000000001E-002    0.49343657664117307     
   7.3499999999999996E-002    0.38592112242344723     
   7.3800000000000004E-002    0.24332931811851571     
   7.4099999999999999E-002     7.6399648270318823E-002
   7.4400000000000008E-002   -0.10289720316007928     
   7.4700000000000003E-002   -0.28220677279577006     
   7.5000000000000011E-002   -0.44953611436481938     
   7.5299999999999992E-002   -0.59435224522251673     
   7.5600000000000001E-002   -0.70816707648830923     
   7.5900000000000009E-002   -0.78492528281172269     
   7.6200000000000004E-002   -0.82137000680794958     
   7.6499999999999999E-002   -0.81699657592940556     
   7.6800000000000007E-002   -0.77396398959116552     
   7.7099999999999988E-002   -0.69676017948442948     
   7.7399999999999997E-002   -0.59161883775648871     
   7.7700000000000005E-002   -0.46594962644419424     
   7.8000000000000014E-002   -0.32773167036320250     
   7.8299999999999995E-002   -0.18493335051855292     
   7.8600000000000003E-002    -4.4702113209383998E-002
   7.8900000000000012E-002     8.6941979795448571E-002
   7.9199999999999993E-002    0.20548011407179945     
   7.9500000000000001E-002    0.30814936850639008     
   7.9800000000000010E-002    0.39392358201098360     
   8.0100000000000018E-002    0.46347114610269896     
   8.0399999999999999E-002    0.51877582255925703     
   8.0700000000000008E-002    0.56267303415257830     
   8.1000000000000003E-002    0.59854269207201016     
   8.1299999999999997E-002    0.62967926422596054     
   8.1600000000000006E-002    0.65884179000873622     
   8.1900000000000014E-002    0.68775004231225811     
   8.2199999999999995E-002    0.71679782907102074     
   8.2500000000000004E-002    0.74508941168737486     
   8.2799999999999999E-002    0.77040064286923327     
   8.3100000000000007E-002    0.78910088454813321     
   8.3400000000000002E-002    0.79689186699069225     
   8.3700000000000011E-002    0.78927206863313915     
   8.4000000000000005E-002    0.76173180203208712     
   8.4300000000000000E-002    0.71067243676575620     
   8.4599999999999995E-002    0.63381498924707402     
   8.4900000000000003E-002    0.53035443911884483     
   8.5199999999999998E-002    0.40167266043498290     
   8.5500000000000007E-002    0.25099497973464718     
   8.5800000000000001E-002     8.3358421569860203E-002
   8.6100000000000010E-002    -9.4577893691643183E-002
   8.6399999999999991E-002   -0.27508905511383208     
   8.6699999999999999E-002   -0.44988915284520709     
   8.7000000000000008E-002   -0.61076873485971905     
   8.7300000000000003E-002   -0.75026279619395186     
   8.7599999999999997E-002   -0.86214482702709661     
   8.7900000000000006E-002   -0.94168376834752576     
   8.8200000000000014E-002   -0.98612463386683402     
   8.8499999999999995E-002   -0.99491971645704347     
   8.8800000000000004E-002   -0.96918493423090335     
   8.9100000000000013E-002   -0.91185462393209304     
   8.9399999999999993E-002   -0.82737439802701862     
   8.9700000000000002E-002   -0.72084599675821859     
   9.0000000000000011E-002   -0.59793585489002510     
   9.0299999999999991E-002   -0.46406760775102823     
   9.0600000000000000E-002   -0.32419788817741779     
   9.0900000000000009E-002   -0.18262156839929194     
   9.1200000000000017E-002    -4.2475439654897890E-002
   9.1499999999999998E-002     9.4218239023295652E-002
   9.1800000000000007E-002    0.22627057107419168     
   9.2100000000000001E-002    0.35300743543900098     
   9.2399999999999996E-002    0.47417861186719745     
   9.2700000000000005E-002    0.58950263227317856     
   9.3000000000000013E-002    0.69803959100648083     
   9.3300000000000008E-002    0.79799562670100710     
   9.3600000000000003E-002    0.88635796300925818     
   9.3899999999999997E-002    0.95911932001868205     
   9.4200000000000006E-002     1.0111153128631576     
   9.4500000000000001E-002     1.0361007456584836     
   9.4800000000000009E-002     1.0277819639981314     
   9.5100000000000004E-002    0.98002588835153648     
   9.5399999999999999E-002    0.88746881582216819     
   9.5699999999999993E-002    0.74666768414194939     
   9.6000000000000002E-002    0.55632108555703452     
   9.6300000000000011E-002    0.31795251473015368     
   9.6600000000000005E-002     3.6614191668182985E-002
   9.6900000000000000E-002   -0.27958613573634827     
   9.7200000000000009E-002   -0.61953932014267699     
   9.7499999999999989E-002   -0.96902287004309762     
   9.7799999999999998E-002    -1.3120151762413816     
   9.8100000000000007E-002    -1.6315194378045708     
   9.8400000000000015E-002    -1.9103970541685280     
   9.8699999999999996E-002    -2.1324887293837258     
   9.9000000000000005E-002    -2.2837209724141641     
   9.9300000000000013E-002    -2.3530604866449982     
   9.9599999999999994E-002    -2.3332259684591472     
   9.9900000000000003E-002    -2.2210266620777248     
  0.10020000000000001         -2.0175063641652815     
  0.10049999999999999         -1.7280247242726121     
  0.10080000000000000         -1.3622601061028117     
  0.10110000000000001        -0.93288403995382363     
  0.10140000000000000        -0.45544171535906641     
  0.10170000000000000          5.2036835235130315E-002
  0.10200000000000001         0.57035964648716764     
  0.10230000000000002          1.0798588991189488     
  0.10260000000000000          1.5609406240176753     
  0.10290000000000001          1.9948438420361658     
  0.10320000000000000          2.3644843123334942     
  0.10350000000000001          2.6549520521783432     
  0.10380000000000000          2.8546905552465192     
  0.10410000000000001          2.9557006397989518     
  0.10440000000000001          2.9539289516560294     
  0.10470000000000000          2.8501775309137791     
  0.10500000000000000          2.6504540487559392     
  0.10530000000000000          2.3652401012121826     
  0.10560000000000000          2.0093543567324725     
  0.10590000000000001          1.6018382344206334     
  0.10620000000000000          1.1641670491669256     
  0.10650000000000001         0.71927815848977050     
  0.10679999999999999         0.28980437009977200     
  0.10710000000000000        -0.10323531921286000     
  0.10740000000000001        -0.44195243804836215     
  0.10770000000000000        -0.71319514692762898     
  0.10800000000000000        -0.90920430663759277     
  0.10830000000000001         -1.0278997450551002     
  0.10859999999999999         -1.0727843079416395     
  0.10890000000000000         -1.0525317226792141     
  0.10920000000000001        -0.97987288567808073     
  0.10950000000000001        -0.86985040002249714     
  0.10979999999999999        -0.73842287305920629     
  0.11009999999999999        -0.60125285565935582     
  0.11040000000000001        -0.47225385998475999     
  0.11070000000000001        -0.36224102978456507     
  0.11100000000000000        -0.27867048901392327     
  0.11130000000000000        -0.22592070551797486     
  0.11160000000000002        -0.20502684796892232     
  0.11190000000000001        -0.21445518466765540     
  0.11220000000000001        -0.25100621292562991     
  0.11250000000000000        -0.31047177026908490     
  0.11280000000000000        -0.38871240343098440     
  0.11309999999999999        -0.48161545157780344     
  0.11340000000000001        -0.58524775327515910     
  0.11369999999999998        -0.69619959489856853     
  0.11400000000000000        -0.81113761641909798     
  0.11430000000000000        -0.92572271887896573     
  0.11460000000000002         -1.0349472776757545     
  0.11489999999999999         -1.1326230788807194     
  0.11520000000000001         -1.2110159428698126     
  0.11550000000000001         -1.2614902295819028     
  0.11580000000000000         -1.2750527901707849     
  0.11609999999999999         -1.2432700441456246     
  0.11640000000000002         -1.1593861626219473     
  0.11670000000000001         -1.0190718219170996     
  0.11700000000000001        -0.82201618382562358     
  0.11730000000000000        -0.57213044544966574     
  0.11760000000000000        -0.27796501233650939     
  0.11789999999999999          4.7652629601912452E-002
  0.11820000000000001         0.38816147876695467     
  0.11850000000000001         0.72434896144686201     
  0.11880000000000000          1.0360549688755132     
  0.11910000000000000          1.3036928184978920     
  0.11940000000000002          1.5098959222355504     
  0.11970000000000001          1.6406772158137728     
  0.12000000000000001          1.6869571236755425     
  0.12030000000000000          1.6455786260798857     
  0.12060000000000000          1.5187909639494548     
  0.12089999999999999          1.3145471850899912     
  0.12119999999999999          1.0463174623923979     
  0.12150000000000001         0.73137426812064166     
  0.12180000000000001         0.38988915517949224     
  0.12210000000000000          4.3876603754963314E-002
  0.12239999999999999        -0.28496259050354017     
  0.12270000000000002        -0.57579296473147568     
  0.12300000000000001        -0.81046247188981568     
  0.12330000000000001        -0.97474527138522349     
  0.12360000000000000         -1.0586043583148010     
  0.12390000000000000         -1.0569608208342751     
  0.12419999999999999        -0.97051036428700188     
  0.12450000000000001        -0.80521083045611574     
  0.12480000000000001        -0.57185042160223720     
  0.12509999999999999        -0.28600743734601153     
  0.12540000000000001          3.3103134624873139E-002
  0.12570000000000003         0.36402201292235953     
  0.12600000000000000         0.68372189666963878     
  0.12630000000000002         0.96937811112654437     
  0.12659999999999999          1.1997820123731677     
  0.12690000000000001          1.3566454646734627     
  0.12719999999999998          1.4262402069547264     
  0.12750000000000000          1.3997682359832364     
  0.12780000000000002          1.2746351998679271     
  0.12809999999999999          1.0550506167817746     
  0.12840000000000001         0.75129181742227436     
  0.12869999999999998         0.37948954724151318     
  0.12900000000000000         -3.9127306634253081E-002
  0.12930000000000003        -0.47967874491867835     
  0.12959999999999999        -0.91537850736446369     
  0.12990000000000002         -1.3195530159834488     
  0.13019999999999998         -1.6672896152357806     
  0.13050000000000000         -1.9370652467310516     
  0.13080000000000003         -2.1126680430093048     
  0.13109999999999999         -2.1843502601198983     
  0.13140000000000002         -2.1494810680554863     
  0.13169999999999998         -2.0121471995833962     
  0.13200000000000001         -1.7835416917309401     
  0.13229999999999997         -1.4803786404097914     
  0.13260000000000000         -1.1233999849996148     
  0.13290000000000002        -0.73614169255084605     
  0.13319999999999999        -0.34204337913351540     
  0.13350000000000001          3.6362439894669522E-002
  0.13380000000000003         0.37954669750549369     
  0.13410000000000000         0.67268389303092957     
  0.13440000000000002         0.90586060389808221     
  0.13469999999999999          1.0746500526264782     
  0.13500000000000001          1.1798174436264113     
  0.13529999999999998          1.2266514373431343     
  0.13560000000000000          1.2240285956339694     
  0.13590000000000002          1.1829780427588541     
  0.13619999999999999          1.1151948062020813     
  0.13650000000000001          1.0319663368885865     
  0.13680000000000003         0.94303352379701921     
  0.13710000000000000         0.85558182619635303     
  0.13740000000000002         0.77367038026088952     
  0.13769999999999999         0.69820660732312878     
  0.13800000000000001         0.62716579712147202     
  0.13829999999999998         0.55584895794892097     
  0.13860000000000000         0.47802209984809080     
  0.13890000000000002         0.38619440920286435     
  0.13919999999999999         0.27364796539848252     
  0.13950000000000001         0.13460326363321476     
  0.13979999999999998         -3.4599596297441894E-002
  0.14010000000000000        -0.23459422293732224     
  0.14040000000000002        -0.46205287826659264     
  0.14069999999999999        -0.71000957120302111     
  0.14100000000000001        -0.96793776379809615     
  0.14130000000000004         -1.2218314373614625     
  0.14160000000000000         -1.4549641579831403     
  0.14189999999999997         -1.6494067889446500     
  0.14219999999999999         -1.7872617239978978     
  0.14250000000000002         -1.8521822699962429     
  0.14279999999999998         -1.8303730512443310     
  0.14310000000000000         -1.7124759000661272     
  0.14339999999999997         -1.4948511179768558     
  0.14369999999999999         -1.1797432966037733     
  0.14400000000000002        -0.77552849795647327     
  0.14429999999999998        -0.29645762647501706     
  0.14460000000000001         0.23721607712785128     
  0.14490000000000003         0.80157934862727331     
  0.14520000000000000          1.3702725103558668     
  0.14550000000000002          1.9156806407921987     
  0.14579999999999999          2.4104387710058606     
  0.14610000000000001          2.8297462426854412     
  0.14640000000000003          3.1524925207727796     
  0.14670000000000000          3.3619279847345092     
  0.14699999999999996          3.4462771411829105     
  0.14729999999999999          3.3995926387771065     
  0.14760000000000001          3.2220108525923745     
  0.14789999999999998          2.9189512753342490     
  0.14820000000000000          2.5008287460382808     