  -1.4999999999999999E-002     0.0000000000000000     
  -1.4700000000000000E-002     0.0000000000000000     
  -1.4400000000000000E-002     0.0000000000000000     
  -1.4100000000000000E-002     0.0000000000000000     
  -1.3800000000000000E-002     0.0000000000000000     
  -1.3500000000000000E-002     0.0000000000000000     
  -1.3200000000000000E-002     0.0000000000000000     
  -1.2899999999999998E-002     0.0000000000000000     
  -1.2600000000000000E-002     0.0000000000000000     
  -1.2299999999999998E-002     0.0000000000000000     
  -1.2000000000000000E-002     0.0000000000000000     
  -1.1699999999999999E-002     0.0000000000000000     
  -1.1399999999999999E-002     0.0000000000000000     
  -1.1099999999999999E-002     0.0000000000000000     
  -1.0799999999999999E-002     0.0000000000000000     
  -1.0499999999999999E-002     0.0000000000000000     
  -1.0199999999999999E-002     0.0000000000000000     
  -9.8999999999999991E-003     0.0000000000000000     
  -9.5999999999999992E-003     0.0000000000000000     
  -9.2999999999999992E-003     0.0000000000000000     
  -8.9999999999999993E-003     0.0000000000000000     
  -8.6999999999999994E-003     0.0000000000000000     
  -8.3999999999999995E-003     0.0000000000000000     
  -8.0999999999999996E-003     0.0000000000000000     
  -7.7999999999999988E-003     0.0000000000000000     
  -7.4999999999999997E-003     0.0000000000000000     
  -7.1999999999999998E-003     0.0000000000000000     
  -6.8999999999999981E-003     0.0000000000000000     
  -6.5999999999999982E-003     0.0000000000000000     
  -6.3000000000000000E-003     0.0000000000000000     
  -6.0000000000000001E-003     0.0000000000000000     
  -5.6999999999999985E-003     0.0000000000000000     
  -5.3999999999999986E-003     0.0000000000000000     
  -5.1000000000000004E-003     0.0000000000000000     
  -4.7999999999999987E-003     0.0000000000000000     
  -4.5000000000000005E-003     0.0000000000000000     
  -4.1999999999999989E-003     0.0000000000000000     
  -3.8999999999999990E-003     0.0000000000000000     
  -3.5999999999999990E-003     0.0000000000000000     
  -3.2999999999999991E-003     0.0000000000000000     
  -2.9999999999999992E-003     0.0000000000000000     
  -2.6999999999999993E-003     0.0000000000000000     
  -2.3999999999999994E-003     0.0000000000000000     
  -2.0999999999999977E-003     0.0000000000000000     
  -1.7999999999999995E-003     0.0000000000000000     
  -1.4999999999999979E-003     0.0000000000000000     
  -1.1999999999999997E-003     0.0000000000000000     
  -8.9999999999999976E-004     0.0000000000000000     
  -5.9999999999999810E-004     0.0000000000000000     
  -2.9999999999999992E-004     0.0000000000000000     
   0.0000000000000000          0.0000000000000000     
   3.0000000000000165E-004     0.0000000000000000     
   5.9999999999999984E-004     0.0000000000000000     
   9.0000000000000149E-004     0.0000000000000000     
   1.2000000000000031E-003     0.0000000000000000     
   1.5000000000000013E-003     0.0000000000000000     
   1.8000000000000030E-003     0.0000000000000000     
   2.1000000000000012E-003     0.0000000000000000     
   2.3999999999999994E-003     0.0000000000000000     
   2.7000000000000010E-003     0.0000000000000000     
   2.9999999999999992E-003     0.0000000000000000     
   3.3000000000000008E-003     0.0000000000000000     
   3.6000000000000025E-003     0.0000000000000000     
   3.9000000000000007E-003     0.0000000000000000     
   4.2000000000000023E-003     0.0000000000000000     
   4.5000000000000005E-003     0.0000000000000000     
   4.7999999999999987E-003     0.0000000000000000     
   5.1000000000000004E-003     0.0000000000000000     
   5.4000000000000020E-003     0.0000000000000000     
   5.7000000000000037E-003     0.0000000000000000     
   5.9999999999999984E-003     0.0000000000000000     
   6.3000000000000000E-003     0.0000000000000000     
   6.6000000000000017E-003     0.0000000000000000     
   6.9000000000000034E-003     0.0000000000000000     
   7.2000000000000015E-003     0.0000000000000000     
   7.5000000000000032E-003     0.0000000000000000     
   7.8000000000000014E-003     0.0000000000000000     
   8.0999999999999996E-003     0.0000000000000000     
   8.4000000000000012E-003     0.0000000000000000     
   8.7000000000000029E-003     0.0000000000000000     
   9.0000000000000011E-003     0.0000000000000000     
   9.2999999999999992E-003     0.0000000000000000     
   9.6000000000000009E-003     0.0000000000000000     
   9.8999999999999991E-003     0.0000000000000000     
   1.0200000000000001E-002     0.0000000000000000     
   1.0500000000000002E-002     0.0000000000000000     
   1.0800000000000004E-002     0.0000000000000000     
   1.1099999999999999E-002     0.0000000000000000     
   1.1400000000000000E-002     0.0000000000000000     
   1.1700000000000002E-002     0.0000000000000000     
   1.2000000000000004E-002     0.0000000000000000     
   1.2300000000000002E-002     0.0000000000000000     
   1.2600000000000000E-002     0.0000000000000000     
   1.2900000000000002E-002     0.0000000000000000     
   1.3200000000000000E-002     0.0000000000000000     
   1.3500000000000002E-002     0.0000000000000000     
   1.3800000000000003E-002     0.0000000000000000     
   1.4100000000000001E-002     0.0000000000000000     
   1.4400000000000000E-002     0.0000000000000000     
   1.4700000000000001E-002     0.0000000000000000     
   1.4999999999999999E-002     0.0000000000000000     
   1.5300000000000001E-002     0.0000000000000000     
   1.5600000000000003E-002     0.0000000000000000     
   1.5899999999999997E-002     0.0000000000000000     
   1.6199999999999999E-002     0.0000000000000000     
   1.6500000000000001E-002     0.0000000000000000     
   1.6800000000000002E-002     0.0000000000000000     
   1.7100000000000004E-002     0.0000000000000000     
   1.7400000000000006E-002     0.0000000000000000     
   1.7700000000000000E-002     0.0000000000000000     
   1.8000000000000002E-002     0.0000000000000000     
   1.8300000000000004E-002     0.0000000000000000     
   1.8600000000000005E-002     8.9104890301524103E-036
   1.8900000000000000E-002    -5.4150166294362662E-035
   1.9200000000000002E-002     2.0870037390471950E-034
   1.9500000000000003E-002    -2.8193742374212460E-034
   1.9799999999999998E-002    -4.3736245671333859E-034
   2.0100000000000000E-002     3.2646161031937216E-033
   2.0400000000000001E-002    -5.0654769483670485E-033
   2.0700000000000003E-002     6.0418676413909110E-033
   2.0999999999999998E-002     4.6370800876717256E-034
   2.1299999999999999E-002    -3.0387703054071812E-032
   2.1600000000000001E-002     8.0963682577344004E-032
   2.1900000000000003E-002    -9.2514135907152412E-032
   2.2200000000000004E-002    -5.7355642261406098E-032
   2.2500000000000006E-002     4.5168437996427284E-031
   2.2800000000000001E-002    -8.9385395948226446E-031
   2.3100000000000002E-002     6.8660003769177328E-031
   2.3400000000000004E-002     1.1168816436402388E-030
   2.3699999999999999E-002    -4.5895962181845569E-030
   2.4000000000000000E-002     7.3580317040354610E-030
   2.4300000000000002E-002    -4.0977788684528968E-030
   2.4599999999999997E-002    -1.0907820987385259E-029
   2.4900000000000005E-002     3.6931183179520267E-029
   2.5200000000000000E-002    -5.7190668742608325E-029
   2.5499999999999995E-002     3.3928243291396704E-029
   2.5800000000000003E-002     7.5631100550766352E-029
   2.6099999999999998E-002    -2.6592269426131471E-028
   2.6400000000000007E-002     4.0865925182378383E-028
   2.6700000000000002E-002    -2.4288856161805449E-028
   2.6999999999999996E-002    -4.6373732099845690E-028
   2.7300000000000005E-002     1.6090592927296280E-027
   2.7600000000000000E-002    -2.3581836528837537E-027
   2.7900000000000008E-002    -1.7355664575521692E-028
   2.8200000000000003E-002     1.4871336635886367E-026
   2.8499999999999998E-002    -5.8039418309385172E-026
   2.8800000000000006E-002     1.2289417770970972E-025
   2.9100000000000001E-002    -8.2226284365192120E-026
   2.9400000000000003E-002    -3.4311460681759967E-025
   2.9700000000000004E-002     9.4476060026184126E-025
   3.0000000000000006E-002     1.0106471752629345E-024
   3.0300000000000001E-002    -1.2324279497797876E-023
   3.0600000000000002E-002     3.5354396539130230E-023
   3.0900000000000004E-002    -3.3566478722598827E-023
   3.1199999999999999E-002    -1.2254846972491031E-022
   3.1500000000000007E-002     6.2821398243240195E-022
   3.1800000000000002E-002    -1.3603440314727269E-021
   3.2099999999999997E-002     7.6699631463521701E-022
   3.2400000000000005E-002     5.8464447024272512E-021
   3.2700000000000000E-002    -2.6297690106535291E-020
   3.3000000000000002E-002     6.0144413213935561E-020
   3.3300000000000003E-002    -4.4780048712453021E-020
   3.3599999999999998E-002    -3.0067057368337978E-019
   3.3900000000000000E-002     1.6481012088305025E-018
   3.4200000000000001E-002    -4.2140348609580577E-018
   3.4500000000000003E-002     2.8591960347243730E-018
   3.4799999999999998E-002     2.2747000624025492E-017
   3.5099999999999999E-002    -1.0057972626602407E-016
   3.5400000000000001E-002     1.7039624001543688E-016
   3.5699999999999996E-002     1.3512221372288070E-016
   3.6000000000000004E-002    -1.4565366350284108E-015
   3.6299999999999999E-002     3.3000753445940165E-015
   3.6600000000000008E-002    -8.2934983076348620E-016
   3.6900000000000002E-002    -1.5023959599790815E-014
   3.7199999999999997E-002     4.1120353641058852E-014
   3.7500000000000006E-002    -2.7575424123192808E-014
   3.7800000000000000E-002    -1.1876156035163949E-013
   3.8100000000000009E-002     3.7828969288501013E-013
   3.8400000000000004E-002    -3.3169278285222039E-013
   3.8699999999999998E-002    -7.6253016667282153E-013
   3.9000000000000007E-002     2.7393110108647210E-012
   3.9300000000000002E-002    -2.6440179833606763E-012
   3.9600000000000003E-002    -4.1533910728995018E-012
   3.9900000000000005E-002     1.5874829692990926E-011
   4.0200000000000000E-002    -1.5790476265107093E-011
   4.0500000000000001E-002    -1.5953757999292633E-011
   4.0800000000000003E-002     6.7883515305934490E-011
   4.1100000000000005E-002    -9.3103497697522420E-011
   4.1399999999999999E-002     4.5130280865588557E-011
   4.1700000000000008E-002     2.0950865809824333E-010
   4.2000000000000003E-002    -9.2928857042200205E-010
   4.2299999999999997E-002     1.3602645850375259E-009
   4.2600000000000006E-002     1.7794632937363634E-009
   4.2900000000000001E-002    -9.3718388318723040E-009
   4.3200000000000002E-002     8.2612956656479736E-009
   4.3500000000000004E-002     2.0611535553436091E-008
   4.3799999999999999E-002    -6.3561879866869779E-008
   4.4100000000000000E-002     3.5152395588807402E-008
   4.4400000000000002E-002     1.6610857721258057E-007
   4.4700000000000004E-002    -5.6704120255913957E-007
   4.4999999999999998E-002     9.3991330634168862E-007
   4.5300000000000000E-002     1.2557130549983737E-005
   4.5600000000000002E-002     3.4812794543976739E-005
   4.5899999999999996E-002     5.6540303154593223E-005
   4.6200000000000005E-002     7.0744187678911107E-005
   4.6500000000000000E-002     8.6336383057044751E-005
   4.6799999999999994E-002     1.2319520589009988E-004
   4.7100000000000003E-002     1.9793489107795088E-004
   4.7399999999999998E-002     3.1170194039978810E-004
   4.7700000000000006E-002     4.6280713804710757E-004
   4.8000000000000001E-002     6.7007437611013088E-004
   4.8300000000000010E-002     9.6565585005027176E-004
   4.8600000000000004E-002     1.3760165463149701E-003
   4.8899999999999999E-002     1.9254005960039201E-003
   4.9200000000000008E-002     2.6431852312600330E-003
   4.9500000000000002E-002     3.5612504391251939E-003
   4.9800000000000011E-002     4.7099395244553175E-003
   5.0100000000000006E-002     6.1042356051585088E-003
   5.0400000000000000E-002     7.7287685986314972E-003
   5.0700000000000009E-002     9.5438874456036989E-003
   5.1000000000000004E-002     1.1477757372925322E-002
   5.1299999999999998E-002     1.3389378003992066E-002
   5.1600000000000007E-002     1.5054239128121597E-002
   5.1900000000000002E-002     1.6168844135086433E-002
   5.2200000000000010E-002     1.6332332226866895E-002
   5.2500000000000005E-002     1.5043341722057554E-002
   5.2800000000000000E-002     1.1732931378421912E-002
   5.3099999999999994E-002     5.7894751117337296E-003
   5.3400000000000003E-002    -3.4215720801120081E-003
   5.3699999999999998E-002    -1.6470121411896497E-002
   5.4000000000000006E-002    -3.3736110123079054E-002
   5.4300000000000001E-002    -5.5324949960897041E-002
   5.4599999999999996E-002    -8.0968909896789634E-002
   5.4900000000000004E-002   -0.10989028341772711     
   5.5199999999999999E-002   -0.14070603413249852     
   5.5499999999999994E-002   -0.17140159208045194     
   5.5800000000000002E-002   -0.19932113817305275     
   5.6099999999999997E-002   -0.22121362642857140     
   5.6400000000000006E-002   -0.23342088133596153     
   5.6700000000000000E-002   -0.23215380578244610     
   5.6999999999999995E-002   -0.21381697304458436     
   5.7300000000000004E-002   -0.17541025779666325     
   5.7599999999999998E-002   -0.11496658753050447     
   5.7900000000000007E-002    -3.1961731937515593E-002
   5.8200000000000002E-002     7.2277338213133258E-002
   5.8499999999999996E-002    0.19434170658513977     
   5.8800000000000005E-002    0.32876718436211450     
   5.9100000000000000E-002    0.46808273156766189     
   5.9400000000000008E-002    0.60312951327368880     
   5.9700000000000003E-002    0.72380519771967655     
   6.0000000000000012E-002    0.81973511952643119     
   6.0300000000000006E-002    0.88114489169204824     
   6.0600000000000001E-002    0.89993501775519846     
   6.0900000000000010E-002    0.87046314315716278     
   6.1200000000000004E-002    0.79023719766526712     
   6.1500000000000013E-002    0.66055668176075066     
   6.1800000000000008E-002    0.48658925860711477     
   6.2100000000000002E-002    0.27711493089759953     
   6.2399999999999997E-002     4.4176284539598994E-002
   6.2700000000000006E-002   -0.19789053760948117     
   6.3000000000000000E-002   -0.43363074014788106     
   6.3300000000000009E-002   -0.64758241981235742     
   6.3600000000000004E-002   -0.82555181807402467     
   6.3899999999999998E-002   -0.95581586345873759     
   6.4199999999999993E-002    -1.0300753243181089     
   6.4500000000000002E-002    -1.0441219934657762     
   6.4800000000000010E-002   -0.99812330036658981     
   6.5100000000000005E-002   -0.89648814104102970     
   6.5400000000000000E-002   -0.74758095459619900     
   6.5700000000000008E-002   -0.56297481741582234     
   6.5999999999999989E-002   -0.35644668766178433     
   6.6299999999999998E-002   -0.14295558792855551     
   6.6600000000000006E-002     6.2451795665615317E-002
   6.6900000000000001E-002    0.24572804889192662     
   6.7199999999999996E-002    0.39474505690891099     
   6.7500000000000004E-002    0.50000709931668896     
   6.7800000000000013E-002    0.55530602445468280     
   6.8099999999999994E-002    0.55786109680425733     
   6.8400000000000002E-002    0.50839794333662824     
   6.8700000000000011E-002    0.41104552684784396     
   6.8999999999999992E-002    0.27294281491838085     
   6.9300000000000000E-002    0.10372407894614406     
   6.9600000000000009E-002    -8.5266449248569617E-002
   6.9900000000000004E-002   -0.28158706733456967     
   7.0199999999999999E-002   -0.47241411151651241     
   7.0500000000000007E-002   -0.64559245859619407     
   7.0800000000000016E-002   -0.79025466174930170     
   7.1099999999999997E-002   -0.89750666479179786     
   7.1400000000000005E-002   -0.96088678773420555     
   7.1700000000000000E-002   -0.97679592325928788     
   7.1999999999999995E-002   -0.94475181017025300     
   7.2300000000000003E-002   -0.86722893532341039     
   7.2600000000000012E-002   -0.74935383469389460     
   7.2900000000000006E-002   -0.59836775745158921     
   7.3200000000000001E-002   -0.42314577569683959     
   7.3499999999999996E-002   -0.23323637485610604     
   7.3800000000000004E-002    -3.8185596511489832E-002
   7.4099999999999999E-002    0.15322603508885013     
   7.4400000000000008E-002    0.33357868035794264     
   7.4700000000000003E-002    0.49725825219266773     
   7.5000000000000011E-002    0.64052713702630903     
   7.5299999999999992E-002    0.76138652289561626     
   7.5600000000000001E-002    0.85943395921959886     
   7.5900000000000009E-002    0.93527580403593047     
   7.6200000000000004E-002    0.98987336106509149     
   7.6499999999999999E-002     1.0240460750394196     
   7.6800000000000007E-002     1.0379436132211284     
   7.7099999999999988E-002     1.0312365407091808     
   7.7399999999999997E-002     1.0025553811684367     
   7.7700000000000005E-002    0.94982237630083144     
   7.8000000000000014E-002    0.87113369417437492     
   7.8299999999999995E-002    0.76495093882635312     
   7.8600000000000003E-002    0.63118041176172868     
   7.8900000000000012E-002    0.47124264071973715     
   7.9199999999999993E-002    0.28884193522734491     
   7.9500000000000001E-002     9.0281896317197866E-002
   7.9800000000000010E-002   -0.11600450651414820     
   8.0100000000000018E-002   -0.31991953103300719     
   8.0399999999999999E-002   -0.51052129914629685     
   8.0700000000000008E-002   -0.67653275349107478     
   8.1000000000000003E-002   -0.80799371943456921     
   8.1299999999999997E-002   -0.89684469525999733     
   8.1600000000000006E-002   -0.93775803889430198     
   8.1900000000000014E-002   -0.92904342224097003     
   8.2199999999999995E-002   -0.87202037295073831     
   8.2500000000000004E-002   -0.77142018860404116     
   8.2799999999999999E-002   -0.63473201408828672     
   8.3100000000000007E-002   -0.47124487575215623     
   8.3400000000000002E-002   -0.29118934477638486     
   8.3700000000000011E-002   -0.10451028489756331     
   8.4000000000000005E-002     7.9641910476313929E-002
   8.4300000000000000E-002    0.25379950200338131     
   8.4599999999999995E-002    0.41259727438838406     
   8.4900000000000003E-002    0.55295742255752212     
   8.5199999999999998E-002    0.67364943842343894     
   8.5500000000000007E-002    0.77483416513675962     
   8.5800000000000001E-002    0.85758520160897633     
   8.6100000000000010E-002    0.92290396548622711     
   8.6399999999999991E-002    0.97127683066788129     
   8.6699999999999999E-002     1.0019416921625020     
   8.7000000000000008E-002     1.0125998372234024     
   8.7300000000000003E-002    0.99969185523878756     
   8.7599999999999997E-002    0.95843316206700679     
   8.7900000000000006E-002    0.88357741642609977     
   8.8200000000000014E-002    0.77001918239534173     
   8.8499999999999995E-002    0.61403573262868538     
   8.8800000000000004E-002    0.41397473694072018     
   8.9100000000000013E-002    0.17112738093520458     
   8.9399999999999993E-002   -0.10984707003661365     
   8.9700000000000002E-002   -0.42089069375977584     
   9.0000000000000011E-002   -0.75025612985555579     
   9.0299999999999991E-002    -1.0835842020135931     
   9.0600000000000000E-002    -1.4046324655288367     
   9.0900000000000009E-002    -1.6962720354103211     
   9.1200000000000017E-002    -1.9420100678090486     
   9.1499999999999998E-002    -2.1272290002754426     
   9.1800000000000007E-002    -2.2399738098753130     
   9.2100000000000001E-002    -2.2719846040306448     
   9.2399999999999996E-002    -2.2197366024325524     
   9.2700000000000005E-002    -2.0840733300066221     
   9.3000000000000013E-002    -1.8702477441532401     
   9.3300000000000008E-002    -1.5876195623607527     
   9.3600000000000003E-002    -1.2489310657201220     
   9.3899999999999997E-002   -0.86925859362840008     
   9.4200000000000006E-002   -0.46545276676927988     
   9.4500000000000001E-002    -5.4841862594287472E-002
   9.4800000000000009E-002    0.34597707126375804     
   9.5100000000000004E-002    0.72096461842070181     
   9.5399999999999999E-002     1.0563403488097041     
   9.5699999999999993E-002     1.3408692039667920     
   9.6000000000000002E-002     1.5660144276593606     
   9.6300000000000011E-002     1.7265539377104027     
   9.6600000000000005E-002     1.8203155024341713     
   9.6900000000000000E-002     1.8484406699892437     
   9.7200000000000009E-002     1.8150785196509345     
   9.7499999999999989E-002     1.7270623663771298     
   9.7799999999999998E-002     1.5931309664884121     
   9.8100000000000007E-002     1.4236828272363629     
   9.8400000000000015E-002     1.2303177278446071     
   9.8699999999999996E-002     1.0246203079430609     
   9.9000000000000005E-002    0.81791080110105696     
   9.9300000000000013E-002    0.62031722874620554     
   9.9599999999999994E-002    0.44071069922318223     
   9.9900000000000003E-002    0.28646812185932791     
  0.10020000000000001         0.16252987245293232     
  0.10049999999999999          7.1765154819297003E-002
  0.10080000000000000          1.5191708938216730E-002
  0.10110000000000001         -7.9498424014116630E-003
  0.10140000000000000         -4.7365602978965624E-004
  0.10170000000000000          3.3533322536642221E-002
  0.10200000000000001          8.8580272718095127E-002
  0.10230000000000002         0.15824474439751576     
  0.10260000000000000         0.23563464128191763     
  0.10290000000000001         0.31276357419378031     
  0.10320000000000000         0.38159352886107928     
  0.10350000000000001         0.43434977963394017     
  0.10380000000000000         0.46333402887456854     
  0.10410000000000001         0.46167722861505733     
  0.10440000000000001         0.42348230386918184     
  0.10470000000000000         0.34453127227247732     
  0.10500000000000000         0.22275711920433397     
  0.10530000000000000          5.8529240669719450E-002
  0.10560000000000000        -0.14538472964525001     
  0.10590000000000001        -0.38300952659633769     
  0.10620000000000000        -0.64543975051263169     
  0.10650000000000001        -0.92098189385026041     
  0.10679999999999999         -1.1958097352078749     
  0.10710000000000000         -1.4543607400304301     
  0.10740000000000001         -1.6801362231939954     
  0.10770000000000000         -1.8571797827098195     
  0.10800000000000000         -1.9706155295676711     
  0.10830000000000001         -2.0084457638518463     
  0.10859999999999999         -1.9621949433178885     
  0.10890000000000000         -1.8281480296539445     
  0.10920000000000001         -1.6077373225688427     
  0.10950000000000001         -1.3079860373811723     
  0.10979999999999999        -0.94202418340535787     
  0.11009999999999999        -0.52734542607979262     
  0.11040000000000001         -8.5700871555515090E-002
  0.11070000000000001         0.35845077352095261     
  0.11100000000000000         0.77938730329916039     
  0.11130000000000000          1.1520294075071820     
  0.11160000000000002          1.4545843760379595     
  0.11190000000000001          1.6687773649632573     
  0.11220000000000001          1.7819249827432828     
  0.11250000000000000          1.7881167135209617     
  0.11280000000000000          1.6886592102566593     
  0.11309999999999999          1.4914450817147022     
  0.11340000000000001          1.2103004599565850     
  0.11369999999999998         0.86465425406942764     
  0.11400000000000000         0.47717896831626894     
  0.11430000000000000          7.2839680615933516E-002
  0.11460000000000002        -0.32363736689664008     
  0.11489999999999999        -0.68901825365152758     
  0.11520000000000001         -1.0023140979668073     
  0.11550000000000001         -1.2465249397724529     
  0.11580000000000000         -1.4096520062591242     
  0.11609999999999999         -1.4842656976063806     
  0.11640000000000002         -1.4673361905203202     
  0.11670000000000001         -1.3609995963196166     
  0.11700000000000001         -1.1715008128217137     
  0.11730000000000000        -0.90851635614705439     
  0.11760000000000000        -0.58505976814351757     
  0.11789999999999999        -0.21678223026097582     
  0.11820000000000001         0.17834973360774375     
  0.11850000000000001         0.58091181892127830     
  0.11880000000000000         0.97064626935979581     
  0.11910000000000000          1.3266972407486288     
  0.11940000000000002          1.6289460791235655     
  0.11970000000000001          1.8591715251515062     
  0.12000000000000001          2.0017342735608974     
  0.12030000000000000          2.0448758775423412     
  0.12060000000000000          1.9821202923970551     
  0.12089999999999999          1.8126456891805331     
  0.12119999999999999          1.5424664150152541     
  0.12150000000000001          1.1838399268367703     
  0.12180000000000001         0.75491637557763025     
  0.12210000000000000         0.27975842476081636     
  0.12239999999999999        -0.21442205067724771     
  0.12270000000000002        -0.69888181313971787     
  0.12300000000000001         -1.1448174839235972     
  0.12330000000000001         -1.5259221952380957     
  0.12360000000000000         -1.8208261916347608     
  0.12390000000000000         -2.0145042148062151     
  0.12419999999999999         -2.0994124623408910     
  0.12450000000000001         -2.0763726439570438     
  0.12480000000000001         -1.9541264961871911     
  0.12509999999999999         -1.7489433453170653     
  0.12540000000000001         -1.4831651582285643     
  0.12570000000000003         -1.1826781132091906     
  0.12600000000000000        -0.87538225080744281     
  0.12630000000000002        -0.58826625641133246     
  0.12659999999999999        -0.34518349188319841     
  0.12690000000000001        -0.16470287560852925     
  0.12719999999999998         -5.8181301650871341E-002
  0.12750000000000000         -2.8978851555678919E-002
  0.12780000000000002         -7.1973232445409083E-002
  0.12809999999999999        -0.17371970387705465     
  0.12840000000000001        -0.31346523957673383     
  0.12869999999999998        -0.46571803535264805     
  0.12900000000000000        -0.60148955067084453     
  0.12930000000000003        -0.69122333190556817     
  0.12959999999999999        -0.70851177926695774     
  0.12990000000000002        -0.63174880474154516     
  0.13019999999999998        -0.44688791796611693     
  0.13050000000000000        -0.14959273196324938     
  0.13080000000000003         0.25384837380350017     
  0.13109999999999999         0.74661082590297789     
  0.13140000000000002          1.3017065646400807     
  0.13169999999999998          1.8840288114452080     
  0.13200000000000001          2.4524176379643823     
  0.13229999999999997          2.9631312214078043     
  0.13260000000000000          3.3736479652707541     
  0.13290000000000002          3.6458261415821664     
  0.13319999999999999          3.7491486487017021     
  0.13350000000000001          3.6643848822734300     
  0.13380000000000003          3.3849318396854700     
  0.13410000000000000          2.9180455520211548     
  0.13440000000000002          2.2847955463134011     
  0.13469999999999999          1.5184980776783816     
  0.13500000000000001         0.66318095202742711     
  0.13529999999999998        -0.23029879272207787     
  0.13560000000000000         -1.1074294001882397     
  0.13590000000000002         -1.9146657224760393     
  0.13619999999999999         -2.6025593582554993     
  0.13650000000000001         -3.1297226299199963     
  0.13680000000000003         -3.4655383001780340     
  0.13710000000000000         -3.5922215349167490     
  0.13740000000000002         -3.5060289240991680     
  0.13769999999999999         -3.2162392422700337     
  0.13800000000000001         -2.7449152684023050     
  0.13829999999999998         -2.1254637373994125     
  0.13860000000000000         -1.3992792411363717     
  0.13890000000000002        -0.61284476054120096     
  0.13919999999999999         0.18465955368290946     
  0.13950000000000001         0.94479813221633746     
  0.13979999999999998          1.6230415367036133     
  0.14010000000000000          2.1808758082380399     
  0.14040000000000002          2.5889511426803562     
  0.14069999999999999          2.8273823575894701     
  0.14100000000000001          2.8875847153357239     
  0.14130000000000004          2.7731542835564227     
  0.14160000000000000          2.4990477751787012     
  0.14189999999999997          2.0908155561557522     
  0.14219999999999999          1.5826128765894825     
  0.14250000000000002          1.0156639783007999     
  0.14279999999999998         0.43503506941886533     
  0.14310000000000000        -0.11359016758332253     
  0.14339999999999997        -0.58756943678456319     
  0.14369999999999999        -0.95022507928354905     
  0.14400000000000002         -1.1736932049313882     
  0.14429999999999998         -1.2415448661693260     
  0.14460000000000001         -1.1504436929849478     
  0.14490000000000003        -0.90977443693770432     
  0.14520000000000000        -0.54118234635406293     
  0.14550000000000002         -7.7223210454355637E-002
  0.14579999999999999         0.44136245043403965     
  0.14610000000000001         0.96944089595108063     
  0.14640000000000003          1.4606567885226061     
  0.14670000000000000          1.8706198066831454     
  0.14699999999999996          2.1604917422571401     
  0.14729999999999999          2.2992294228864072     
  0.14760000000000001          2.2653687388810764     
  0.14789999999999998          2.0480585452853979     
  0.14820000000000000          1.6470468337195976     