  -1.4999999999999999E-002     0.0000000000000000     
  -1.4700000000000000E-002     0.0000000000000000     
  -1.4400000000000000E-002     0.0000000000000000     
  -1.4100000000000000E-002     0.0000000000000000     
  -1.3800000000000000E-002     0.0000000000000000     
  -1.3500000000000000E-002     0.0000000000000000     
  -1.3200000000000000E-002     0.0000000000000000     
  -1.2899999999999998E-002     0.0000000000000000     
  -1.2600000000000000E-002     0.0000000000000000     
  -1.2299999999999998E-002     0.0000000000000000     
  -1.2000000000000000E-002     0.0000000000000000     
  -1.1699999999999999E-002     0.0000000000000000     
  -1.1399999999999999E-002     0.0000000000000000     
  -1.1099999999999999E-002     0.0000000000000000     
  -1.0799999999999999E-002     0.0000000000000000     
  -1.0499999999999999E-002     0.0000000000000000     
  -1.0199999999999999E-002     0.0000000000000000     
  -9.8999999999999991E-003     0.0000000000000000     
  -9.5999999999999992E-003     0.0000000000000000     
  -9.2999999999999992E-003     0.0000000000000000     
  -8.9999999999999993E-003     0.0000000000000000     
  -8.6999999999999994E-003     0.0000000000000000     
  -8.3999999999999995E-003     0.0000000000000000     
  -8.0999999999999996E-003     0.0000000000000000     
  -7.7999999999999988E-003     0.0000000000000000     
  -7.4999999999999997E-003     0.0000000000000000     
  -7.1999999999999998E-003     0.0000000000000000     
  -6.8999999999999981E-003     0.0000000000000000     
  -6.5999999999999982E-003     0.0000000000000000     
  -6.3000000000000000E-003     0.0000000000000000     
  -6.0000000000000001E-003     0.0000000000000000     
  -5.6999999999999985E-003     0.0000000000000000     
  -5.3999999999999986E-003     0.0000000000000000     
  -5.1000000000000004E-003     3.4226260394768805E-037
  -4.7999999999999987E-003     3.8156081698039309E-035
  -4.5000000000000005E-003     3.0365583529528286E-034
  -4.1999999999999989E-003    -7.5256387989555843E-034
  -3.8999999999999990E-003     1.9941984272860906E-033
  -3.5999999999999990E-003    -3.4658818996503803E-033
  -3.2999999999999991E-003     1.0646168728493439E-032
  -2.9999999999999992E-003    -3.3095073669823022E-032
  -2.6999999999999993E-003     3.2595711947825383E-032
  -2.3999999999999994E-003     5.5445987843493236E-032
  -2.0999999999999977E-003    -2.4471051116075251E-031
  -1.7999999999999995E-003     7.6145373749478768E-031
  -1.4999999999999979E-003    -1.7817099555007571E-030
  -1.1999999999999997E-003     1.6612123821158386E-030
  -8.9999999999999976E-004     9.7326700160658224E-031
  -5.9999999999999810E-004    -2.8241750034063000E-030
  -2.9999999999999992E-004     1.3643671360079926E-029
   0.0000000000000000         -8.2984445363636791E-029
   3.0000000000000165E-004     2.8461527578214580E-028
   5.9999999999999984E-004    -6.4398354960998274E-028
   9.0000000000000149E-004     5.7208863647185323E-028
   1.2000000000000031E-003     2.7420392875443678E-027
   1.5000000000000013E-003    -1.4019703827566767E-026
   1.8000000000000030E-003     3.0087432376867288E-026
   2.1000000000000012E-003    -1.7096387889726855E-026
   2.3999999999999994E-003    -1.0795285385063595E-025
   2.7000000000000010E-003     4.1402940710993708E-025
   2.9999999999999992E-003    -6.7473935967299069E-025
   3.3000000000000008E-003    -3.1759955066981034E-026
   3.6000000000000025E-003     3.0257349735062804E-024
   3.9000000000000007E-003    -7.8077539929436853E-024
   4.2000000000000023E-003     8.1812094498411711E-024
   4.5000000000000005E-003     8.5246312815267311E-024
   4.7999999999999987E-003    -4.9628921517611081E-023
   5.1000000000000004E-003     9.0343279496766738E-023
   5.4000000000000020E-003    -5.7495086287671773E-023
   5.7000000000000037E-003    -1.3165093904449340E-022
   5.9999999999999984E-003     4.6832771218316756E-022
   6.3000000000000000E-003    -7.5673945126069875E-022
   6.6000000000000017E-003     6.0275784290429343E-022
   6.9000000000000034E-003     5.4250547183415060E-022
   7.2000000000000015E-003    -3.2974280843603447E-021
   7.5000000000000032E-003     7.6137169233816662E-021
   7.8000000000000014E-003    -1.0239882121812334E-020
   8.0999999999999996E-003     1.6288679560968028E-021
   8.4000000000000012E-003     3.0522589775020661E-020
   8.7000000000000029E-003    -8.2427507887494155E-020
   9.0000000000000011E-003     1.0627802699174087E-019
   9.2999999999999992E-003    -8.5148753058390086E-021
   9.6000000000000009E-003    -2.7924387062286928E-019
   9.8999999999999991E-003     6.5997065566112995E-019
   1.0200000000000001E-002    -7.6323867826988069E-019
   1.0500000000000002E-002     3.1014716930319392E-020
   1.0800000000000004E-002     1.8752806951101743E-018
   1.1099999999999999E-002    -4.3525466480917701E-018
   1.1400000000000000E-002     5.1614577596130182E-018
   1.1700000000000002E-002    -7.1750654013974083E-019
   1.2000000000000004E-002    -1.1278814454930990E-017
   1.2300000000000002E-002     2.6694756325101764E-017
   1.2600000000000000E-002    -3.0925937507745310E-017
   1.2900000000000002E-002     3.6350702919221634E-018
   1.3200000000000000E-002     6.2637431429215972E-017
   1.3500000000000002E-002    -1.3819234093594336E-016
   1.3800000000000003E-002     1.5018092829382480E-016
   1.4100000000000001E-002    -1.8800526165866079E-017
   1.4400000000000000E-002    -2.6854742905884532E-016
   1.4700000000000001E-002     5.9100204917381519E-016
   1.4999999999999999E-002    -6.9460132827225523E-016
   1.5300000000000001E-002     2.8039324322643564E-016
   1.5600000000000003E-002     8.3687659951657995E-016
   1.5899999999999997E-002    -2.4860703025052019E-015
   1.6199999999999999E-002     3.7638540369029974E-015
   1.6500000000000001E-002    -2.7248110080397749E-015
   1.6800000000000002E-002    -2.9591625328719752E-015
   1.7100000000000004E-002     1.3143107078452331E-014
   1.7400000000000006E-002    -2.0915830485160691E-014
   1.7700000000000000E-002     1.2245237032306916E-014
   1.8000000000000002E-002     2.2979377069990149E-014
   1.8300000000000004E-002    -7.0268288462805740E-014
   1.8600000000000005E-002     8.1734899118328509E-014
   1.8900000000000000E-002    -7.4613207022987196E-015
   1.9200000000000002E-002    -1.3971045523110569E-013
   1.9500000000000003E-002     2.5045658589866409E-013
   1.9799999999999998E-002    -1.8381489360229813E-013
   2.0100000000000000E-002    -8.6155135647572996E-014
   2.0400000000000001E-002     3.5359042375772967E-013
   2.0700000000000003E-002    -3.1400549981981111E-013
   2.0999999999999998E-002     2.8159921174200911E-013
   2.1299999999999999E-002    -1.8681191681601888E-012
   2.1600000000000001E-002     4.9457660459094416E-012
   2.1900000000000003E-002     7.7100326476459313E-013
   2.2200000000000004E-002    -3.0215729387411691E-011
   2.2500000000000006E-002     5.2578938115280622E-011
   2.2800000000000001E-002     3.8829016381464489E-011
   2.3100000000000002E-002    -2.3552618328587443E-010
   2.3400000000000004E-002     1.3959539273938885E-010
   2.3699999999999999E-002     4.8640963618603545E-010
   2.4000000000000000E-002    -5.2340055027590272E-010
   2.4300000000000002E-002    -8.5691958925768844E-010
   2.4599999999999997E-002     1.6455837958238512E-010
   2.4900000000000005E-002     3.9204843952354399E-009
   2.5200000000000000E-002     2.4609465908998168E-009
   2.5499999999999995E-002    -2.2320931043463106E-008
   2.5800000000000003E-002    -1.6222530452490180E-009
   2.6099999999999998E-002     9.9112200138201001E-008
   2.6400000000000007E-002    -6.2280477970495499E-008
   2.6700000000000002E-002    -3.8222802669791850E-007
   2.6999999999999996E-002     6.0940181214340262E-007
   2.7300000000000005E-002     3.5155308354190016E-006
   2.7600000000000000E-002     6.6571338458186455E-006
   2.7900000000000008E-002     9.5188689615537249E-006
   2.8200000000000003E-002     1.5519383086317173E-005
   2.8499999999999998E-002     2.6496514942789962E-005
   2.8800000000000006E-002     3.5666770055921542E-005
   2.9100000000000001E-002     4.5697736370215522E-005
   2.9400000000000003E-002     7.5559430817333467E-005
   2.9700000000000004E-002     1.2464246658779404E-004
   3.0000000000000006E-002     1.8776755501901993E-004
   3.0300000000000001E-002     2.7738235348382295E-004
   3.0600000000000002E-002     3.9738830338221999E-004
   3.0900000000000004E-002     5.6835311102659369E-004
   3.1199999999999999E-002     8.0494903598296520E-004
   3.1500000000000007E-002     1.1084433755315973E-003
   3.1800000000000002E-002     1.5360365077526415E-003
   3.2099999999999997E-002     2.1027976393947303E-003
   3.2400000000000005E-002     2.7798628715747244E-003
   3.2700000000000000E-002     3.6351154927836858E-003
   3.3000000000000002E-002     4.7189048974401867E-003
   3.3300000000000003E-002     6.0086702614354287E-003
   3.3599999999999998E-002     7.5184582578018862E-003
   3.3900000000000000E-002     9.2650820533001291E-003
   3.4200000000000001E-002     1.1240556022387405E-002
   3.4500000000000003E-002     1.3403769723624824E-002
   3.4799999999999998E-002     1.5691526400523244E-002
   3.5099999999999999E-002     1.8053922995028861E-002
   3.5400000000000001E-002     2.0386569421325013E-002
   3.5699999999999996E-002     2.2582264862127562E-002
   3.6000000000000004E-002     2.4536429241669901E-002
   3.6299999999999999E-002     2.6073878918854359E-002
   3.6600000000000008E-002     2.7063886005135374E-002
   3.6900000000000002E-002     2.7373222941752345E-002
   3.7199999999999997E-002     2.6815776085456447E-002
   3.7500000000000006E-002     2.5287833353075606E-002
   3.7800000000000000E-002     2.2661078980733790E-002
   3.8100000000000009E-002     1.8708477010743366E-002
   3.8400000000000004E-002     1.3224545084287645E-002
   3.8699999999999998E-002     5.9153689689614179E-003
   3.9000000000000007E-002    -3.6659781426218278E-003
   3.9300000000000002E-002    -1.6072521189018685E-002
   3.9600000000000003E-002    -3.2027293389585473E-002
   3.9900000000000005E-002    -5.2422527856631485E-002
   4.0200000000000000E-002    -7.8310512938474700E-002
   4.0500000000000001E-002   -0.11082548033216418     
   4.0800000000000003E-002   -0.15110573347648767     
   4.1100000000000005E-002   -0.20015084972318556     
   4.1399999999999999E-002   -0.25862500363375435     
   4.1700000000000008E-002   -0.32672483093088367     
   4.2000000000000003E-002   -0.40391013471157977     
   4.2299999999999997E-002   -0.48875180419354669     
   4.2600000000000006E-002   -0.57879377035775748     
   4.2900000000000001E-002   -0.67046446324726738     
   4.3200000000000002E-002   -0.75910461753414182     
   4.3500000000000004E-002   -0.83903379130424971     
   4.3799999999999999E-002   -0.90390611638284979     
   4.4100000000000000E-002   -0.94703788546611989     
   4.4400000000000002E-002   -0.96187795198123116     
   4.4700000000000004E-002   -0.94245369204508711     
   4.4999999999999998E-002   -0.88413614929421525     
   4.5300000000000000E-002   -0.78404403517299337     
   4.5600000000000002E-002   -0.64137453471612527     
   4.5899999999999996E-002   -0.45792729098284246     
   4.6200000000000005E-002   -0.23808677698648842     
   4.6500000000000000E-002     1.1323353845386575E-002
   4.6799999999999994E-002    0.28121838311717179     
   4.7100000000000003E-002    0.56093192728714192     
   4.7399999999999998E-002    0.83890731057774381     
   4.7700000000000006E-002     1.1031769632767272     
   4.8000000000000001E-002     1.3427571201435651     
   4.8300000000000010E-002     1.5478058025283197     
   4.8600000000000004E-002     1.7105425776501948     
   4.8899999999999999E-002     1.8260244322661043     
   4.9200000000000008E-002     1.8916630942583785     
   4.9500000000000002E-002     1.9079532821844485     
   4.9800000000000011E-002     1.8781264022918300     
   5.0100000000000006E-002     1.8070813603917391     
   5.0400000000000000E-002     1.7023288186403662     
   5.0700000000000009E-002     1.5717240732628464     
   5.1000000000000004E-002     1.4242592002718237     
   5.1299999999999998E-002     1.2684803137311260     
   5.1600000000000007E-002     1.1125254742957795     
   5.1900000000000002E-002    0.96351535092895169     
   5.2200000000000010E-002    0.82700032821303171     
   5.2500000000000005E-002    0.70714575757642473     
   5.2800000000000000E-002    0.60567737231948771     
   5.3099999999999994E-002    0.52305919459676664     
   5.3400000000000003E-002    0.45702925791750415     
   5.3699999999999998E-002    0.40408173623898713     
   5.4000000000000006E-002    0.35840621971256731     
   5.4300000000000001E-002    0.31332978946594425     
   5.4599999999999996E-002    0.26087159208987337     
   5.4900000000000004E-002    0.19269654377271844     
   5.5199999999999999E-002    0.10115116962347664     
   5.5499999999999994E-002    -2.0934969199398541E-002
   5.5800000000000002E-002   -0.17857070436522526     
   5.6099999999999997E-002   -0.37436288973960186     
   5.6400000000000006E-002   -0.60798001918422273     
   5.6700000000000000E-002   -0.87590456924322624     
   5.6999999999999995E-002    -1.1707931879968307     
   5.7300000000000004E-002    -1.4823477424324609     
   5.7599999999999998E-002    -1.7975865791925902     
   5.7900000000000007E-002    -2.1009855491779219     
   5.8200000000000002E-002    -2.3768160593395034     
   5.8499999999999996E-002    -2.6083028590745019     
   5.8800000000000005E-002    -2.7809760862484190     
   5.9100000000000000E-002    -2.8822982613299186     
   5.9400000000000008E-002    -2.9029443567670521     
   5.9700000000000003E-002    -2.8388581572326155     
   6.0000000000000012E-002    -2.6900148672039839     
   6.0300000000000006E-002    -2.4621854084530743     
   6.0600000000000001E-002    -2.1660666690684240     
   6.0900000000000010E-002    -1.8169937322182186     
   6.1200000000000004E-002    -1.4337868839015808     
   6.1500000000000013E-002    -1.0380488741647786     
   6.1800000000000008E-002   -0.65201819620312851     
   6.2100000000000002E-002   -0.29713833645499915     
   6.2399999999999997E-002     7.0317228971677878E-003
   6.2700000000000006E-002    0.24630172789894328     
   6.3000000000000000E-002    0.41013005779034711     
   6.3300000000000009E-002    0.49590251336206115     
   6.3600000000000004E-002    0.50710428254066209     
   6.3899999999999998E-002    0.45348650650977634     
   6.4199999999999993E-002    0.35160330264195266     
   6.4500000000000002E-002    0.22201886964959730     
   6.4800000000000010E-002     8.7843679444749370E-002
   6.5100000000000005E-002    -2.5818724766237838E-002
   6.5400000000000000E-002    -9.6570105600117806E-002
   6.5700000000000008E-002   -0.10421531769667998     
   6.5999999999999989E-002    -3.4597490362232156E-002
   6.6299999999999998E-002    0.11995273965278015     
   6.6600000000000006E-002    0.36015156313209895     
   6.6900000000000001E-002    0.67819137130083029     
   6.7199999999999996E-002     1.0595804569118870     
   6.7500000000000004E-002     1.4831372661370381     
   6.7800000000000013E-002     1.9229576796816954     
   6.8099999999999994E-002     2.3496864096850594     
   6.8400000000000002E-002     2.7340207395691620     
   6.8700000000000011E-002     3.0465829701343932     
   6.8999999999999992E-002     3.2628383988070082     
   6.9300000000000000E-002     3.3625970248413859     
   6.9600000000000009E-002     3.3325579524119200     
   6.9900000000000004E-002     3.1688685756454991     
   7.0199999999999999E-002     2.8737490483926149     
   7.0500000000000007E-002     2.4606700205064178     
   7.0800000000000016E-002     1.9493231979106431     
   7.1099999999999997E-002     1.3663494729216432     
   7.1400000000000005E-002    0.74395728857315546     
   7.1700000000000000E-002    0.11624842946335033     
   7.1999999999999995E-002   -0.48290646662202119     
   7.2300000000000003E-002    -1.0210063574481896     
   7.2600000000000012E-002    -1.4716973470628132     
   7.2900000000000006E-002    -1.8152713978731112     
   7.3200000000000001E-002    -2.0399549234839620     
   7.3499999999999996E-002    -2.1440322637692342     
   7.3800000000000004E-002    -2.1332767246889111     
   7.4099999999999999E-002    -2.0219521747234972     
   7.4400000000000008E-002    -1.8292792046662525     
   7.4700000000000003E-002    -1.5778523858785836     
   7.5000000000000011E-002    -1.2905949497283302     
   7.5299999999999992E-002   -0.98811192411505677     
   7.5600000000000001E-002   -0.68679053342383845     
   7.5900000000000009E-002   -0.39731136386595256     
   7.6200000000000004E-002   -0.12352705112549861     
   7.6499999999999999E-002    0.13545715992962593     
   7.6800000000000007E-002    0.38558680286583147     
   7.7099999999999988E-002    0.63478184492693024     
   7.7399999999999997E-002    0.88986552789889273     
   7.7700000000000005E-002     1.1556446683988992     
   7.8000000000000014E-002     1.4312277001434950     
   7.8299999999999995E-002     1.7091421079492362     
   7.8600000000000003E-002     1.9759822110221910     
   7.8900000000000012E-002     2.2113251928780251     
   7.9199999999999993E-002     2.3908865712669232     
   7.9500000000000001E-002     2.4892895492093108     
   7.9800000000000010E-002     2.4818995267682160     
   8.0100000000000018E-002     2.3494630113974817     
   8.0399999999999999E-002     2.0810153709498942     
   8.0700000000000008E-002     1.6745436373516218     
   8.1000000000000003E-002     1.1408305293704599     
   8.1299999999999997E-002    0.50066215381660695     
   8.1600000000000006E-002   -0.21401837636956214     
   8.1900000000000014E-002   -0.96401930811135006     
   8.2199999999999995E-002    -1.7059213096455024     
   8.2500000000000004E-002    -2.3950662858733578     
   8.2799999999999999E-002    -2.9899864505344991     
   8.3100000000000007E-002    -3.4566018939580192     
   8.3400000000000002E-002    -3.7692468558473702     
   8.3700000000000011E-002    -3.9143517426397580     
   8.4000000000000005E-002    -3.8906603268351376     
   8.4300000000000000E-002    -3.7080910598499925     
   8.4599999999999995E-002    -3.3868692283809625     
   8.4900000000000003E-002    -2.9564516865892045     
   8.5199999999999998E-002    -2.4493558679822747     
   8.5500000000000007E-002    -1.9026968699642519     
   8.5800000000000001E-002    -1.3507740665097769     
   8.6100000000000010E-002   -0.82584269026121415     
   8.6399999999999991E-002   -0.35498092297477424     
   8.6699999999999999E-002     4.2124007258958117E-002
   8.7000000000000008E-002    0.35090655053631659     
   8.7300000000000003E-002    0.56505412044012815     
   8.7599999999999997E-002    0.68375778510086938     
   8.7900000000000006E-002    0.71088201171608367     
   8.8200000000000014E-002    0.65485918868395321     
   8.8499999999999995E-002    0.52666044505892917     
   8.8800000000000004E-002    0.33936086445881020     
   8.9100000000000013E-002    0.10784123832144243     
   8.9399999999999993E-002   -0.15272854448906042     
   8.9700000000000002E-002   -0.42593381170309885     
   9.0000000000000011E-002   -0.69477320253461050     
   9.0299999999999991E-002   -0.94204080795500822     
   9.0600000000000000E-002    -1.1508243165154530     
   9.0900000000000009E-002    -1.3032308905605579     
   9.1200000000000017E-002    -1.3852779955604735     
   9.1499999999999998E-002    -1.3820834244985170     
   9.1800000000000007E-002    -1.2855333162093812     
   9.2100000000000001E-002    -1.0900510601027855     
   9.2399999999999996E-002   -0.79751640788077338     
   9.2700000000000005E-002   -0.41666996354336272     
   9.3000000000000013E-002     3.6794056851891702E-002
   9.3300000000000008E-002    0.53905541677773083     
   9.3600000000000003E-002     1.0611555718294425     
   9.3899999999999997E-002     1.5693736260520834     
   9.4200000000000006E-002     2.0272085887431253     
   9.4500000000000001E-002     2.4016533146762455     
   9.4800000000000009E-002     2.6622672346793599     
   9.5100000000000004E-002     2.7868924410915672     
   9.5399999999999999E-002     2.7641575597146266     
   9.5699999999999993E-002     2.5946960687582337     
   9.6000000000000002E-002     2.2904586996585250     
   9.6300000000000011E-002     1.8789080543531640     
   9.6600000000000005E-002     1.3928297872630542     
   9.6900000000000000E-002    0.87619287433432325     
   9.7200000000000009E-002    0.37319556080485544     
   9.7499999999999989E-002    -7.3089839874814169E-002
   9.7799999999999998E-002   -0.42474321001325432     
   9.8100000000000007E-002   -0.65507776179290722     
   9.8400000000000015E-002   -0.74924928618869990     
   9.8699999999999996E-002   -0.70639491661274312     
   9.9000000000000005E-002   -0.54070151238947128     
   9.9300000000000013E-002   -0.27830141902011796     
   9.9599999999999994E-002     4.4874140980110035E-002
   9.9900000000000003E-002    0.38552976138780048     
  0.10020000000000001         0.70095182202767548     
  0.10049999999999999         0.94885928348683279     
  0.10080000000000000          1.0951764681010336     
  0.10110000000000001          1.1169128509516746     
  0.10140000000000000          1.0033147408416678     
  0.10170000000000000         0.75964600288280415     
  0.10200000000000001         0.40590712492473002     
  0.10230000000000002         -2.3799178963568719E-002
  0.10260000000000000        -0.48273495615293377     
  0.10290000000000001        -0.91715748257051943     
  0.10320000000000000         -1.2670918842715806     
  0.10350000000000001         -1.4769507796432233     
  0.10380000000000000         -1.4948547027339076     
  0.10410000000000001         -1.2855858913195435     
  0.10440000000000001        -0.82889080625331202     
  0.10470000000000000        -0.13054181483736571     
  0.10500000000000000         0.78112257574124888     
  0.10530000000000000          1.8492841925400805     
  0.10560000000000000          2.9938884089014031     
  0.10590000000000001          4.1143842147242511     
  0.10620000000000000          5.0974665171634399     
  0.10650000000000001          5.8271270335229230     
  0.10679999999999999          6.1945524771215759     
  0.10710000000000000          6.1107860144077941     
  0.10740000000000001          5.5161462294337573     
  0.10770000000000000          4.3898845069316605     
  0.10800000000000000          2.7590508655675885     
  0.10830000000000001         0.69412744093241574     
  0.10859999999999999         -1.6837029664914458     
  0.10890000000000000         -4.2176104020838885     
  0.10920000000000001         -6.7209773705569518     
  0.10950000000000001         -8.9929886694006935     
  0.10979999999999999         -10.836132147134499     
  0.11009999999999999         -12.071751701084255     
  0.11040000000000001         -12.557877649360631     
  0.11070000000000001         -12.203124149925820     
  0.11100000000000000         -10.976619811362482     
  0.11130000000000000         -8.9131699319591267     
  0.11160000000000002         -6.1146779512718892     
  0.11190000000000001         -2.7419605402575704     
  0.11220000000000001         0.99647094666607228     
  0.11250000000000000          4.8539858386980983     
  0.11280000000000000          8.5753088841003962     
  0.11309999999999999          11.903101079983012     
  0.11340000000000001          14.606233731721611     
  0.11369999999999998          16.493570477537599     
  0.11400000000000000          17.424984134282443     
  0.11430000000000000          17.326400909847901     
  0.11460000000000002          16.187103412263813     
  0.11489999999999999          14.063701749516662     
  0.11520000000000001          11.072946639853484     
  0.11550000000000001          7.3800778957435318     
  0.11580000000000000          3.1898217382242877     
  0.11609999999999999         -1.2697243918427921     
  0.11640000000000002         -5.7642656009794875     
  0.11670000000000001         -10.063812358472648     
  0.11700000000000001         -13.957803863805882     
  0.11730000000000000         -17.270311522695511     
  0.11760000000000000         -19.857244681444431     
  0.11789999999999999         -21.626562323580160     
  0.11820000000000001         -22.526016447578943     
  0.11850000000000001         -22.550495359087762     
  0.11880000000000000         -21.738989079209087     
  0.11910000000000000         -20.160183140222468     
  0.11940000000000002         -17.914188550724841     
  0.11970000000000001         -15.120897432157253     
  0.12000000000000001         -11.905040849525587     
  0.12030000000000000         -8.4004784384206328     
  0.12060000000000000         -4.7311187197196123     
  0.12089999999999999         -1.0124838407195096     
  0.12119999999999999          2.6505208307502253     
  0.12150000000000001          6.1722064644487302     
  0.12180000000000001          9.4780102716709784     
  0.12210000000000000          12.505873803042117     
  0.12239999999999999          15.207936435653377     
  0.12270000000000002          17.538862399435452     
  0.12300000000000001          19.462595175446967     
  0.12330000000000001          20.946941579453810     
  0.12360000000000000          21.960649703807487     
  0.12390000000000000          22.481949070959725     
  0.12419999999999999          22.491108159111228     
  0.12450000000000001          21.978347991722714     
  0.12480000000000001          20.947197163770227     
  0.12509999999999999          19.410328099717944     
  0.12540000000000001          17.400711228340548     
  0.12570000000000003          14.968227531538739     
  0.12600000000000000          12.174315570438994     
  0.12630000000000002          9.1057225153091768     
  0.12659999999999999          5.8506813611421133     
  0.12690000000000001          2.5147850750127496     
  0.12719999999999998        -0.79730374487986211     
  0.12750000000000000         -3.9804828564447923     
  0.12780000000000002         -6.9365092010243456     
  0.12809999999999999         -9.5772276869417325     
  0.12840000000000001         -11.836831209412992     
  0.12869999999999998         -13.662460461610150     
  0.12900000000000000         -15.027182726876349     
  0.12930000000000003         -15.930333294164486     
  0.12959999999999999         -16.381340187925517     
  0.12990000000000002         -16.422187966584008     
  0.13019999999999998         -16.099630514023193     
  0.13050000000000000         -15.475391539932740     
  0.13080000000000003         -14.617346907070282     
  0.13109999999999999         -13.587458743794851     
  0.13140000000000002         -12.450570228490406     
  0.13169999999999998         -11.254981151092570     
  0.13200000000000001         -10.040120222954593     
  0.13229999999999997         -8.8339014915715151     
  0.13260000000000000         -7.6480060369467493     
  0.13290000000000002         -6.4815745985450404     
  0.13319999999999999         -5.3305507225699973     
  0.13350000000000001         -4.1778712680375341     
  0.13380000000000003         -3.0085990723729856     
  0.13410000000000000         -1.8109035671100693     
  0.13440000000000002        -0.57243240480925939     
  0.13469999999999999         0.70226079853068124     
  0.13500000000000001          2.0080266187527620     
  0.13529999999999998          3.3237085658201933     
  0.13560000000000000          4.6199369872250760     
  0.13590000000000002          5.8628721800020047     
  0.13619999999999999          7.0113268573880632     
  0.13650000000000001          8.0211315930176461     
  0.13680000000000003          8.8562594318355110     
  0.13710000000000000          9.4789324728090332     
  0.13740000000000002          9.8649006851634056     
  0.13769999999999999          10.000664808780829     
  0.13800000000000001          9.8813801781045054     
  0.13829999999999998          9.5204649908509573     
  0.13860000000000000          8.9391976285607608     
  0.13890000000000002          8.1711769914043746     
  0.13919999999999999          7.2578573949474654     
  0.13950000000000001          6.2465959220026450     
  0.13979999999999998          5.1836600825156749     
  0.14010000000000000          4.1199369847809342     
  0.14040000000000002          3.0951223689807068     
  0.14069999999999999          2.1457004769497794     
  0.14100000000000001          1.2997114796302183     
  0.14130000000000004         0.57174587899599483     
  0.14160000000000000         -3.1781706563462957E-002
  0.14189999999999997        -0.51416480994014435     
  0.14219999999999999        -0.88984472398154124     
  0.14250000000000002         -1.1787543410721979     
  0.14279999999999998         -1.4061658520001881     
  0.14310000000000000         -1.5991603293552139     
  0.14339999999999997         -1.7843328890639816     
  0.14369999999999999         -1.9826147752111489     
  0.14400000000000002         -2.2114825466497505     
  0.14429999999999998         -2.4768302683615260     
  0.14460000000000001         -2.7773421081753393     
  0.14490000000000003         -3.1029548946298742     
  0.14520000000000000         -3.4319768283775010     
  0.14550000000000002         -3.7411744954749975     
  0.14579999999999999         -3.9987650301521902     
  0.14610000000000001         -4.1760516566856642     
  0.14640000000000003         -4.2473884035428142     
  0.14670000000000000         -4.1911254330584038     
  0.14699999999999996         -3.9980349924373928     
  0.14729999999999999         -3.6696515436750436     
  0.14760000000000001         -3.2147777392360521     
  0.14789999999999998         -2.6620145104821242     
  0.14820000000000000         -2.0385921204813995     