  -1.4999999999999999E-002     0.0000000000000000     
  -1.4700000000000000E-002     0.0000000000000000     
  -1.4400000000000000E-002     0.0000000000000000     
  -1.4100000000000000E-002     0.0000000000000000     
  -1.3800000000000000E-002     0.0000000000000000     
  -1.3500000000000000E-002     0.0000000000000000     
  -1.3200000000000000E-002     0.0000000000000000     
  -1.2899999999999998E-002     0.0000000000000000     
  -1.2600000000000000E-002     0.0000000000000000     
  -1.2299999999999998E-002     0.0000000000000000     
  -1.2000000000000000E-002     0.0000000000000000     
  -1.1699999999999999E-002     0.0000000000000000     
  -1.1399999999999999E-002     0.0000000000000000     
  -1.1099999999999999E-002     0.0000000000000000     
  -1.0799999999999999E-002     0.0000000000000000     
  -1.0499999999999999E-002     0.0000000000000000     
  -1.0199999999999999E-002     0.0000000000000000     
  -9.8999999999999991E-003     0.0000000000000000     
  -9.5999999999999992E-003     0.0000000000000000     
  -9.2999999999999992E-003     0.0000000000000000     
  -8.9999999999999993E-003     0.0000000000000000     
  -8.6999999999999994E-003     0.0000000000000000     
  -8.3999999999999995E-003     0.0000000000000000     
  -8.0999999999999996E-003     0.0000000000000000     
  -7.7999999999999988E-003     0.0000000000000000     
  -7.4999999999999997E-003     0.0000000000000000     
  -7.1999999999999998E-003     0.0000000000000000     
  -6.8999999999999981E-003     0.0000000000000000     
  -6.5999999999999982E-003     0.0000000000000000     
  -6.3000000000000000E-003     0.0000000000000000     
  -6.0000000000000001E-003     0.0000000000000000     
  -5.6999999999999985E-003     0.0000000000000000     
  -5.3999999999999986E-003     0.0000000000000000     
  -5.1000000000000004E-003     0.0000000000000000     
  -4.7999999999999987E-003     0.0000000000000000     
  -4.5000000000000005E-003     0.0000000000000000     
  -4.1999999999999989E-003     0.0000000000000000     
  -3.8999999999999990E-003     0.0000000000000000     
  -3.5999999999999990E-003     0.0000000000000000     
  -3.2999999999999991E-003     0.0000000000000000     
  -2.9999999999999992E-003     0.0000000000000000     
  -2.6999999999999993E-003     0.0000000000000000     
  -2.3999999999999994E-003     0.0000000000000000     
  -2.0999999999999977E-003     0.0000000000000000     
  -1.7999999999999995E-003     0.0000000000000000     
  -1.4999999999999979E-003     0.0000000000000000     
  -1.1999999999999997E-003     0.0000000000000000     
  -8.9999999999999976E-004     0.0000000000000000     
  -5.9999999999999810E-004     0.0000000000000000     
  -2.9999999999999992E-004     0.0000000000000000     
   0.0000000000000000          0.0000000000000000     
   3.0000000000000165E-004     0.0000000000000000     
   5.9999999999999984E-004     0.0000000000000000     
   9.0000000000000149E-004     0.0000000000000000     
   1.2000000000000031E-003     0.0000000000000000     
   1.5000000000000013E-003     0.0000000000000000     
   1.8000000000000030E-003     0.0000000000000000     
   2.1000000000000012E-003     0.0000000000000000     
   2.3999999999999994E-003     0.0000000000000000     
   2.7000000000000010E-003     0.0000000000000000     
   2.9999999999999992E-003     0.0000000000000000     
   3.3000000000000008E-003     0.0000000000000000     
   3.6000000000000025E-003     0.0000000000000000     
   3.9000000000000007E-003     0.0000000000000000     
   4.2000000000000023E-003     0.0000000000000000     
   4.5000000000000005E-003     0.0000000000000000     
   4.7999999999999987E-003     0.0000000000000000     
   5.1000000000000004E-003     0.0000000000000000     
   5.4000000000000020E-003     0.0000000000000000     
   5.7000000000000037E-003     0.0000000000000000     
   5.9999999999999984E-003     0.0000000000000000     
   6.3000000000000000E-003     0.0000000000000000     
   6.6000000000000017E-003     0.0000000000000000     
   6.9000000000000034E-003     0.0000000000000000     
   7.2000000000000015E-003     0.0000000000000000     
   7.5000000000000032E-003     0.0000000000000000     
   7.8000000000000014E-003     0.0000000000000000     
   8.0999999999999996E-003     0.0000000000000000     
   8.4000000000000012E-003     0.0000000000000000     
   8.7000000000000029E-003     0.0000000000000000     
   9.0000000000000011E-003     0.0000000000000000     
   9.2999999999999992E-003     0.0000000000000000     
   9.6000000000000009E-003     0.0000000000000000     
   9.8999999999999991E-003     0.0000000000000000     
   1.0200000000000001E-002     0.0000000000000000     
   1.0500000000000002E-002     0.0000000000000000     
   1.0800000000000004E-002     0.0000000000000000     
   1.1099999999999999E-002     0.0000000000000000     
   1.1400000000000000E-002     0.0000000000000000     
   1.1700000000000002E-002     0.0000000000000000     
   1.2000000000000004E-002     0.0000000000000000     
   1.2300000000000002E-002     0.0000000000000000     
   1.2600000000000000E-002     0.0000000000000000     
   1.2900000000000002E-002     0.0000000000000000     
   1.3200000000000000E-002     0.0000000000000000     
   1.3500000000000002E-002     0.0000000000000000     
   1.3800000000000003E-002     0.0000000000000000     
   1.4100000000000001E-002     0.0000000000000000     
   1.4400000000000000E-002     0.0000000000000000     
   1.4700000000000001E-002     0.0000000000000000     
   1.4999999999999999E-002     0.0000000000000000     
   1.5300000000000001E-002     0.0000000000000000     
   1.5600000000000003E-002     0.0000000000000000     
   1.5899999999999997E-002     0.0000000000000000     
   1.6199999999999999E-002     0.0000000000000000     
   1.6500000000000001E-002     0.0000000000000000     
   1.6800000000000002E-002     0.0000000000000000     
   1.7100000000000004E-002     0.0000000000000000     
   1.7400000000000006E-002     0.0000000000000000     
   1.7700000000000000E-002     0.0000000000000000     
   1.8000000000000002E-002     0.0000000000000000     
   1.8300000000000004E-002     0.0000000000000000     
   1.8600000000000005E-002     0.0000000000000000     
   1.8900000000000000E-002     0.0000000000000000     
   1.9200000000000002E-002     0.0000000000000000     
   1.9500000000000003E-002     0.0000000000000000     
   1.9799999999999998E-002     0.0000000000000000     
   2.0100000000000000E-002     0.0000000000000000     
   2.0400000000000001E-002     0.0000000000000000     
   2.0700000000000003E-002     0.0000000000000000     
   2.0999999999999998E-002     0.0000000000000000     
   2.1299999999999999E-002     0.0000000000000000     
   2.1600000000000001E-002     0.0000000000000000     
   2.1900000000000003E-002     0.0000000000000000     
   2.2200000000000004E-002     0.0000000000000000     
   2.2500000000000006E-002     0.0000000000000000     
   2.2800000000000001E-002     0.0000000000000000     
   2.3100000000000002E-002     0.0000000000000000     
   2.3400000000000004E-002     0.0000000000000000     
   2.3699999999999999E-002     0.0000000000000000     
   2.4000000000000000E-002     0.0000000000000000     
   2.4300000000000002E-002     0.0000000000000000     
   2.4599999999999997E-002     0.0000000000000000     
   2.4900000000000005E-002     0.0000000000000000     
   2.5200000000000000E-002     0.0000000000000000     
   2.5499999999999995E-002     0.0000000000000000     
   2.5800000000000003E-002     0.0000000000000000     
   2.6099999999999998E-002     0.0000000000000000     
   2.6400000000000007E-002     0.0000000000000000     
   2.6700000000000002E-002     0.0000000000000000     
   2.6999999999999996E-002     0.0000000000000000     
   2.7300000000000005E-002     0.0000000000000000     
   2.7600000000000000E-002     0.0000000000000000     
   2.7900000000000008E-002    -8.9376041847519035E-041
   2.8200000000000003E-002    -4.0619741851548761E-040
   2.8499999999999998E-002     1.4667737086151780E-037
   2.8800000000000006E-002    -1.6807617785403446E-036
   2.9100000000000001E-002     6.7697087190749241E-036
   2.9400000000000003E-002    -1.1392771844753014E-035
   2.9700000000000004E-002    -5.1061363318139784E-034
   3.0000000000000006E-002     3.6387693912694315E-033
   3.0300000000000001E-002    -9.4340935030070616E-033
   3.0600000000000002E-002     1.6755312661441346E-032
   3.0900000000000004E-002    -1.2221473317403724E-032
   3.1199999999999999E-002    -6.6259973380723523E-032
   3.1500000000000007E-002     4.5197198474344838E-031
   3.1800000000000002E-002    -1.8837598409611708E-030
   3.2099999999999997E-002     6.3722691312646072E-030
   3.2400000000000005E-002    -1.8583581743814601E-029
   3.2700000000000000E-002     4.7186439430455419E-029
   3.3000000000000002E-002    -1.0177726700705724E-028
   3.3300000000000003E-002     1.6971744134832920E-028
   3.3599999999999998E-002    -1.3112146700895497E-028
   3.3900000000000000E-002    -4.7222250171201664E-028
   3.4200000000000001E-002     2.9184623346360017E-027
   3.4500000000000003E-002    -9.9745966507667416E-027
   3.4799999999999998E-002     2.5904562120316443E-026
   3.5099999999999999E-002    -5.2858306822745506E-026
   3.5400000000000001E-002     7.6959360277485081E-026
   3.5699999999999996E-002    -3.4719417640064279E-026
   3.6000000000000004E-002    -2.4073420596259993E-025
   3.6299999999999999E-002     1.0518263300964266E-024
   3.6600000000000008E-002    -2.7085828382719456E-024
   3.6900000000000002E-002     4.9837805482013342E-024
   3.7199999999999997E-002    -5.9374906748368970E-024
   3.7500000000000006E-002     4.6318617271265105E-025
   3.7800000000000000E-002     1.9840569327936960E-023
   3.8100000000000009E-002    -6.3172823280636497E-023
   3.8400000000000004E-002     1.3197661491630386E-022
   3.8699999999999998E-002    -2.2849839298190435E-022
   3.9000000000000007E-002     3.8466625558592554E-022
   3.9300000000000002E-002    -6.2960081626308412E-022
   3.9600000000000003E-002     4.5518040618438368E-022
   3.9900000000000005E-002     3.1167488563840008E-021
   4.0200000000000000E-002    -1.8669963327125377E-020
   4.0500000000000001E-002     5.7391795877274689E-020
   4.0800000000000003E-002    -9.9886263961527465E-020
   4.1100000000000005E-002     6.3904168873566798E-022
   4.1399999999999999E-002     6.2339304725223632E-019
   4.1700000000000008E-002    -2.1802817280478229E-018
   4.2000000000000003E-002     3.7856056808822778E-018
   4.2299999999999997E-002    -3.4441791931811033E-019
   4.2600000000000006E-002    -1.9361959596849994E-017
   4.2900000000000001E-002     6.3552366020828632E-017
   4.3200000000000002E-002    -1.0067960979552349E-016
   4.3500000000000004E-002    -7.2079815969612199E-018
   4.3799999999999999E-002     5.3151203992771930E-016
   4.4100000000000000E-002    -1.6324165883675715E-015
   4.4400000000000002E-002     2.4148336158801842E-015
   4.4700000000000004E-002     8.7983712972822286E-016
   4.4999999999999998E-002    -1.5391742628952154E-014
   4.5300000000000000E-002     4.2371581990051075E-014
   4.5600000000000002E-002    -4.4974115071506398E-014
   4.5899999999999996E-002    -9.1793631550591807E-014
   4.6200000000000005E-002     4.8509307963446504E-013
   4.6500000000000000E-002    -8.2507299725538681E-013
   4.6799999999999994E-002    -2.8431030331424170E-013
   4.7100000000000003E-002     4.5995901100156820E-012
   4.7399999999999998E-002    -9.1997164889765960E-012
   4.7700000000000006E-002    -5.0328604655758661E-013
   4.8000000000000001E-002     4.0105167387437608E-011
   4.8300000000000010E-002    -7.3773419070986182E-011
   4.8600000000000004E-002    -2.6637773037218208E-011
   4.8899999999999999E-002     3.1674421706194557E-010
   4.9200000000000008E-002    -3.7536974637913163E-010
   4.9500000000000002E-002    -5.4939371638626011E-010
   4.9800000000000011E-002     1.8348722738897046E-009
   5.0100000000000006E-002    -3.6799418519178495E-010
   5.0400000000000000E-002    -4.4250811993159706E-009
   5.0700000000000009E-002     3.6101700852831667E-009
   5.1000000000000004E-002     7.8869822521760408E-009
   5.1299999999999998E-002    -3.1792517254475207E-009
   5.1600000000000007E-002    -3.5337081657954160E-008
   5.1900000000000002E-002    -4.8599033135618403E-009
   5.2200000000000010E-002     2.2419938923434873E-007
   5.2500000000000005E-002    -1.4131240480509552E-007
   5.2800000000000000E-002    -1.1240855885650051E-006
   5.3099999999999994E-002     1.7729843770755153E-006
   5.3400000000000003E-002     1.1116358777558418E-005
   5.3699999999999998E-002     2.0001962687136869E-005
   5.4000000000000006E-002     2.3049404260637633E-005
   5.4300000000000001E-002     2.6174098757744069E-005
   5.4599999999999996E-002     3.8679068266602020E-005
   5.4900000000000004E-002     6.4517360061932586E-005
   5.5199999999999999E-002     1.0208853145362783E-004
   5.5499999999999994E-002     1.4993328097283770E-004
   5.5800000000000002E-002     2.1252333221975854E-004
   5.6099999999999997E-002     3.0341390579229495E-004
   5.6400000000000006E-002     4.3830279253725268E-004
   5.6700000000000000E-002     6.2319507974808249E-004
   5.6999999999999995E-002     8.6224420585669169E-004
   5.7300000000000004E-002     1.1660568565636982E-003
   5.7599999999999998E-002     1.5439582923609213E-003
   5.7900000000000007E-002     2.0023850450919143E-003
   5.8200000000000002E-002     2.5418014643651620E-003
   5.8499999999999996E-002     3.1454877915234581E-003
   5.8800000000000005E-002     3.7786034956395625E-003
   5.9100000000000000E-002     4.3890897044945604E-003
   5.9400000000000008E-002     4.8914283149230370E-003
   5.9700000000000003E-002     5.1593256553830466E-003
   6.0000000000000012E-002     5.0347209262511889E-003
   6.0300000000000006E-002     4.3207117812027809E-003
   6.0600000000000001E-002     2.7807054230166934E-003
   6.0900000000000010E-002     1.5480128871604753E-004
   6.1200000000000004E-002    -3.8233240505729667E-003
   6.1500000000000013E-002    -9.3980567182074190E-003
   6.1800000000000008E-002    -1.6750325340024075E-002
   6.2100000000000002E-002    -2.5961211388767107E-002
   6.2399999999999997E-002    -3.6953065415591908E-002
   6.2700000000000006E-002    -4.9410865222826332E-002
   6.3000000000000000E-002    -6.2759893012165127E-002
   6.3300000000000009E-002    -7.6147230529790111E-002
   6.3600000000000004E-002    -8.8383847967324111E-002
   6.3899999999999998E-002    -9.7971432287573990E-002
   6.4199999999999993E-002   -0.10318507432630121     
   6.4500000000000002E-002   -0.10215178384556091     
   6.4800000000000010E-002    -9.2994605879001574E-002
   6.5100000000000005E-002    -7.4035775279653368E-002
   6.5400000000000000E-002    -4.3989306820294685E-002
   6.5700000000000008E-002    -2.1904685886818716E-003
   6.5999999999999989E-002     5.1154975934919120E-002
   6.6299999999999998E-002    0.11481889922758638     
   6.6600000000000006E-002    0.18647247895979918     
   6.6900000000000001E-002    0.26264814307309514     
   6.7199999999999996E-002    0.33882370122262506     
   6.7500000000000004E-002    0.40963927091363578     
   6.7800000000000013E-002    0.46926213169826514     
   6.8099999999999994E-002    0.51183625158595514     
   6.8400000000000002E-002    0.53196915555825797     
   6.8700000000000011E-002    0.52525715404700546     
   6.8999999999999992E-002    0.48881899457825506     
   6.9300000000000000E-002    0.42174590856488842     
   6.9600000000000009E-002    0.32532899058774323     
   6.9900000000000004E-002    0.20320984721444424     
   7.0199999999999999E-002     6.1308865726566020E-002
   7.0500000000000007E-002    -9.2552675334503579E-002
   7.0800000000000016E-002   -0.24915008625149310     
   7.1099999999999997E-002   -0.39842218746205388     
   7.1400000000000005E-002   -0.53036069222605897     
   7.1700000000000000E-002   -0.63587753100266575     
   7.1999999999999995E-002   -0.70744836055993254     
   7.2300000000000003E-002   -0.73975788171023527     
   7.2600000000000012E-002   -0.73032001768591004     
   7.2900000000000006E-002   -0.67967880326136654     
   7.3200000000000001E-002   -0.59133616477865047     
   7.3499999999999996E-002   -0.47147180230799957     
   7.3800000000000004E-002   -0.32856791792565976     
   7.4099999999999999E-002   -0.17272874921668524     
   7.4400000000000008E-002    -1.4686786322275040E-002
   7.4700000000000003E-002    0.13488352383120955     
   7.5000000000000011E-002    0.26610810041823374     
   7.5299999999999992E-002    0.37074757239504069     
   7.5600000000000001E-002    0.44274306068452340     
   7.5900000000000009E-002    0.47844963793809925     
   7.6200000000000004E-002    0.47680225053670755     
   7.6499999999999999E-002    0.43928183836349560     
   7.6800000000000007E-002    0.36960193106474654     
   7.7099999999999988E-002    0.27325087813015070     
   7.7399999999999997E-002    0.15695795494601766     
   7.7700000000000005E-002     2.8181758972490478E-002
   7.8000000000000014E-002   -0.10545068168691343     
   7.8299999999999995E-002   -0.23668831481981475     
   7.8600000000000003E-002   -0.35907052667580830     
   7.8900000000000012E-002   -0.46719940904157153     
   7.9199999999999993E-002   -0.55686364573184433     
   7.9500000000000001E-002   -0.62519980410133535     
   7.9800000000000010E-002   -0.67061465437328660     
   8.0100000000000018E-002   -0.69255554295020016     
   8.0399999999999999E-002   -0.69145297452555432     
   8.0700000000000008E-002   -0.66852969263758932     
   8.1000000000000003E-002   -0.62538824920045544     
   8.1299999999999997E-002   -0.56400174438093398     
   8.1600000000000006E-002   -0.48659822509470518     
   8.1900000000000014E-002   -0.39531533190991147     
   8.2199999999999995E-002   -0.29229471915775618     
   8.2500000000000004E-002   -0.17969430688059268     
   8.2799999999999999E-002    -5.9543304909935854E-002
   8.3100000000000007E-002     6.6098421793911843E-002
   8.3400000000000002E-002    0.19502105473187098     
   8.3700000000000011E-002    0.32483550629886071     
   8.4000000000000005E-002    0.45311055956686408     
   8.4300000000000000E-002    0.57694931455498299     
   8.4599999999999995E-002    0.69319534042388964     
   8.4900000000000003E-002    0.79863888067255739     
   8.5199999999999998E-002    0.88968308084689973     
   8.5500000000000007E-002    0.96272026763679674     
   8.5800000000000001E-002     1.0144353656961191     
   8.6100000000000010E-002     1.0417674356457614     
   8.6399999999999991E-002     1.0422057380722620     
   8.6699999999999999E-002     1.0141928870408583     
   8.7000000000000008E-002    0.95721582893299439     
   8.7300000000000003E-002    0.87184699562583279     
   8.7599999999999997E-002    0.76011832761962861     
   8.7900000000000006E-002    0.62551423331574196     
   8.8200000000000014E-002    0.47269093924081362     
   8.8499999999999995E-002    0.30736899654842986     
   8.8800000000000004E-002    0.13621218522242315     
   8.9100000000000013E-002    -3.3651519130755127E-002
   8.9399999999999993E-002   -0.19512415624459581     
   8.9700000000000002E-002   -0.34147795186137625     
   9.0000000000000011E-002   -0.46682960723470124     
   9.0299999999999991E-002   -0.56657529942524432     
   9.0600000000000000E-002   -0.63757320934752559     
   9.0900000000000009E-002   -0.67857269706007695     
   9.1200000000000017E-002   -0.69013106959193271     
   9.1499999999999998E-002   -0.67447992510629773     
   9.1800000000000007E-002   -0.63553125860011817     
   9.2100000000000001E-002   -0.57848052070707823     
   9.2399999999999996E-002   -0.50919817896794606     
   9.2700000000000005E-002   -0.43410476830102157     
   9.3000000000000013E-002   -0.35955007965017238     
   9.3300000000000008E-002   -0.29115942432391817     
   9.3600000000000003E-002   -0.23367059347253938     
   9.3899999999999997E-002   -0.19045036252846856     
   9.4200000000000006E-002   -0.16334791438657639     
   9.4500000000000001E-002   -0.15243077280820044     
   9.4800000000000009E-002   -0.15620276671987826     
   9.5100000000000004E-002   -0.17160563870742324     
   9.5399999999999999E-002   -0.19422610010969144     
   9.5699999999999993E-002   -0.21890318571241946     
   9.6000000000000002E-002   -0.23975722677892236     
   9.6300000000000011E-002   -0.25102735970041046     
   9.6600000000000005E-002   -0.24747471059122472     
   9.6900000000000000E-002   -0.22478680976308388     
   9.7200000000000009E-002   -0.18011732657214488     
   9.7499999999999989E-002   -0.11240517087971758     
   9.7799999999999998E-002    -2.2863386471340112E-002
   9.8100000000000007E-002     8.5213688619287270E-002
   9.8400000000000015E-002    0.20637449394802182     
   9.8699999999999996E-002    0.33301621152288025     
   9.9000000000000005E-002    0.45615669563934003     
   9.9300000000000013E-002    0.56560549761437606     
   9.9599999999999994E-002    0.65102383853664414     
   9.9900000000000003E-002    0.70245129266952167     
  0.10020000000000001         0.71131071202358964     
  0.10049999999999999         0.67117426711477490     
  0.10080000000000000         0.57839681918379293     
  0.10110000000000001         0.43286512171302294     
  0.10140000000000000         0.23804603293313686     
  0.10170000000000000          1.2051988833043786E-003
  0.10200000000000001        -0.26686105938552301     
  0.10230000000000002        -0.55241661065636116     
  0.10260000000000000        -0.83944230027594069     
  0.10290000000000001         -1.1106423258243696     
  0.10320000000000000         -1.3486101954240430     
  0.10350000000000001         -1.5366974211709892     
  0.10380000000000000         -1.6602766018998545     
  0.10410000000000001         -1.7077709699253889     
  0.10440000000000001         -1.6712591081441204     
  0.10470000000000000         -1.5469642728102588     
  0.10500000000000000         -1.3358923490088725     
  0.10530000000000000         -1.0435733173592796     
  0.10560000000000000        -0.68007908221753355     
  0.10590000000000001        -0.25950690373290947     
  0.10620000000000000         0.20085449339702682     
  0.10650000000000001         0.68085675266521128     
  0.10679999999999999          1.1587578177251152     
  0.10710000000000000          1.6127306879367449     
  0.10740000000000001          2.0210050394096077     
  0.10770000000000000          2.3636957029193320     
  0.10800000000000000          2.6239968333355481     
  0.10830000000000001          2.7887131519472592     
  0.10859999999999999          2.8491936784700789     
  0.10890000000000000          2.8021713899951530     
  0.10920000000000001          2.6498545366396900     
  0.10950000000000001          2.3996322748591941     
  0.10979999999999999          2.0641663995555604     
  0.11009999999999999          1.6606397209435364     
  0.11040000000000001          1.2091702961681805     
  0.11070000000000001         0.73226439045476499     
  0.11100000000000000         0.25317602537658712     
  0.11130000000000000        -0.20571506004021781     
  0.11160000000000002        -0.62396456387980237     
  0.11190000000000001        -0.98423187613899776     
  0.11220000000000001         -1.2735569598799037     
  0.11250000000000000         -1.4837352314754355     
  0.11280000000000000         -1.6115289979633038     
  0.11309999999999999         -1.6584997621787165     
  0.11340000000000001         -1.6305928025540191     
  0.11369999999999998         -1.5373825508821117     
  0.11400000000000000         -1.3910988171921514     
  0.11430000000000000         -1.2052137482776777     
  0.11460000000000002        -0.99385558765642923     
  0.11489999999999999        -0.77063203828571925     
  0.11520000000000001        -0.54793740606940844     
  0.11550000000000001        -0.33626215356305156     
  0.11580000000000000        -0.14428504737009518     
  0.11609999999999999          2.1141820640431450E-002
  0.11640000000000002         0.15489584507758569     
  0.11670000000000001         0.25337850222356351     
  0.11700000000000001         0.31408324636727497     
  0.11730000000000000         0.33505405597075655     
  0.11760000000000000         0.31524325165805334     
  0.11789999999999999         0.25493170117713188     
  0.11820000000000001         0.15507074037934276     
  0.11850000000000001          1.8182613828708484E-002
  0.11880000000000000        -0.15073954260597017     
  0.11910000000000000        -0.34456324328199683     
  0.11940000000000002        -0.55364514992267444     
  0.11970000000000001        -0.76588303484463416     
  0.12000000000000001        -0.96714647859160219     
  0.12030000000000000         -1.1419426281194418     
  0.12060000000000000         -1.2751188207670947     
  0.12089999999999999         -1.3527288278375496     
  0.12119999999999999         -1.3631607491941862     
  0.12150000000000001         -1.2990184789869974     
  0.12180000000000001         -1.1578077279357091     
  0.12210000000000000        -0.94265235784518531     
  0.12239999999999999        -0.66178992190165165     
  0.12270000000000002        -0.32911450003201959     
  0.12300000000000001          3.7174286686602415E-002
  0.12330000000000001         0.41631712040374685     
  0.12360000000000000         0.78614671018360605     
  0.12390000000000000          1.1247775616751201     
  0.12419999999999999          1.4122565426596203     
  0.12450000000000001          1.6322944903325578     
  0.12480000000000001          1.7727916572782554     
  0.12509999999999999          1.8266647511078047     
  0.12540000000000001          1.7923627290881043     
  0.12570000000000003          1.6733794483468600     
  0.12600000000000000          1.4778765733897352     
  0.12630000000000002          1.2176320009892301     
  0.12659999999999999         0.90776301066926424     
  0.12690000000000001         0.56533047766131272     
  0.12719999999999998         0.20837166426566683     
  0.12750000000000000        -0.14466839362757217     
  0.12780000000000002        -0.47615131645378583     
  0.12809999999999999        -0.76949369499034170     
  0.12840000000000001         -1.0102805206723520     
  0.12869999999999998         -1.1868283283698493     
  0.12900000000000000         -1.2904851900499208     
  0.12930000000000003         -1.3163200230386152     
  0.12959999999999999         -1.2633856939889569     
  0.12990000000000002         -1.1354295180899747     
  0.13019999999999998        -0.94009861809582063     
  0.13050000000000000        -0.68909857090592719     
  0.13080000000000003        -0.39829362321724709     
  0.13109999999999999         -8.6054229495909407E-002
  0.13140000000000002         0.22762587887644664     
  0.13169999999999998         0.52193864284103930     
  0.13200000000000001         0.77678747991955921     
  0.13229999999999997         0.97427937481815852     
  0.13260000000000000          1.1003125626196608     
  0.13290000000000002          1.1448752578078134     
  0.13319999999999999          1.1030213206784465     
  0.13350000000000001         0.97590813835936974     
  0.13380000000000003         0.77014156974180048     
  0.13410000000000000         0.49742102278918643     
  0.13440000000000002         0.17389583802898026     
  0.13469999999999999        -0.18091999798684730     
  0.13500000000000001        -0.54512595764055638     
  0.13529999999999998        -0.89650876741198904     
  0.13560000000000000         -1.2135504251880338     
  0.13590000000000002         -1.4765761148341041     
  0.13619999999999999         -1.6693062437776365     
  0.13650000000000001         -1.7797917867227058     
  0.13680000000000003         -1.8009172162461320     
  0.13710000000000000         -1.7306050138042264     
  0.13740000000000002         -1.5720700231540172     
  0.13769999999999999         -1.3334626304193069     
  0.13800000000000001         -1.0270518373398863     
  0.13829999999999998        -0.66864292639506784     
  0.13860000000000000        -0.27611390923407020     
  0.13890000000000002         0.13117151560306262     
  0.13919999999999999         0.53343291157910611     
  0.13950000000000001         0.91216023302829252     
  0.13979999999999998          1.2503452248586906     
  0.14010000000000000          1.5333529691617691     
  0.14040000000000002          1.7495035143944626     
  0.14069999999999999          1.8908579627534134     
  0.14100000000000001          1.9527530153171946     
  0.14130000000000004          1.9344149211295116     
  0.14160000000000000          1.8387648956874705     
  0.14189999999999997          1.6721823479413795     
  0.14219999999999999          1.4444856357651439     
  0.14250000000000002          1.1682008172405443     
  0.14279999999999998         0.85782029763676459     
  0.14310000000000000         0.52971303296326400     
  0.14339999999999997         0.20033205668068843     
  0.14369999999999999        -0.11400976260360457     
  0.14400000000000002        -0.39886489491355681     
  0.14429999999999998        -0.64230171833239003     
  0.14460000000000001        -0.83568099707496424     
  0.14490000000000003        -0.97471243846410616     
  0.14520000000000000         -1.0594189232424986     
  0.14550000000000002         -1.0939625480463393     
  0.14579999999999999         -1.0858745248780379     
  0.14610000000000001         -1.0457785715925407     
  0.14640000000000003        -0.98613423636878261     
  0.14670000000000000        -0.91882745998640347     
  0.14699999999999996        -0.85522423890501420     
  0.14729999999999999        -0.80469640140164711     
  0.14760000000000001        -0.77343392912402642     
  0.14789999999999998        -0.76392029396037098     
  0.14820000000000000        -0.77543775277158500     