  -1.4999999999999999E-002     0.0000000000000000     
  -1.4700000000000000E-002     0.0000000000000000     
  -1.4400000000000000E-002     0.0000000000000000     
  -1.4100000000000000E-002     0.0000000000000000     
  -1.3800000000000000E-002     0.0000000000000000     
  -1.3500000000000000E-002     0.0000000000000000     
  -1.3200000000000000E-002     0.0000000000000000     
  -1.2899999999999998E-002     0.0000000000000000     
  -1.2600000000000000E-002     0.0000000000000000     
  -1.2299999999999998E-002     0.0000000000000000     
  -1.2000000000000000E-002     0.0000000000000000     
  -1.1699999999999999E-002     0.0000000000000000     
  -1.1399999999999999E-002     0.0000000000000000     
  -1.1099999999999999E-002     0.0000000000000000     
  -1.0799999999999999E-002     0.0000000000000000     
  -1.0499999999999999E-002     0.0000000000000000     
  -1.0199999999999999E-002     0.0000000000000000     
  -9.8999999999999991E-003     0.0000000000000000     
  -9.5999999999999992E-003     0.0000000000000000     
  -9.2999999999999992E-003     0.0000000000000000     
  -8.9999999999999993E-003     0.0000000000000000     
  -8.6999999999999994E-003     0.0000000000000000     
  -8.3999999999999995E-003     0.0000000000000000     
  -8.0999999999999996E-003     0.0000000000000000     
  -7.7999999999999988E-003     0.0000000000000000     
  -7.4999999999999997E-003     0.0000000000000000     
  -7.1999999999999998E-003     0.0000000000000000     
  -6.8999999999999981E-003     0.0000000000000000     
  -6.5999999999999982E-003     0.0000000000000000     
  -6.3000000000000000E-003     0.0000000000000000     
  -6.0000000000000001E-003     0.0000000000000000     
  -5.6999999999999985E-003     0.0000000000000000     
  -5.3999999999999986E-003     0.0000000000000000     
  -5.1000000000000004E-003     0.0000000000000000     
  -4.7999999999999987E-003     0.0000000000000000     
  -4.5000000000000005E-003     0.0000000000000000     
  -4.1999999999999989E-003     0.0000000000000000     
  -3.8999999999999990E-003     0.0000000000000000     
  -3.5999999999999990E-003     0.0000000000000000     
  -3.2999999999999991E-003     0.0000000000000000     
  -2.9999999999999992E-003     0.0000000000000000     
  -2.6999999999999993E-003     0.0000000000000000     
  -2.3999999999999994E-003     0.0000000000000000     
  -2.0999999999999977E-003     0.0000000000000000     
  -1.7999999999999995E-003     0.0000000000000000     
  -1.4999999999999979E-003     0.0000000000000000     
  -1.1999999999999997E-003     0.0000000000000000     
  -8.9999999999999976E-004     0.0000000000000000     
  -5.9999999999999810E-004     0.0000000000000000     
  -2.9999999999999992E-004     0.0000000000000000     
   0.0000000000000000          0.0000000000000000     
   3.0000000000000165E-004     0.0000000000000000     
   5.9999999999999984E-004     0.0000000000000000     
   9.0000000000000149E-004     0.0000000000000000     
   1.2000000000000031E-003     0.0000000000000000     
   1.5000000000000013E-003     0.0000000000000000     
   1.8000000000000030E-003     0.0000000000000000     
   2.1000000000000012E-003     0.0000000000000000     
   2.3999999999999994E-003     0.0000000000000000     
   2.7000000000000010E-003     0.0000000000000000     
   2.9999999999999992E-003     0.0000000000000000     
   3.3000000000000008E-003     0.0000000000000000     
   3.6000000000000025E-003     0.0000000000000000     
   3.9000000000000007E-003     0.0000000000000000     
   4.2000000000000023E-003     0.0000000000000000     
   4.5000000000000005E-003     0.0000000000000000     
   4.7999999999999987E-003     0.0000000000000000     
   5.1000000000000004E-003     0.0000000000000000     
   5.4000000000000020E-003     0.0000000000000000     
   5.7000000000000037E-003     0.0000000000000000     
   5.9999999999999984E-003     0.0000000000000000     
   6.3000000000000000E-003     0.0000000000000000     
   6.6000000000000017E-003     0.0000000000000000     
   6.9000000000000034E-003     0.0000000000000000     
   7.2000000000000015E-003     0.0000000000000000     
   7.5000000000000032E-003     0.0000000000000000     
   7.8000000000000014E-003     0.0000000000000000     
   8.0999999999999996E-003     0.0000000000000000     
   8.4000000000000012E-003     0.0000000000000000     
   8.7000000000000029E-003     0.0000000000000000     
   9.0000000000000011E-003     0.0000000000000000     
   9.2999999999999992E-003     0.0000000000000000     
   9.6000000000000009E-003     0.0000000000000000     
   9.8999999999999991E-003     0.0000000000000000     
   1.0200000000000001E-002     0.0000000000000000     
   1.0500000000000002E-002     0.0000000000000000     
   1.0800000000000004E-002     0.0000000000000000     
   1.1099999999999999E-002     0.0000000000000000     
   1.1400000000000000E-002     0.0000000000000000     
   1.1700000000000002E-002     0.0000000000000000     
   1.2000000000000004E-002     0.0000000000000000     
   1.2300000000000002E-002     0.0000000000000000     
   1.2600000000000000E-002     0.0000000000000000     
   1.2900000000000002E-002     0.0000000000000000     
   1.3200000000000000E-002     0.0000000000000000     
   1.3500000000000002E-002     0.0000000000000000     
   1.3800000000000003E-002     0.0000000000000000     
   1.4100000000000001E-002     0.0000000000000000     
   1.4400000000000000E-002     0.0000000000000000     
   1.4700000000000001E-002     0.0000000000000000     
   1.4999999999999999E-002     0.0000000000000000     
   1.5300000000000001E-002     0.0000000000000000     
   1.5600000000000003E-002     0.0000000000000000     
   1.5899999999999997E-002     0.0000000000000000     
   1.6199999999999999E-002     0.0000000000000000     
   1.6500000000000001E-002     0.0000000000000000     
   1.6800000000000002E-002     0.0000000000000000     
   1.7100000000000004E-002     0.0000000000000000     
   1.7400000000000006E-002     0.0000000000000000     
   1.7700000000000000E-002     0.0000000000000000     
   1.8000000000000002E-002     0.0000000000000000     
   1.8300000000000004E-002     0.0000000000000000     
   1.8600000000000005E-002     0.0000000000000000     
   1.8900000000000000E-002     0.0000000000000000     
   1.9200000000000002E-002     0.0000000000000000     
   1.9500000000000003E-002     6.7492790638268195E-037
   1.9799999999999998E-002     2.0270892961286147E-035
   2.0100000000000000E-002    -1.4657748101888844E-035
   2.0400000000000001E-002    -1.2552546541244035E-034
   2.0700000000000003E-002     4.1724800053396933E-034
   2.0999999999999998E-002    -8.7260766484286554E-034
   2.1299999999999999E-002     2.7079616888718005E-033
   2.1600000000000001E-002    -4.8031835737584491E-033
   2.1900000000000003E-002     6.2012014839222943E-033
   2.2200000000000004E-002    -2.9678826002147584E-033
   2.2500000000000006E-002    -1.5251899540995529E-032
   2.2800000000000001E-002     5.1667892676754255E-032
   2.3100000000000002E-002    -7.5721912754243347E-032
   2.3400000000000004E-002     1.2535360987218921E-032
   2.3699999999999999E-002     2.1404476355056013E-031
   2.4000000000000000E-002    -5.5350357476582212E-031
   2.4300000000000002E-002     6.7554154879608584E-031
   2.4599999999999997E-002     1.8946049240708542E-032
   2.4900000000000005E-002    -2.0161740256421452E-030
   2.5200000000000000E-002     4.8431049408722212E-030
   2.5499999999999995E-002    -6.0047930176786434E-030
   2.5800000000000003E-002     6.8617022427161865E-031
   2.6099999999999998E-002     1.5788485974845290E-029
   2.6400000000000007E-002    -4.1025869081482139E-029
   2.6700000000000002E-002     5.7108221122550985E-029
   2.6999999999999996E-002    -3.2496159417930067E-029
   2.7300000000000005E-002    -4.8076987164176064E-029
   2.7600000000000000E-002     1.0777102962205213E-028
   2.7900000000000008E-002     1.8581162771471311E-028
   2.8200000000000003E-002    -1.7589243328875411E-027
   2.8499999999999998E-002     6.4763669154621462E-027
   2.8800000000000006E-002    -1.6004679591451582E-026
   2.9100000000000001E-002     2.5956672504324682E-026
   2.9400000000000003E-002    -1.6893273250897027E-026
   2.9700000000000004E-002    -3.2514362880695888E-026
   3.0000000000000006E-002     5.9656707947863428E-026
   3.0300000000000001E-002     1.9054838871205473E-025
   3.0600000000000002E-002    -7.9175163347522484E-025
   3.0900000000000004E-002    -4.0698832798726962E-025
   3.1199999999999999E-002     1.1950783066479408E-023
   3.1500000000000007E-002    -4.9366846023461700E-023
   3.1800000000000002E-002     1.1132531183397738E-022
   3.2099999999999997E-002    -9.5649021223746638E-023
   3.2400000000000005E-002    -3.4908884811458215E-022
   3.2700000000000000E-002     1.8510334848497435E-021
   3.3000000000000002E-002    -4.4654516741137077E-021
   3.3300000000000003E-002     3.8689971160489866E-021
   3.3599999999999998E-002     1.8845693698118505E-020
   3.3900000000000000E-002    -1.0865324222165785E-019
   3.4200000000000001E-002     2.8827988057420873E-019
   3.4500000000000003E-002    -2.5091606055213001E-019
   3.4799999999999998E-002    -1.3704532395163485E-018
   3.5099999999999999E-002     6.9896250974380131E-018
   3.5400000000000001E-002    -1.4313488472619649E-017
   3.5699999999999996E-002    -1.2229914889316722E-018
   3.6000000000000004E-002     9.8127630470577124E-017
   3.6299999999999999E-002    -2.8849139171001849E-016
   3.6600000000000008E-002     2.5653857554349433E-016
   3.6900000000000002E-002     8.9251170043843279E-016
   3.7199999999999997E-002    -3.7271907004816079E-015
   3.7500000000000006E-002     5.1067321412679263E-015
   3.7800000000000000E-002     5.0446244158680392E-015
   3.8100000000000009E-002    -3.5208160056918421E-014
   3.8400000000000004E-002     6.0139893972626504E-014
   3.8699999999999998E-002     9.3770598229112385E-015
   3.9000000000000007E-002    -2.5827190570526987E-013
   3.9300000000000002E-002     5.1832746181188895E-013
   3.9600000000000003E-002    -1.4881438087587776E-013
   3.9900000000000005E-002    -1.4915320051775367E-012
   4.0200000000000000E-002     3.4887297781558759E-012
   4.0500000000000001E-002    -2.2399183424090393E-012
   4.0800000000000003E-002    -5.9807044562269877E-012
   4.1100000000000005E-002     1.8650081669569686E-011
   4.1399999999999999E-002    -2.3168736346106401E-011
   4.1700000000000008E-002    -2.8328651188483020E-012
   4.2000000000000003E-002     9.0731294279565841E-011
   4.2299999999999997E-002    -2.2539407817502557E-010
   4.2600000000000006E-002     1.5234856984111257E-010
   4.2900000000000001E-002     6.0396955718682454E-010
   4.3200000000000002E-002    -1.6472521452644612E-009
   4.3500000000000004E-002     5.4031847930788889E-010
   4.3799999999999999E-002     3.9455472400635572E-009
   4.4100000000000000E-002    -5.6455244329484066E-009
   4.4400000000000002E-002    -1.4559129789868214E-009
   4.4700000000000004E-002     4.8301302446903767E-009
   4.4999999999999998E-002    -4.5389010826709542E-009
   4.5300000000000000E-002     4.7119902519076947E-008
   4.5600000000000002E-002    -9.7870905701561381E-008
   4.5899999999999996E-002    -2.5195657291056327E-007
   4.6200000000000005E-002     1.9685528322828532E-006
   4.6500000000000000E-002     8.7023501687517819E-006
   4.6799999999999994E-002     1.8141535798548929E-005
   4.7100000000000003E-002     2.6806010065001462E-005
   4.7399999999999998E-002     3.3943581291426266E-005
   4.7700000000000006E-002     4.4208754389326290E-005
   4.8000000000000001E-002     6.6280050053902343E-005
   4.8300000000000010E-002     1.0523758187248437E-004
   4.8600000000000004E-002     1.6199098631048138E-004
   4.8899999999999999E-002     2.4295563627038240E-004
   4.9200000000000008E-002     3.6068033314473331E-004
   4.9500000000000002E-002     5.2630939932087702E-004
   4.9800000000000011E-002     7.5122969472412573E-004
   5.0100000000000006E-002     1.0538936604884276E-003
   5.0400000000000000E-002     1.4577589264190508E-003
   5.0700000000000009E-002     1.9845793842749380E-003
   5.1000000000000004E-002     2.6539144391711069E-003
   5.1299999999999998E-002     3.4845811145690995E-003
   5.1600000000000007E-002     4.4949588284527216E-003
   5.1900000000000002E-002     5.6990234729614410E-003
   5.2200000000000010E-002     7.0931109904675159E-003
   5.2500000000000005E-002     8.6471322071936599E-003
   5.2800000000000000E-002     1.0311779176130740E-002
   5.3099999999999994E-002     1.2017903518750048E-002
   5.3400000000000003E-002     1.3660722123415821E-002
   5.3699999999999998E-002     1.5100332634798080E-002
   5.4000000000000006E-002     1.6170830171866563E-002
   5.4300000000000001E-002     1.6686034028621750E-002
   5.4599999999999996E-002     1.6452972295869304E-002
   5.4900000000000004E-002     1.5291366995765068E-002
   5.5199999999999999E-002     1.3050507783449062E-002
   5.5499999999999994E-002     9.6391846574463372E-003
   5.5800000000000002E-002     5.0491828988694452E-003
   5.6099999999999997E-002    -6.3189307975353517E-004
   5.6400000000000006E-002    -7.2031485851046552E-003
   5.6700000000000000E-002    -1.4360217122670807E-002
   5.6999999999999995E-002    -2.1735653255713278E-002
   5.7300000000000004E-002    -2.8929483236585053E-002
   5.7599999999999998E-002    -3.5574263027494633E-002
   5.7900000000000007E-002    -4.1390852892041266E-002
   5.8200000000000002E-002    -4.6298415903725659E-002
   5.8499999999999996E-002    -5.0481663156128141E-002
   5.8800000000000005E-002    -5.4431751888105458E-002
   5.9100000000000000E-002    -5.8961425048929331E-002
   5.9400000000000008E-002    -6.5182521709103228E-002
   5.9700000000000003E-002    -7.4407867824097668E-002
   6.0000000000000012E-002    -8.7994858725145259E-002
   6.0300000000000006E-002   -0.10714906551980251     
   6.0600000000000001E-002   -0.13265240436043266     
   6.0900000000000010E-002   -0.16470526610748687     
   6.1200000000000004E-002   -0.20259238007521072     
   6.1500000000000013E-002   -0.24458555417867076     
   6.1800000000000008E-002   -0.28788478554317959     
   6.2100000000000002E-002   -0.32864494845899289     
   6.2399999999999997E-002   -0.36218916415315555     
   6.2700000000000006E-002   -0.38333713298349648     
   6.3000000000000000E-002   -0.38689892916715102     
   6.3300000000000009E-002   -0.36815499698275372     
   6.3600000000000004E-002   -0.32350768922728124     
   6.3899999999999998E-002   -0.25089683080790792     
   6.4199999999999993E-002   -0.15024717081905672     
   6.4500000000000002E-002    -2.3827951343111529E-002
   6.4800000000000010E-002    0.12373767875640987     
   6.5100000000000005E-002    0.28563691192155177     
   6.5400000000000000E-002    0.45321704937199786     
   6.5700000000000008E-002    0.61664983594928557     
   6.5999999999999989E-002    0.76543460152976972     
   6.6299999999999998E-002    0.88943074770267849     
   6.6600000000000006E-002    0.97958730860261789     
   6.6900000000000001E-002     1.0286622598529556     
   6.7199999999999996E-002     1.0317292772565894     
   6.7500000000000004E-002    0.98682063256131125     
   6.7800000000000013E-002    0.89489256310717413     
   6.8099999999999994E-002    0.75992057973151805     
   6.8400000000000002E-002    0.58854148116909277     
   6.8700000000000011E-002    0.38976573189571984     
   6.8999999999999992E-002    0.17425147745136374     
   6.9300000000000000E-002    -4.6332621748764846E-002
   6.9600000000000009E-002   -0.25994007143669268     
   6.9900000000000004E-002   -0.45508956353381330     
   7.0199999999999999E-002   -0.62130138643343935     
   7.0500000000000007E-002   -0.74989203698926454     
   7.0800000000000016E-002   -0.83447925810584656     
   7.1099999999999997E-002   -0.87117009137887258     
   7.1400000000000005E-002   -0.85925619520931862     
   7.1700000000000000E-002   -0.80078218778263688     
   7.1999999999999995E-002   -0.70107004898387792     
   7.2300000000000003E-002   -0.56793394810419606     
   7.2600000000000012E-002   -0.41168379054635434     
   7.2900000000000006E-002   -0.24438470447410623     
   7.3200000000000001E-002    -7.8963097674197028E-002
   7.3499999999999996E-002     7.1169618917675051E-002
   7.3800000000000004E-002    0.19382457053146793     
   7.4099999999999999E-002    0.27829925831726038     
   7.4400000000000008E-002    0.31666620451718558     
   7.4700000000000003E-002    0.30455245455984931     
   7.5000000000000011E-002    0.24128250894343756     
   7.5299999999999992E-002    0.13078116988765945     
   7.5600000000000001E-002    -1.9403643600798472E-002
   7.5900000000000009E-002   -0.19765796207858283     
   7.6200000000000004E-002   -0.38976080583720774     
   7.6499999999999999E-002   -0.57973995095129127     
   7.6800000000000007E-002   -0.75098279232297693     
   7.7099999999999988E-002   -0.88794455714180354     
   7.7399999999999997E-002   -0.97695068751983771     
   7.7700000000000005E-002    -1.0077834568311488     
   7.8000000000000014E-002   -0.97428040019754447     
   7.8299999999999995E-002   -0.87474606345690764     
   7.8600000000000003E-002   -0.71236512301778354     
   7.8900000000000012E-002   -0.49426739737217124     
   7.9199999999999993E-002   -0.23173156114902255     
   7.9500000000000001E-002     6.1597227961884514E-002
   7.9800000000000010E-002    0.37018646070764560     
   8.0100000000000018E-002    0.67810317419863975     
   8.0399999999999999E-002    0.97005859768421776     
   8.0700000000000008E-002     1.2320684676516251     
   8.1000000000000003E-002     1.4527253488544380     
   8.1299999999999997E-002     1.6229311879373056     
   8.1600000000000006E-002     1.7368745319261023     
   8.1900000000000014E-002     1.7915939835075629     
   8.2199999999999995E-002     1.7868350308389243     
   8.2500000000000004E-002     1.7251282487961670     
   8.2799999999999999E-002     1.6108873613238890     
   8.3100000000000007E-002     1.4508619986609479     
   8.3400000000000002E-002     1.2526835819476303     
   8.3700000000000011E-002     1.0256705824286130     
   8.4000000000000005E-002    0.77982233519085553     
   8.4300000000000000E-002    0.52526072245276256     
   8.4599999999999995E-002    0.27270942493375916     
   8.4900000000000003E-002     3.1711247114630130E-002
   8.5199999999999998E-002   -0.18819817368704614     
   8.5500000000000007E-002   -0.37979948915528838     
   8.5800000000000001E-002   -0.53695071951825724     
   8.6100000000000010E-002   -0.65631880267932774     
   8.6399999999999991E-002   -0.73690476462113563     
   8.6699999999999999E-002   -0.77988335311933799     
   8.7000000000000008E-002   -0.78972622814509941     
   8.7300000000000003E-002   -0.77183821959393306     
   8.7599999999999997E-002   -0.73438134972211799     
   8.7900000000000006E-002   -0.68508920209254276     
   8.8200000000000014E-002   -0.63289114914366618     
   8.8499999999999995E-002   -0.58521476437283382     
   8.8800000000000004E-002   -0.54851499273127169     
   8.9100000000000013E-002   -0.52738371677588947     
   8.9399999999999993E-002   -0.52375033876995547     
   8.9700000000000002E-002   -0.53828636483159942     
   9.0000000000000011E-002   -0.56837699843371847     
   9.0299999999999991E-002   -0.61061166161839298     
   9.0600000000000000E-002   -0.65967111629775588     
   9.0900000000000009E-002   -0.70984744235349295     
   9.1200000000000017E-002   -0.75525241583016722     
   9.1499999999999998E-002   -0.78992640620043186     
   9.1800000000000007E-002   -0.80921798597351735     
   9.2100000000000001E-002   -0.80845838259228031     
   9.2399999999999996E-002   -0.78509466949324569     
   9.2700000000000005E-002   -0.73669301011966093     
   9.3000000000000013E-002   -0.66250959829313361     
   9.3300000000000008E-002   -0.56236472615225808     
   9.3600000000000003E-002   -0.43711687964655083     
   9.3899999999999997E-002   -0.28879178264826549     
   9.4200000000000006E-002   -0.11996315651680667     
   9.4500000000000001E-002     6.5118047142173036E-002
   9.4800000000000009E-002    0.26178649049663438     
   9.5100000000000004E-002    0.46325035045593049     
   9.5399999999999999E-002    0.66199951592079043     
   9.5699999999999993E-002    0.84926611334341517     
   9.6000000000000002E-002     1.0155209988146920     
   9.6300000000000011E-002     1.1506452105551825     
   9.6600000000000005E-002     1.2450493145673505     
   9.6900000000000000E-002     1.2899297045306797     
   9.7200000000000009E-002     1.2783573402889907     
   9.7499999999999989E-002     1.2056452700912264     
   9.7799999999999998E-002     1.0706697081188437     
   9.8100000000000007E-002    0.87545268241898655     
   9.8400000000000015E-002    0.62615457200678126     
   9.8699999999999996E-002    0.33242197178489330     
   9.9000000000000005E-002     7.3296009891127088E-003
   9.9300000000000013E-002   -0.33363872069127631     
   9.9599999999999994E-002   -0.67308751835604574     
   9.9900000000000003E-002   -0.99365597724003973     
  0.10020000000000001         -1.2778412819627978     
  0.10049999999999999         -1.5108425256223286     
  0.10080000000000000         -1.6800613122615493     
  0.10110000000000001         -1.7768038273016751     
  0.10140000000000000         -1.7966958047731922     
  0.10170000000000000         -1.7395661795239645     
  0.10200000000000001         -1.6095951446683670     
  0.10230000000000002         -1.4149927636732313     
  0.10260000000000000         -1.1672526008716924     
  0.10290000000000001        -0.88031975960060538     
  0.10320000000000000        -0.57005980515590460     
  0.10350000000000001        -0.25263778612082011     
  0.10380000000000000          5.5135547749325241E-002
  0.10410000000000001         0.33841686232358287     
  0.10440000000000001         0.58296516547276167     
  0.10470000000000000         0.77739850643377251     
  0.10500000000000000         0.91289053958373978     
  0.10530000000000000         0.98388080689711055     
  0.10560000000000000         0.98862927000120826     
  0.10590000000000001         0.92843387967404123     
  0.10620000000000000         0.80940226462686560     
  0.10650000000000001         0.64068987765295871     
  0.10679999999999999         0.43530692324340198     
  0.10710000000000000         0.20942604983716240     
  0.10740000000000001         -1.9407682395754695E-002
  0.10770000000000000        -0.23135185623681015     
  0.10800000000000000        -0.40764033575283848     
  0.10830000000000001        -0.53067997461291194     
  0.10859999999999999        -0.58573380670315200     
  0.10890000000000000        -0.56262472586815837     
  0.10920000000000001        -0.45637499890109939     
  0.10950000000000001        -0.26856546036171075     
  0.10979999999999999         -6.8966955031302350E-003
  0.11009999999999999         0.31486557976568091     
  0.11040000000000001         0.67709748127729064     
  0.11070000000000001          1.0565596260764818     
  0.11100000000000000          1.4272033821110610     
  0.11130000000000000          1.7632671436716361     
  0.11160000000000002          2.0400892490121882     
  0.11190000000000001          2.2370771267385261     
  0.11220000000000001          2.3388887787629362     
  0.11250000000000000          2.3360611326246419     
  0.11280000000000000          2.2279228018368937     
  0.11309999999999999          2.0188594961028099     
  0.11340000000000001          1.7217241237517347     
  0.11369999999999998          1.3536136819482780     
  0.11400000000000000         0.93632070312939486     
  0.11430000000000000         0.49412707815984497     
  0.11460000000000002          5.0874811553198958E-002
  0.11489999999999999        -0.36920476908576427     
  0.11520000000000001        -0.74630779218935783     
  0.11550000000000001         -1.0630621511903005     
  0.11580000000000000         -1.3074552743661962     
  0.11609999999999999         -1.4730416342059651     
  0.11640000000000002         -1.5573271336585677     
  0.11670000000000001         -1.5648039370682956     
  0.11700000000000001         -1.5025589175621605     
  0.11730000000000000         -1.3836896011319855     
  0.11760000000000000         -1.2228909176312408     
  0.11789999999999999         -1.0379916904976456     
  0.11820000000000001        -0.84807828212189729     
  0.11850000000000001        -0.67108018783660828     
  0.11880000000000000        -0.52528626000752121     
  0.11910000000000000        -0.42465852968930407     
  0.11940000000000002        -0.38064365278858425     
  0.11970000000000001        -0.39853106497984686     
  0.12000000000000001        -0.47888376214846656     
  0.12030000000000000        -0.61534708426425222     
  0.12060000000000000        -0.79545379529633653     
  0.12089999999999999         -1.0020882121230137     
  0.12119999999999999         -1.2128174694858682     
  0.12150000000000001         -1.4039773301732781     
  0.12180000000000001         -1.5506464944659115     
  0.12210000000000000         -1.6302421914715717     
  0.12239999999999999         -1.6245122856995191     
  0.12270000000000002         -1.5205993387061663     
  0.12300000000000001         -1.3138111532670127     
  0.12330000000000001         -1.0065749492395322     
  0.12360000000000000        -0.60967696225461210     
  0.12390000000000000        -0.14028866521492780     
  0.12419999999999999         0.37879712481457739     
  0.12450000000000001         0.92199111914613519     
  0.12480000000000001          1.4628386890811125     
  0.12509999999999999          1.9758532742773067     
  0.12540000000000001          2.4392550978991028     
  0.12570000000000003          2.8353024783822294     
  0.12600000000000000          3.1521400509378745     
  0.12630000000000002          3.3826777230794223     
  0.12659999999999999          3.5250853931161252     
  0.12690000000000001          3.5808302887213359     
  0.12719999999999998          3.5540871190416716     
  0.12750000000000000          3.4503221068089487     
  0.12780000000000002          3.2746281113659279     
  0.12809999999999999          3.0315636961177774     
  0.12840000000000001          2.7247037093977240     
  0.12869999999999998          2.3569492288343099     
  0.12900000000000000          1.9308962754735626     
  0.12930000000000003          1.4497332214262602     
  0.12959999999999999         0.91905336729710452     
  0.12990000000000002         0.34653936522601592     
  0.13019999999999998        -0.25648318613373217     
  0.13050000000000000        -0.87428628848894074     
  0.13080000000000003         -1.4895111013119759     
  0.13109999999999999         -2.0796626809393817     
  0.13140000000000002         -2.6236404456719509     
  0.13169999999999998         -3.0984684723318487     
  0.13200000000000001         -3.4848348553870481     
  0.13229999999999997         -3.7653665088425550     
  0.13260000000000000         -3.9298150101840230     
  0.13290000000000002         -3.9724390014351529     
  0.13319999999999999         -3.8950631009580805     
  0.13350000000000001         -3.7054356748315822     
  0.13380000000000003         -3.4178582630320768     
  0.13410000000000000         -3.0506268702910662     
  0.13440000000000002         -2.6257246450139911     
  0.13469999999999999         -2.1654825878926394     
  0.13500000000000001         -1.6928009243379447     
  0.13529999999999998         -1.2269693871341050     
  0.13560000000000000        -0.78483403809753383     
  0.13590000000000002        -0.37743845569515777     
  0.13619999999999999         -1.1417879457175695E-002
  0.13650000000000001         0.31226838620769098     
  0.13680000000000003         0.59652681163636545     
  0.13710000000000000         0.84774465218121686     
  0.13740000000000002          1.0739831988333222     
  0.13769999999999999          1.2834078124626593     
  0.13800000000000001          1.4816775378415845     
  0.13829999999999998          1.6729831787463803     
  0.13860000000000000          1.8553663652847372     
  0.13890000000000002          2.0238125591494320     
  0.13919999999999999          2.1672497202308381     
  0.13950000000000001          2.2719429112392437     
  0.13979999999999998          2.3210364142380771     
  0.14010000000000000          2.2971764545805424     
  0.14040000000000002          2.1852499153571228     
  0.14069999999999999          1.9730932747723515     
  0.14100000000000001          1.6547315232426321     
  0.14130000000000004          1.2308217408092885     
  0.14160000000000000         0.71069634489527966     
  0.14189999999999997         0.11085584520915309     
  0.14219999999999999        -0.54483178611562266     
  0.14250000000000002         -1.2267451931550317     
  0.14279999999999998         -1.9018626043755567     
  0.14310000000000000         -2.5356097476907578     
  0.14339999999999997         -3.0950582734348191     
  0.14369999999999999         -3.5502394405108837     
  0.14400000000000002         -3.8766228356314270     
  0.14429999999999998         -4.0564443645657562     
  0.14460000000000001         -4.0794694307752044     
  0.14490000000000003         -3.9415123553258420     
  0.14520000000000000         -3.6481974313281182     
  0.14550000000000002         -3.2087285681493163     
  0.14579999999999999         -2.6403172031752207     
  0.14610000000000001         -1.9635202630579103     
  0.14640000000000003         -1.2041416728991765     
  0.14670000000000000        -0.38912288251446175     
  0.14699999999999996         0.44967086637750553     
  0.14729999999999999          1.2802132207636512     
  0.14760000000000001          2.0690467790379850     
  0.14789999999999998          2.7828253322565124     
  0.14820000000000000          3.3895184140582875     