  -1.4999999999999999E-002     0.0000000000000000     
  -1.4700000000000000E-002     0.0000000000000000     
  -1.4400000000000000E-002     0.0000000000000000     
  -1.4100000000000000E-002     0.0000000000000000     
  -1.3800000000000000E-002     0.0000000000000000     
  -1.3500000000000000E-002     0.0000000000000000     
  -1.3200000000000000E-002     0.0000000000000000     
  -1.2899999999999998E-002     0.0000000000000000     
  -1.2600000000000000E-002     0.0000000000000000     
  -1.2299999999999998E-002     0.0000000000000000     
  -1.2000000000000000E-002     0.0000000000000000     
  -1.1699999999999999E-002     0.0000000000000000     
  -1.1399999999999999E-002     0.0000000000000000     
  -1.1099999999999999E-002     0.0000000000000000     
  -1.0799999999999999E-002     0.0000000000000000     
  -1.0499999999999999E-002     0.0000000000000000     
  -1.0199999999999999E-002     0.0000000000000000     
  -9.8999999999999991E-003     0.0000000000000000     
  -9.5999999999999992E-003     0.0000000000000000     
  -9.2999999999999992E-003     0.0000000000000000     
  -8.9999999999999993E-003     0.0000000000000000     
  -8.6999999999999994E-003     0.0000000000000000     
  -8.3999999999999995E-003     0.0000000000000000     
  -8.0999999999999996E-003     0.0000000000000000     
  -7.7999999999999988E-003     0.0000000000000000     
  -7.4999999999999997E-003     0.0000000000000000     
  -7.1999999999999998E-003     0.0000000000000000     
  -6.8999999999999981E-003     0.0000000000000000     
  -6.5999999999999982E-003     0.0000000000000000     
  -6.3000000000000000E-003     0.0000000000000000     
  -6.0000000000000001E-003     0.0000000000000000     
  -5.6999999999999985E-003     0.0000000000000000     
  -5.3999999999999986E-003     0.0000000000000000     
  -5.1000000000000004E-003     0.0000000000000000     
  -4.7999999999999987E-003     0.0000000000000000     
  -4.5000000000000005E-003     0.0000000000000000     
  -4.1999999999999989E-003     0.0000000000000000     
  -3.8999999999999990E-003     0.0000000000000000     
  -3.5999999999999990E-003     0.0000000000000000     
  -3.2999999999999991E-003     0.0000000000000000     
  -2.9999999999999992E-003     0.0000000000000000     
  -2.6999999999999993E-003     0.0000000000000000     
  -2.3999999999999994E-003     0.0000000000000000     
  -2.0999999999999977E-003     0.0000000000000000     
  -1.7999999999999995E-003     0.0000000000000000     
  -1.4999999999999979E-003     0.0000000000000000     
  -1.1999999999999997E-003     0.0000000000000000     
  -8.9999999999999976E-004     0.0000000000000000     
  -5.9999999999999810E-004     0.0000000000000000     
  -2.9999999999999992E-004     0.0000000000000000     
   0.0000000000000000          0.0000000000000000     
   3.0000000000000165E-004     0.0000000000000000     
   5.9999999999999984E-004     0.0000000000000000     
   9.0000000000000149E-004     0.0000000000000000     
   1.2000000000000031E-003     0.0000000000000000     
   1.5000000000000013E-003     0.0000000000000000     
   1.8000000000000030E-003     0.0000000000000000     
   2.1000000000000012E-003     0.0000000000000000     
   2.3999999999999994E-003     0.0000000000000000     
   2.7000000000000010E-003     0.0000000000000000     
   2.9999999999999992E-003     0.0000000000000000     
   3.3000000000000008E-003     0.0000000000000000     
   3.6000000000000025E-003     0.0000000000000000     
   3.9000000000000007E-003     0.0000000000000000     
   4.2000000000000023E-003     0.0000000000000000     
   4.5000000000000005E-003     0.0000000000000000     
   4.7999999999999987E-003     0.0000000000000000     
   5.1000000000000004E-003     0.0000000000000000     
   5.4000000000000020E-003     0.0000000000000000     
   5.7000000000000037E-003     0.0000000000000000     
   5.9999999999999984E-003     0.0000000000000000     
   6.3000000000000000E-003     0.0000000000000000     
   6.6000000000000017E-003     0.0000000000000000     
   6.9000000000000034E-003     0.0000000000000000     
   7.2000000000000015E-003     0.0000000000000000     
   7.5000000000000032E-003     0.0000000000000000     
   7.8000000000000014E-003     0.0000000000000000     
   8.0999999999999996E-003     0.0000000000000000     
   8.4000000000000012E-003     0.0000000000000000     
   8.7000000000000029E-003     0.0000000000000000     
   9.0000000000000011E-003     0.0000000000000000     
   9.2999999999999992E-003     0.0000000000000000     
   9.6000000000000009E-003     0.0000000000000000     
   9.8999999999999991E-003     0.0000000000000000     
   1.0200000000000001E-002     0.0000000000000000     
   1.0500000000000002E-002     0.0000000000000000     
   1.0800000000000004E-002     0.0000000000000000     
   1.1099999999999999E-002     0.0000000000000000     
   1.1400000000000000E-002     0.0000000000000000     
   1.1700000000000002E-002     0.0000000000000000     
   1.2000000000000004E-002     0.0000000000000000     
   1.2300000000000002E-002     0.0000000000000000     
   1.2600000000000000E-002     0.0000000000000000     
   1.2900000000000002E-002     0.0000000000000000     
   1.3200000000000000E-002     0.0000000000000000     
   1.3500000000000002E-002     0.0000000000000000     
   1.3800000000000003E-002     0.0000000000000000     
   1.4100000000000001E-002     0.0000000000000000     
   1.4400000000000000E-002     0.0000000000000000     
   1.4700000000000001E-002     0.0000000000000000     
   1.4999999999999999E-002     0.0000000000000000     
   1.5300000000000001E-002     0.0000000000000000     
   1.5600000000000003E-002     0.0000000000000000     
   1.5899999999999997E-002     0.0000000000000000     
   1.6199999999999999E-002     0.0000000000000000     
   1.6500000000000001E-002     0.0000000000000000     
   1.6800000000000002E-002     0.0000000000000000     
   1.7100000000000004E-002     0.0000000000000000     
   1.7400000000000006E-002     0.0000000000000000     
   1.7700000000000000E-002     0.0000000000000000     
   1.8000000000000002E-002     0.0000000000000000     
   1.8300000000000004E-002     0.0000000000000000     
   1.8600000000000005E-002     0.0000000000000000     
   1.8900000000000000E-002     0.0000000000000000     
   1.9200000000000002E-002     0.0000000000000000     
   1.9500000000000003E-002     0.0000000000000000     
   1.9799999999999998E-002     0.0000000000000000     
   2.0100000000000000E-002     0.0000000000000000     
   2.0400000000000001E-002     0.0000000000000000     
   2.0700000000000003E-002     0.0000000000000000     
   2.0999999999999998E-002     0.0000000000000000     
   2.1299999999999999E-002     0.0000000000000000     
   2.1600000000000001E-002     0.0000000000000000     
   2.1900000000000003E-002     0.0000000000000000     
   2.2200000000000004E-002     0.0000000000000000     
   2.2500000000000006E-002     0.0000000000000000     
   2.2800000000000001E-002     0.0000000000000000     
   2.3100000000000002E-002     0.0000000000000000     
   2.3400000000000004E-002     0.0000000000000000     
   2.3699999999999999E-002     1.1842953227841471E-037
   2.4000000000000000E-002     8.0001832531033094E-038
   2.4300000000000002E-002    -1.0216119728524573E-036
   2.4599999999999997E-002     3.0053826365645382E-036
   2.4900000000000005E-002    -5.9433762333402966E-036
   2.5200000000000000E-002     5.7153290186298870E-036
   2.5499999999999995E-002    -2.6548041260875881E-035
   2.5800000000000003E-002    -3.6189122364386157E-035
   2.6099999999999998E-002     1.9874206991473890E-034
   2.6400000000000007E-002    -4.7943855675661065E-034
   2.6700000000000002E-002     1.7023528239344517E-033
   2.6999999999999996E-002    -8.7535613059274740E-034
   2.7300000000000005E-002    -1.9914313064710646E-033
   2.7600000000000000E-002     1.4798006047893997E-033
   2.7900000000000008E-002     4.5160183096104437E-033
   2.8200000000000003E-002    -1.8300317910892589E-032
   2.8499999999999998E-002     4.6045170432696578E-032
   2.8800000000000006E-002    -8.1056619522006926E-032
   2.9100000000000001E-002     1.0274008151049343E-031
   2.9400000000000003E-002    -1.9848095692994483E-031
   2.9700000000000004E-002     1.1721342176578586E-030
   3.0000000000000006E-002    -6.8167745814681077E-030
   3.0300000000000001E-002     3.0787061817017567E-029
   3.0600000000000002E-002    -1.1429268847650423E-028
   3.0900000000000004E-002     3.6791703744028898E-028
   3.1199999999999999E-002    -1.0666841921200847E-027
   3.1500000000000007E-002     2.8442373728366376E-027
   3.1800000000000002E-002    -6.9525297850470933E-027
   3.2099999999999997E-002     1.4988191789927617E-026
   3.2400000000000005E-002    -2.5456065956322851E-026
   3.2700000000000000E-002     1.9505970479000506E-026
   3.3000000000000002E-002     8.0326906780806467E-026
   3.3300000000000003E-002    -4.9995022994445730E-025
   3.3599999999999998E-002     1.7461673740823703E-024
   3.3900000000000000E-002    -4.6264934353360739E-024
   3.4200000000000001E-002     9.5535670470668017E-024
   3.4500000000000003E-002    -1.3764610455362212E-023
   3.4799999999999998E-002     5.4071817727676618E-024
   3.5099999999999999E-002     4.0149208577958958E-023
   3.5400000000000001E-002    -1.3995650274187700E-022
   3.5699999999999996E-002     2.3952280381375958E-022
   3.6000000000000004E-002    -2.1519218722558295E-022
   3.6299999999999999E-002     3.6948655809743695E-022
   3.6600000000000008E-002    -2.6912988510635189E-021
   3.6900000000000002E-002     1.0466448011588031E-020
   3.7199999999999997E-002    -1.8078641310754214E-020
   3.7500000000000006E-002    -1.4092434812839512E-020
   3.7800000000000000E-002     1.6305624774965002E-019
   3.8100000000000009E-002    -4.1049571386587274E-019
   3.8400000000000004E-002     3.1030335903821693E-019
   3.8699999999999998E-002     1.1140849145833161E-018
   3.9000000000000007E-002    -4.0697302012547865E-018
   3.9300000000000002E-002     4.9176414881134867E-018
   3.9600000000000003E-002     4.4245667190979710E-018
   3.9900000000000005E-002    -2.5738867380633642E-017
   4.0200000000000000E-002     3.5018372940514890E-017
   4.0500000000000001E-002     6.3393345787444722E-018
   4.0800000000000003E-002    -6.2653673244989660E-017
   4.1100000000000005E-002    -3.9615668455252606E-017
   4.1399999999999999E-002     2.8123490263552151E-016
   4.1700000000000008E-002     3.7929054159672921E-016
   4.2000000000000003E-002    -3.8546891354235864E-015
   4.2299999999999997E-002     9.0191364973851343E-015
   4.2600000000000006E-002    -4.9809089842353422E-015
   4.2900000000000001E-002    -3.0761606346166795E-014
   4.3200000000000002E-002     1.2542072740234131E-013
   4.3500000000000004E-002    -2.7725281735013208E-013
   4.3799999999999999E-002     2.4542722256948053E-013
   4.4100000000000000E-002     9.9550619435483512E-013
   4.4400000000000002E-002    -5.0058180647723046E-012
   4.4700000000000004E-002     9.0574018792946741E-012
   4.4999999999999998E-002     3.8412479237931617E-012
   4.5300000000000000E-002    -5.9824926615774503E-011
   4.5600000000000002E-002     1.3072298841158277E-010
   4.5899999999999996E-002    -2.0554185510655016E-011
   4.6200000000000005E-002    -5.8261528772185930E-010
   4.6500000000000000E-002     1.4372191567339337E-009
   4.6799999999999994E-002    -4.4046956665585827E-010
   4.7100000000000003E-002    -5.8808798622458147E-009
   4.7399999999999998E-002     1.3994171647338567E-008
   4.7700000000000006E-002     1.7460924707159361E-009
   4.8000000000000001E-002    -7.0414312168552361E-008
   4.8300000000000010E-002     9.4223192513989391E-008
   4.8600000000000004E-002     2.1114480094055025E-007
   4.8899999999999999E-002    -6.7497284025898926E-007
   4.9200000000000008E-002    -3.3383508971896347E-007
   4.9500000000000002E-002     6.5501561418315623E-006
   4.9800000000000011E-002     1.9164623851597173E-005
   5.0100000000000006E-002     2.9496364681635506E-005
   5.0400000000000000E-002     3.6166995347126225E-005
   5.0700000000000009E-002     4.8088731031689912E-005
   5.1000000000000004E-002     7.2045871584505949E-005
   5.1299999999999998E-002     1.1019142135295919E-004
   5.1600000000000007E-002     1.6597543635701824E-004
   5.1900000000000002E-002     2.4340205457395883E-004
   5.2200000000000010E-002     3.5302225825033944E-004
   5.2500000000000005E-002     5.1427745630073173E-004
   5.2800000000000000E-002     7.3887272288251991E-004
   5.3099999999999994E-002     1.0320574738250897E-003
   5.3400000000000003E-002     1.4116771295795000E-003
   5.3699999999999998E-002     1.9010178306872981E-003
   5.4000000000000006E-002     2.5116065485204240E-003
   5.4300000000000001E-002     3.2456878371483443E-003
   5.4599999999999996E-002     4.0936733393371512E-003
   5.4900000000000004E-002     5.0241539928629194E-003
   5.5199999999999999E-002     5.9866055603657459E-003
   5.5499999999999994E-002     6.8964145832402530E-003
   5.5800000000000002E-002     7.6094129701481852E-003
   5.6099999999999997E-002     7.9289371950276924E-003
   5.6400000000000006E-002     7.6153276388107264E-003
   5.6700000000000000E-002     6.3724434226189097E-003
   5.6999999999999995E-002     3.8433745584512896E-003
   5.7300000000000004E-002    -3.5837363698363017E-004
   5.7599999999999998E-002    -6.5985468918999465E-003
   5.7900000000000007E-002    -1.5191986561145905E-002
   5.8200000000000002E-002    -2.6362247849728172E-002
   5.8499999999999996E-002    -4.0144626604316593E-002
   5.8800000000000005E-002    -5.6290307750206589E-002
   5.9100000000000000E-002    -7.4230540439583992E-002
   5.9400000000000008E-002    -9.3019025184854581E-002
   5.9700000000000003E-002   -0.11126156089564071     
   6.0000000000000012E-002   -0.12712602933060307     
   6.0300000000000006E-002   -0.13839101058405473     
   6.0600000000000001E-002   -0.14254475667489297     
   6.0900000000000010E-002   -0.13698837489924504     
   6.1200000000000004E-002   -0.11926729353929560     
   6.1500000000000013E-002    -8.7320417603773723E-002
   6.1800000000000008E-002    -3.9835276520165136E-002
   6.2100000000000002E-002     2.3468714168526021E-002
   6.2399999999999997E-002    0.10159567936239217     
   6.2700000000000006E-002    0.19201104605204106     
   6.3000000000000000E-002    0.29058721312173730     
   6.3300000000000009E-002    0.39175680349238490     
   6.3600000000000004E-002    0.48869649217334210     
   6.3899999999999998E-002    0.57370811833699953     
   6.4199999999999993E-002    0.63886081586896015     
   6.4500000000000002E-002    0.67664309505402920     
   6.4800000000000010E-002    0.68069761325196909     
   6.5100000000000005E-002    0.64654883333153146     
   6.5400000000000000E-002    0.57220587277217860     
   6.5700000000000008E-002    0.45861842274565989     
   6.5999999999999989E-002    0.30990619550734055     
   6.6299999999999998E-002    0.13326492918913346     
   6.6600000000000006E-002    -6.1385158288881934E-002
   6.6900000000000001E-002   -0.26210470708649358     
   6.7199999999999996E-002   -0.45574951384303075     
   6.7500000000000004E-002   -0.62901290806057186     
   6.7800000000000013E-002   -0.76956132568333457     
   6.8099999999999994E-002   -0.86715900996570017     
   6.8400000000000002E-002   -0.91450051771211105     
   6.8700000000000011E-002   -0.90786857681261868     
   6.8999999999999992E-002   -0.84760642419031107     
   6.9300000000000000E-002   -0.73813242699722992     
   6.9600000000000009E-002   -0.58760427646937219     
   6.9900000000000004E-002   -0.40725259960551247     
   7.0199999999999999E-002   -0.21053155327236128     
   7.0500000000000007E-002    -1.2086731886930078E-002
   7.0800000000000016E-002    0.17349175857746091     
   7.1099999999999997E-002    0.33284221690120092     
   7.1400000000000005E-002    0.45469281133177558     
   7.1700000000000000E-002    0.53075182647412766     
   7.1999999999999995E-002    0.55637442125881809     
   7.2300000000000003E-002    0.53072243293276167     
   7.2600000000000012E-002    0.45669253114511832     
   7.2900000000000006E-002    0.34062551250555767     
   7.3200000000000001E-002    0.19174769105670048     
   7.3499999999999996E-002     2.1363629456601349E-002
   7.3800000000000004E-002   -0.15811510774771143     
   7.4099999999999999E-002   -0.33406614182153976     
   7.4400000000000008E-002   -0.49452201001574236     
   7.4700000000000003E-002   -0.62911479434338968     
   7.5000000000000011E-002   -0.72974662560934511     
   7.5299999999999992E-002   -0.79091945709975409     
   7.5600000000000001E-002   -0.81009401151839877     
   7.5900000000000009E-002   -0.78770839619504496     
   7.6200000000000004E-002   -0.72688399910591606     
   7.6499999999999999E-002   -0.63313143264947658     
   7.6800000000000007E-002   -0.51370225693361471     
   7.7099999999999988E-002   -0.37691424916260230     
   7.7399999999999997E-002   -0.23153411782609234     
   7.7700000000000005E-002    -8.6042601416610881E-002
   7.8000000000000014E-002     5.2193179201540693E-002
   7.8299999999999995E-002    0.17720723538876926     
   7.8600000000000003E-002    0.28480622247028842     
   7.8900000000000012E-002    0.37298474161177980     
   7.9199999999999993E-002    0.44173044860447003     
   7.9500000000000001E-002    0.49284196352290344     
   7.9800000000000010E-002    0.52955249857144937     
   8.0100000000000018E-002    0.55602926801932606     
   8.0399999999999999E-002    0.57687014742289411     
   8.0700000000000008E-002    0.59632723998541926     
   8.1000000000000003E-002    0.61769235945919687     
   8.1299999999999997E-002    0.64310472521278172     
   8.1600000000000006E-002    0.67292891306833891     
   8.1900000000000014E-002    0.70569285565457540     
   8.2199999999999995E-002    0.73830390500751075     
   8.2500000000000004E-002    0.76610668764743128     
   8.2799999999999999E-002    0.78354016296702444     
   8.3100000000000007E-002    0.78469958407391505     
   8.3400000000000002E-002    0.76382876823637780     
   8.3700000000000011E-002    0.71619518255916170     
   8.4000000000000005E-002    0.63874647863460943     
   8.4300000000000000E-002    0.53031170838234143     
   8.4599999999999995E-002    0.39202166658759829     
   8.4900000000000003E-002    0.22757641940876033     
   8.5199999999999998E-002     4.2765309923642372E-002
   8.5500000000000007E-002   -0.15469772793443654     
   8.5800000000000001E-002   -0.35580443606546786     
   8.6100000000000010E-002   -0.55080891824495182     
   8.6399999999999991E-002   -0.73003562190795335     
   8.6699999999999999E-002   -0.88457001937706359     
   8.7000000000000008E-002    -1.0068612011197005     
   8.7300000000000003E-002    -1.0912754770970372     
   8.7599999999999997E-002    -1.1342628875816052     
   8.7900000000000006E-002    -1.1346928071808633     
   8.8200000000000014E-002    -1.0935621274017076     
   8.8499999999999995E-002    -1.0139510767249316     
   8.8800000000000004E-002   -0.90063307737299403     
   8.9100000000000013E-002   -0.75912214681604551     
   8.9399999999999993E-002   -0.59572347661747627     
   8.9700000000000002E-002   -0.41693675539708408     
   9.0000000000000011E-002   -0.22877483411401200     
   9.0299999999999991E-002    -3.6626460587827078E-002
   9.0600000000000000E-002    0.15484311832866104     
   9.0900000000000009E-002    0.34181668038969137     
   9.1200000000000017E-002    0.52094648566223012     
   9.1499999999999998E-002    0.68924155374585716     
   9.1800000000000007E-002    0.84395274499426765     
   9.2100000000000001E-002    0.98190850149130871     
   9.2399999999999996E-002     1.0994290221425040     
   9.2700000000000005E-002     1.1921633867770756     
   9.3000000000000013E-002     1.2550157380347948     
   9.3300000000000008E-002     1.2825785289096330     
   9.3600000000000003E-002     1.2692329253472825     
   9.3899999999999997E-002     1.2095905000555769     
   9.4200000000000006E-002     1.0994844164734152     
   9.4500000000000001E-002    0.93639141440328433     
   9.4800000000000009E-002    0.71991538469756589     
   9.5100000000000004E-002    0.45247023570209965     
   9.5399999999999999E-002    0.13998519707169660     
   9.5699999999999993E-002   -0.20860901767670170     
   9.6000000000000002E-002   -0.58138353191287739     
   9.6300000000000011E-002   -0.96340283576466623     
   9.6600000000000005E-002    -1.3381224372675513     
   9.6900000000000000E-002    -1.6877858991188148     
   9.7200000000000009E-002    -1.9946152506129273     
   9.7499999999999989E-002    -2.2421837613953182     
   9.7799999999999998E-002    -2.4162819072609167     
   9.8100000000000007E-002    -2.5057455584423147     
   9.8400000000000015E-002    -2.5033554045869000     
   9.8699999999999996E-002    -2.4061973343175134     
   9.9000000000000005E-002    -2.2159108182208391     
   9.9300000000000013E-002    -1.9383898805305635     
   9.9599999999999994E-002    -1.5834853865193641     
   9.9900000000000003E-002    -1.1641803905182089     
  0.10020000000000001        -0.69636356509396680     
  0.10049999999999999        -0.19752052938909426     
  0.10080000000000000         0.31397199049736235     
  0.10110000000000001         0.81935506642909017     
  0.10140000000000000          1.3003213913256526     
  0.10170000000000000          1.7397825212905798     
  0.10200000000000001          2.1219758981798931     
  0.10230000000000002          2.4335254106382642     
  0.10260000000000000          2.6634731813639760     
  0.10290000000000001          2.8036235268388148     
  0.10320000000000000          2.8496505698363412     
  0.10350000000000001          2.8009293455157507     
  0.10380000000000000          2.6605972045579676     
  0.10410000000000001          2.4361962522456975     
  0.10440000000000001          2.1395421555084901     
  0.10470000000000000          1.7860402348075604     
  0.10500000000000000          1.3938457435516971     
  0.10530000000000000         0.98354100195606331     
  0.10560000000000000         0.57614769692309398     
  0.10590000000000001         0.19222263220392277     
  0.10620000000000000        -0.14976377627973658     
  0.10650000000000001        -0.43485218028089945     
  0.10679999999999999        -0.65262311694413810     
  0.10710000000000000        -0.79784353128286356     
  0.10740000000000001        -0.87075535327816511     
  0.10770000000000000        -0.87685156206888282     
  0.10800000000000000        -0.82621032399457972     
  0.10830000000000001        -0.73224832677523810     
  0.10859999999999999        -0.61056479703728361     
  0.10890000000000000        -0.47702091677495717     
  0.10920000000000001        -0.34674153327448654     
  0.10950000000000001        -0.23293813036923827     
  0.10979999999999999        -0.14567719851942185     
  0.11009999999999999         -9.1310567927000888E-002
  0.11040000000000001         -7.3284126593421192E-002
  0.11070000000000001         -9.1689305952971811E-002
  0.11100000000000000        -0.14387443102654915     
  0.11130000000000000        -0.22552878426162654     
  0.11160000000000002        -0.33110393376064856     
  0.11190000000000001        -0.45486507003441479     
  0.11220000000000001        -0.59097479047704360     
  0.11250000000000000        -0.73369457073628519     
  0.11280000000000000        -0.87747521017128327     
  0.11309999999999999         -1.0169736480434373     
  0.11340000000000001         -1.1466316023488479     
  0.11369999999999998         -1.2601492517387161     
  0.11400000000000000         -1.3509248014117925     
  0.11430000000000000         -1.4118879353229445     
  0.11460000000000002         -1.4358514072351534     
  0.11489999999999999         -1.4158635375185524     
  0.11520000000000001         -1.3465788956953872     
  0.11550000000000001         -1.2243268309447946     
  0.11580000000000000         -1.0480795483100571     
  0.11609999999999999        -0.82063298177100508     
  0.11640000000000002        -0.54790203187523545     
  0.11670000000000001        -0.23982193592633350     
  0.11700000000000001          9.0420518954870938E-002
  0.11730000000000000         0.42674694503524963     
  0.11760000000000000         0.75173761000859551     
  0.11789999999999999          1.0477448785511250     
  0.11820000000000001          1.2975687132545863     
  0.11850000000000001          1.4861922143032276     
  0.11880000000000000          1.6021093047339414     
  0.11910000000000000          1.6385533135907244     
  0.11940000000000002          1.5930711162824651     
  0.11970000000000001          1.4685152616198325     
  0.12000000000000001          1.2730218671550226     
  0.12030000000000000          1.0196632884778545     
  0.12060000000000000         0.72520203559067586     
  0.12089999999999999         0.40890936819778306     
  0.12119999999999999          9.1815561525836586E-002
  0.12150000000000001        -0.20452195252967692     
  0.12180000000000001        -0.46027843588763240     
  0.12210000000000000        -0.65864956707532452     
  0.12239999999999999        -0.78622310460099620     
  0.12270000000000002        -0.83461259312749925     
  0.12300000000000001        -0.80126380355306248     
  0.12330000000000001        -0.68945457352162509     
  0.12360000000000000        -0.50804783775093609     
  0.12390000000000000        -0.27108163699796717     
  0.12419999999999999          3.2360784376952376E-003
  0.12450000000000001         0.29363045653789349     
  0.12480000000000001         0.57716256244352426     
  0.12509999999999999         0.83150884846727535     
  0.12540000000000001          1.0356234124875461     
  0.12570000000000003          1.1716031398116269     
  0.12600000000000000          1.2263317013959338     
  0.12630000000000002          1.1917927058855897     
  0.12659999999999999          1.0660001878710941     
  0.12690000000000001         0.85297897579708815     
  0.12719999999999998         0.56265803152535854     
  0.12750000000000000         0.21042710609114429     
  0.12780000000000002        -0.18420113854607423     
  0.12809999999999999        -0.59874718446986341     
  0.12840000000000001         -1.0089443319274947     
  0.12869999999999998         -1.3905521382102100     
  0.12900000000000000         -1.7208775398354264     
  0.12930000000000003         -1.9801695606703800     
  0.12959999999999999         -2.1528869953897587     
  0.12990000000000002         -2.2287814358293621     
  0.13019999999999998         -2.2036269725827178     
  0.13050000000000000         -2.0789222825808116     
  0.13080000000000003         -1.8623323874688027     
  0.13109999999999999         -1.5666610159210861     
  0.13140000000000002         -1.2088930227847163     
  0.13169999999999998        -0.80891443289759746     
  0.13200000000000001        -0.38754124527094136     
  0.13229999999999997          3.3700121233861902E-002
  0.13260000000000000         0.43530924088163597     
  0.13290000000000002         0.80039166925218552     
  0.13319999999999999          1.1155343469086580     
  0.13350000000000001          1.3710867732246972     
  0.13380000000000003          1.5613175158222994     
  0.13410000000000000          1.6844861622901734     
  0.13440000000000002          1.7417866418765744     
  0.13469999999999999          1.7368471412152280     
  0.13500000000000001          1.6747900671294325     
  0.13529999999999998          1.5618843201573982     
  0.13560000000000000          1.4047342598458008     
  0.13590000000000002          1.2094604419269239     
  0.13619999999999999         0.98235492278939951     
  0.13650000000000001         0.72947390016712621     
  0.13680000000000003         0.45653063641520053     
  0.13710000000000000         0.16975019605615485     
  0.13740000000000002        -0.12457661005517520     
  0.13769999999999999        -0.41915508021763387     
  0.13800000000000001        -0.70588785385870889     
  0.13829999999999998        -0.97630962199646243     
  0.13860000000000000         -1.2210089942430442     
  0.13890000000000002         -1.4303343931392409     
  0.13919999999999999         -1.5948302339487364     
  0.13950000000000001         -1.7057088664804250     
  0.13979999999999998         -1.7549932410060491     
  0.14010000000000000         -1.7369100137864915     
  0.14040000000000002         -1.6474463789684268     
  0.14069999999999999         -1.4853869368988477     
  0.14100000000000001         -1.2525255414706584     
  0.14130000000000004        -0.95354328857097714     
  0.14160000000000000        -0.59643566162701167     
  0.14189999999999997        -0.19223472002292069     
  0.14219999999999999         0.24531833178661094     
  0.14250000000000002         0.70041069846470760     
  0.14279999999999998          1.1557319711846987     
  0.14310000000000000          1.5929661322838669     
  0.14339999999999997          1.9938543852265749     
  0.14369999999999999          2.3410044070140246     
  0.14400000000000002          2.6189042698637746     
  0.14429999999999998          2.8140124106668760     
  0.14460000000000001          2.9161012101212798     
  0.14490000000000003          2.9184178877956914     
  0.14520000000000000          2.8178881290494231     
  0.14550000000000002          2.6153888860162828     
  0.14579999999999999          2.3156780033331681     
  0.14610000000000001          1.9275640594572234     
  0.14640000000000003          1.4633808047530357     
  0.14670000000000000         0.93863257786668752     
  0.14699999999999996         0.37197811492101707     
  0.14729999999999999        -0.21557920918289736     
  0.14760000000000001        -0.80124465262058098     
  0.14789999999999998         -1.3614280535871264     
  0.14820000000000000         -1.8722881526083648     