  -1.4999999999999999E-002     0.0000000000000000     
  -1.4700000000000000E-002     0.0000000000000000     
  -1.4400000000000000E-002     0.0000000000000000     
  -1.4100000000000000E-002     0.0000000000000000     
  -1.3800000000000000E-002     0.0000000000000000     
  -1.3500000000000000E-002     0.0000000000000000     
  -1.3200000000000000E-002     0.0000000000000000     
  -1.2899999999999998E-002     0.0000000000000000     
  -1.2600000000000000E-002     0.0000000000000000     
  -1.2299999999999998E-002     0.0000000000000000     
  -1.2000000000000000E-002     0.0000000000000000     
  -1.1699999999999999E-002     0.0000000000000000     
  -1.1399999999999999E-002     0.0000000000000000     
  -1.1099999999999999E-002     0.0000000000000000     
  -1.0799999999999999E-002     0.0000000000000000     
  -1.0499999999999999E-002     0.0000000000000000     
  -1.0199999999999999E-002     0.0000000000000000     
  -9.8999999999999991E-003     0.0000000000000000     
  -9.5999999999999992E-003     0.0000000000000000     
  -9.2999999999999992E-003     0.0000000000000000     
  -8.9999999999999993E-003     0.0000000000000000     
  -8.6999999999999994E-003     0.0000000000000000     
  -8.3999999999999995E-003     0.0000000000000000     
  -8.0999999999999996E-003     0.0000000000000000     
  -7.7999999999999988E-003     0.0000000000000000     
  -7.4999999999999997E-003     0.0000000000000000     
  -7.1999999999999998E-003     0.0000000000000000     
  -6.8999999999999981E-003     0.0000000000000000     
  -6.5999999999999982E-003     0.0000000000000000     
  -6.3000000000000000E-003     0.0000000000000000     
  -6.0000000000000001E-003     0.0000000000000000     
  -5.6999999999999985E-003     0.0000000000000000     
  -5.3999999999999986E-003     0.0000000000000000     
  -5.1000000000000004E-003     0.0000000000000000     
  -4.7999999999999987E-003     0.0000000000000000     
  -4.5000000000000005E-003     0.0000000000000000     
  -4.1999999999999989E-003     0.0000000000000000     
  -3.8999999999999990E-003     0.0000000000000000     
  -3.5999999999999990E-003     0.0000000000000000     
  -3.2999999999999991E-003     0.0000000000000000     
  -2.9999999999999992E-003     0.0000000000000000     
  -2.6999999999999993E-003     0.0000000000000000     
  -2.3999999999999994E-003     0.0000000000000000     
  -2.0999999999999977E-003     0.0000000000000000     
  -1.7999999999999995E-003     0.0000000000000000     
  -1.4999999999999979E-003     0.0000000000000000     
  -1.1999999999999997E-003     0.0000000000000000     
  -8.9999999999999976E-004     0.0000000000000000     
  -5.9999999999999810E-004     0.0000000000000000     
  -2.9999999999999992E-004     0.0000000000000000     
   0.0000000000000000          0.0000000000000000     
   3.0000000000000165E-004     0.0000000000000000     
   5.9999999999999984E-004     0.0000000000000000     
   9.0000000000000149E-004     0.0000000000000000     
   1.2000000000000031E-003     0.0000000000000000     
   1.5000000000000013E-003     0.0000000000000000     
   1.8000000000000030E-003     0.0000000000000000     
   2.1000000000000012E-003    -4.8926414292695192E-037
   2.3999999999999994E-003    -9.8296993878206985E-037
   2.7000000000000010E-003     1.2086243173609897E-035
   2.9999999999999992E-003    -7.5221950234451649E-035
   3.3000000000000008E-003     1.5899415181291957E-034
   3.6000000000000025E-003    -1.2535148905878624E-033
   3.9000000000000007E-003     3.3684109242177051E-033
   4.2000000000000023E-003    -2.3853002845886321E-033
   4.5000000000000005E-003    -4.4663242576837540E-033
   4.7999999999999987E-003     3.1167224275961502E-032
   5.1000000000000004E-003    -6.8310287156658498E-032
   5.4000000000000020E-003     3.9892248776110793E-032
   5.7000000000000037E-003     1.7529664373249141E-031
   5.9999999999999984E-003    -5.7727378805351581E-031
   6.3000000000000000E-003     6.8790660822358587E-031
   6.6000000000000017E-003     5.7250829948951862E-031
   6.9000000000000034E-003    -3.7251766422920590E-030
   7.2000000000000015E-003     6.0204354527060241E-030
   7.5000000000000032E-003    -2.2131716240105608E-031
   7.8000000000000014E-003    -1.8724048280274632E-029
   8.0999999999999996E-003     3.7861906833309270E-029
   8.4000000000000012E-003    -1.9275372578139504E-029
   8.7000000000000029E-003    -6.6118783446127920E-029
   9.0000000000000011E-003     1.6864185473451035E-028
   9.2999999999999992E-003    -1.4788828335791795E-028
   9.6000000000000009E-003    -7.4169169903546047E-029
   9.8999999999999991E-003     3.1956981045369082E-028
   1.0200000000000001E-002    -3.4691240087346413E-028
   1.0500000000000002E-002     5.3802732331995555E-028
   1.0800000000000004E-002    -1.9438101423314007E-027
   1.1099999999999999E-002     3.9979309265677505E-027
   1.1400000000000000E-002    -1.0874830460470578E-027
   1.1700000000000002E-002    -1.5559484747240365E-026
   1.2000000000000004E-002     4.4759481743024973E-026
   1.2300000000000002E-002    -5.8281779222738481E-026
   1.2600000000000000E-002     2.0199806509358879E-027
   1.2900000000000002E-002     1.6874007071001981E-025
   1.3200000000000000E-002    -4.2910450281779121E-025
   1.3500000000000002E-002     6.1161545607765270E-025
   1.3800000000000003E-002    -3.2117128645268675E-025
   1.4100000000000001E-002    -1.0564291896180663E-024
   1.4400000000000000E-002     3.8691985483791702E-024
   1.4700000000000001E-002    -6.8412029665415238E-024
   1.4999999999999999E-002     5.4919103595489827E-024
   1.5300000000000001E-002     7.0646707019565863E-024
   1.5600000000000003E-002    -3.3744557916076000E-023
   1.5899999999999997E-002     6.1926325705562905E-023
   1.6199999999999999E-002    -5.4374471438067566E-023
   1.6500000000000001E-002    -4.2896964116972361E-023
   1.6800000000000002E-002     2.5856476681208726E-022
   1.7100000000000004E-002    -5.0851266390875787E-022
   1.7400000000000006E-002     4.9112163620356065E-022
   1.7700000000000000E-002     2.9351011056401794E-022
   1.8000000000000002E-002    -2.1211966124909445E-021
   1.8300000000000004E-002     4.0737335616291243E-021
   1.8600000000000005E-002    -3.2048570526356382E-021
   1.8900000000000000E-002    -4.2102975504599146E-021
   1.9200000000000002E-002     1.7571306590313746E-020
   1.9500000000000003E-002    -2.5402624032990052E-020
   1.9799999999999998E-002     6.8385631111105595E-021
   2.0100000000000000E-002     4.8470776648250005E-020
   2.0400000000000001E-002    -1.0860776567203707E-019
   2.0700000000000003E-002     9.2334246905974736E-020
   2.0999999999999998E-002     6.9728502246288726E-020
   2.1299999999999999E-002    -3.1957001037157873E-019
   2.1600000000000001E-002     4.1626654932540177E-019
   2.1900000000000003E-002    -8.1829689693308815E-020
   2.2200000000000004E-002    -6.6658836254799053E-019
   2.2500000000000006E-002     1.2729536790889521E-018
   2.2800000000000001E-002    -8.4446223511323383E-019
   2.3100000000000002E-002    -1.1045172148540517E-018
   2.3400000000000004E-002     3.6442738926798822E-018
   2.3699999999999999E-002    -3.6906978981232395E-018
   2.4000000000000000E-002    -3.1866966168326754E-018
   2.4300000000000002E-002     1.7445440303276540E-017
   2.4599999999999997E-002    -2.4312280292401467E-017
   2.4900000000000005E-002    -1.1219100651857536E-017
   2.5200000000000000E-002     1.1242556586357769E-016
   2.5499999999999995E-002    -2.1229123495674083E-016
   2.5800000000000003E-002     9.5983627060879390E-017
   2.6099999999999998E-002     5.3897868006825045E-016
   2.6400000000000007E-002    -1.7754457149884342E-015
   2.6700000000000002E-002     2.3444150694863755E-015
   2.6999999999999996E-002     2.2748790114972483E-015
   2.7300000000000005E-002    -1.6007669352130515E-014
   2.7600000000000000E-002     2.2708879440398809E-014
   2.7900000000000008E-002     2.0440522838843703E-014
   2.8200000000000003E-002    -1.0041277805463061E-013
   2.8499999999999998E-002     7.4132974730292378E-014
   2.8800000000000006E-002     2.4908972188337828E-014
   2.9100000000000001E-002     1.9739504655554795E-013
   2.9400000000000003E-002     3.1622505002374148E-013
   2.9700000000000004E-002    -4.5356626054309124E-012
   3.0000000000000006E-002     4.6229220110344951E-012
   3.0300000000000001E-002     2.6684705733579908E-011
   3.0600000000000002E-002    -6.3855783557281817E-011
   3.0900000000000004E-002    -7.4709239778183603E-011
   3.1199999999999999E-002     4.4528433741694458E-010
   3.1500000000000007E-002    -2.5807795579338795E-010
   3.1800000000000002E-002    -1.5772358857186907E-009
   3.2099999999999997E-002     3.2519579881859072E-009
   3.2400000000000005E-002     8.4883041210748375E-010
   3.2700000000000000E-002    -1.1266716422352495E-008
   3.3000000000000002E-002     1.3769324735655289E-008
   3.3300000000000003E-002     8.3310754101678972E-009
   3.3599999999999998E-002    -4.6054067273049489E-008
   3.3900000000000000E-002     5.4089698666199784E-008
   3.4200000000000001E-002     2.0763411136653090E-008
   3.4500000000000003E-002    -1.6962336837409255E-007
   3.4799999999999998E-002     2.0990655054065156E-007
   3.5099999999999999E-002     4.4697113436425955E-007
   3.5400000000000001E-002     2.0714446663740652E-006
   3.5699999999999996E-002     1.0503086333676755E-005
   3.6000000000000004E-002     2.5860480458073493E-005
   3.6299999999999999E-002     4.6162692920077920E-005
   3.6600000000000008E-002     7.1799636427311372E-005
   3.6900000000000002E-002     9.8671284084603976E-005
   3.7199999999999997E-002     1.3446485682972430E-004
   3.7500000000000006E-002     2.0376050346305335E-004
   3.7800000000000000E-002     3.1796953860571496E-004
   3.8100000000000009E-002     4.7729907663340528E-004
   3.8400000000000004E-002     6.9583365570554973E-004
   3.8699999999999998E-002     1.0050282523307397E-003
   3.9000000000000007E-002     1.4459713289535121E-003
   3.9300000000000002E-002     2.0527841203869628E-003
   3.9600000000000003E-002     2.8530862046750138E-003
   3.9900000000000005E-002     3.8937572346072124E-003
   4.0200000000000000E-002     5.2311038163558752E-003
   4.0500000000000001E-002     6.8988473099604640E-003
   4.0800000000000003E-002     8.9098117213770277E-003
   4.1100000000000005E-002     1.1255723664148457E-002
   4.1399999999999999E-002     1.3893614720875889E-002
   4.1700000000000008E-002     1.6740684535380398E-002
   4.2000000000000003E-002     1.9640830964213523E-002
   4.2299999999999997E-002     2.2314742992411794E-002
   4.2600000000000006E-002     2.4357509920893881E-002
   4.2900000000000001E-002     2.5280993699174518E-002
   4.3200000000000002E-002     2.4517968253247899E-002
   4.3500000000000004E-002     2.1384272855482736E-002
   4.3799999999999999E-002     1.5087715403080057E-002
   4.4100000000000000E-002     4.8497903399263376E-003
   4.4400000000000002E-002    -9.9597051665990047E-003
   4.4700000000000004E-002    -2.9788119036854237E-002
   4.4999999999999998E-002    -5.4807675055642678E-002
   4.5300000000000000E-002    -8.4711932532235718E-002
   4.5600000000000002E-002   -0.11857645334955330     
   4.5899999999999996E-002   -0.15482859941484184     
   4.6200000000000005E-002   -0.19116628002765976     
   4.6500000000000000E-002   -0.22453874256978273     
   4.6799999999999994E-002   -0.25127743388866663     
   4.7100000000000003E-002   -0.26729178433760642     
   4.7399999999999998E-002   -0.26834168495365351     
   4.7700000000000006E-002   -0.25044562606474552     
   4.8000000000000001E-002   -0.21033338560571083     
   4.8300000000000010E-002   -0.14592513407690197     
   4.8600000000000004E-002    -5.6735268285150950E-002
   4.8899999999999999E-002     5.5721543536470755E-002
   4.9200000000000008E-002    0.18771243400804108     
   4.9500000000000002E-002    0.33329321441993520     
   4.9800000000000011E-002    0.48450643602747545     
   5.0100000000000006E-002    0.63173946907154144     
   5.0400000000000000E-002    0.76449872925048690     
   5.0700000000000009E-002    0.87221292900215786     
   5.1000000000000004E-002    0.94513350356933468     
   5.1299999999999998E-002    0.97532357381044310     
   5.1600000000000007E-002    0.95745326160688871     
   5.1900000000000002E-002    0.88948322838966598     
   5.2200000000000010E-002    0.77304029769328708     
   5.2500000000000005E-002    0.61331006745563688     
   5.2800000000000000E-002    0.41882928021998767     
   5.3099999999999994E-002    0.20073019505009371     
   5.3400000000000003E-002    -2.8194522913603082E-002
   5.3699999999999998E-002   -0.25453015800030343     
   5.4000000000000006E-002   -0.46560243190340245     
   5.4300000000000001E-002   -0.65035591179996899     
   5.4599999999999996E-002   -0.80041211247248811     
   5.4900000000000004E-002   -0.91056347128387027     
   5.5199999999999999E-002   -0.97917532622255599     
   5.5499999999999994E-002    -1.0080801977317673     
   5.5800000000000002E-002    -1.0020383485203135     
   5.6099999999999997E-002   -0.96826637876391630     
   5.6400000000000006E-002   -0.91551382389681812     
   5.6700000000000000E-002   -0.85298232703807786     
   5.6999999999999995E-002   -0.78958429079790526     
   5.7300000000000004E-002   -0.73276421006075654     
   5.7599999999999998E-002   -0.68802584563907965     
   5.7900000000000007E-002   -0.65832382924570521     
   5.8200000000000002E-002   -0.64384080695648704     
   5.8499999999999996E-002   -0.64187721807136555     
   5.8800000000000005E-002   -0.64712692033085650     
   5.9100000000000000E-002   -0.65217996165776837     
   5.9400000000000008E-002   -0.64793882702188288     
   5.9700000000000003E-002   -0.62467015454856334     
   6.0000000000000012E-002   -0.57271849997802948     
   6.0300000000000006E-002   -0.48352056923074693     
   6.0600000000000001E-002   -0.35052199560339198     
   6.0900000000000010E-002   -0.16983991824736205     
   6.1200000000000004E-002     5.8757870022585201E-002
   6.1500000000000013E-002    0.33158810517072196     
   6.1800000000000008E-002    0.64077383191099724     
   6.2100000000000002E-002    0.97469967423485759     
   6.2399999999999997E-002     1.3181850881710608     
   6.2700000000000006E-002     1.6532977715125834     
   6.3000000000000000E-002     1.9607933974737186     
   6.3300000000000009E-002     2.2211351859530737     
   6.3600000000000004E-002     2.4159883162184905     
   6.3899999999999998E-002     2.5294239524939899     
   6.4199999999999993E-002     2.5493799708547717     
   6.4500000000000002E-002     2.4682928819740302     
   6.4800000000000010E-002     2.2840067393242744     
   6.5100000000000005E-002     1.9997947690659590     
   6.5400000000000000E-002     1.6243148490862671     
   6.5700000000000008E-002     1.1710830554085652     
   6.5999999999999989E-002    0.65747995405577409     
   6.6299999999999998E-002    0.10414794571852035     
   6.6600000000000006E-002   -0.46659571070578487     
   6.6900000000000001E-002    -1.0315723447175873     
   6.7199999999999996E-002    -1.5681306811778744     
   6.7500000000000004E-002    -2.0549265127842657     
   6.7800000000000013E-002    -2.4729177374379749     
   6.8099999999999994E-002    -2.8058018185564890     
   6.8400000000000002E-002    -3.0408177150868885     
   6.8700000000000011E-002    -3.1690704347620322     
   6.8999999999999992E-002    -3.1856607146694751     
   6.9300000000000000E-002    -3.0896934532793772     
   6.9600000000000009E-002    -2.8846358640842102     
   6.9900000000000004E-002    -2.5777512403819105     
   7.0199999999999999E-002    -2.1803034778925054     
   7.0500000000000007E-002    -1.7071364320809121     
   7.0800000000000016E-002    -1.1759693363853594     
   7.1099999999999997E-002   -0.60705978764062596     
   7.1400000000000005E-002    -2.2270261768870606E-002
   7.1700000000000000E-002    0.55539454265928001     
   7.1999999999999995E-002     1.1031485296175589     
   7.2300000000000003E-002     1.5988384976785508     
   7.2600000000000012E-002     2.0219855137784188     
   7.2900000000000006E-002     2.3552832177664063     
   7.3200000000000001E-002     2.5846772627531487     
   7.3499999999999996E-002     2.7003352004434564     
   7.3800000000000004E-002     2.6973082653179805     
   7.4099999999999999E-002     2.5755119298011855     
   7.4400000000000008E-002     2.3409830928176518     
   7.4700000000000003E-002     2.0050391614455787     
   7.5000000000000011E-002     1.5842165246773401     
   7.5299999999999992E-002     1.0996272715605460     
   7.5600000000000001E-002    0.57642407146435215     
   7.5900000000000009E-002     4.2648948685736154E-002
   7.6200000000000004E-002   -0.47201230334137467     
   7.6499999999999999E-002   -0.93819382754138148     
   7.6800000000000007E-002    -1.3285984452056934     
   7.7099999999999988E-002    -1.6197201994976487     
   7.7399999999999997E-002    -1.7931128361493236     
   7.7700000000000005E-002    -1.8372391092582834     
   7.8000000000000014E-002    -1.7488987356625008     
   7.8299999999999995E-002    -1.5330253553203841     
   7.8600000000000003E-002    -1.2034286522752757     
   7.8900000000000012E-002   -0.78141925344596364     
   7.9199999999999993E-002   -0.29472081287795399     
   7.9500000000000001E-002    0.22401435399630276     
   7.9800000000000010E-002    0.74003392620501895     
   8.0100000000000018E-002     1.2185836032444652     
   8.0399999999999999E-002     1.6275010038041993     
   8.0700000000000008E-002     1.9398726362528596     
   8.1000000000000003E-002     2.1353563245035536     
   8.1299999999999997E-002     2.2017953465932067     
   8.1600000000000006E-002     2.1363304584608978     
   8.1900000000000014E-002     1.9445444760535633     
   8.2199999999999995E-002     1.6404526379264641     
   8.2500000000000004E-002     1.2449182923936202     
   8.2799999999999999E-002    0.78389701075479379     
   8.3100000000000007E-002    0.28613666681090943     
   8.3400000000000002E-002   -0.21839818914360548     
   8.3700000000000011E-002   -0.70112462691734467     
   8.4000000000000005E-002    -1.1367696695400435     
   8.4300000000000000E-002    -1.5039436799819694     
   8.4599999999999995E-002    -1.7875743525194046     
   8.4900000000000003E-002    -1.9777170894723648     
   8.5199999999999998E-002    -2.0710070113916097     
   8.5500000000000007E-002    -2.0699606469690628     
   8.5800000000000001E-002    -1.9813199436811573     
   8.6100000000000010E-002    -1.8165960071050631     
   8.6399999999999991E-002    -1.5900930592612172     
   8.6699999999999999E-002    -1.3182422322529301     
   8.7000000000000008E-002    -1.0185904092423339     
   8.7300000000000003E-002   -0.70920048231984611     
   8.7599999999999997E-002   -0.40756085068179976     
   8.7900000000000006E-002   -0.13004938457370685     
   8.8200000000000014E-002    0.10820994777129569     
   8.8499999999999995E-002    0.29399354997450217     
   8.8800000000000004E-002    0.41729552825885896     
   8.9100000000000013E-002    0.47035856970550566     
   8.9399999999999993E-002    0.44937492884776897     
   8.9700000000000002E-002    0.35436630486611614     
   9.0000000000000011E-002    0.18943758296540888     
   9.0299999999999991E-002    -3.6611057891951279E-002
   9.0600000000000000E-002   -0.31059882732824845     
   9.0900000000000009E-002   -0.61527364056832912     
   9.1200000000000017E-002   -0.93029125985572692     
   9.1499999999999998E-002    -1.2326250655290159     
   9.1800000000000007E-002    -1.4984651847519586     
   9.2100000000000001E-002    -1.7043156264524200     
   9.2399999999999996E-002    -1.8287821400251989     
   9.2700000000000005E-002    -1.8543105458870832     
   9.3000000000000013E-002    -1.7680263147288022     
   9.3300000000000008E-002    -1.5637648619811069     
   9.3600000000000003E-002    -1.2421171347625415     
   9.3899999999999997E-002   -0.81072623938644106     
   9.4200000000000006E-002   -0.28485262078731860     
   9.4500000000000001E-002    0.31443039054455268     
   9.4800000000000009E-002    0.96009002658479881     
   9.5100000000000004E-002     1.6212163164417717     
   9.5399999999999999E-002     2.2647884139149479     
   9.5699999999999993E-002     2.8571594373856413     
   9.6000000000000002E-002     3.3655180663310422     
   9.6300000000000011E-002     3.7605393293218974     
   9.6600000000000005E-002     4.0177275769903256     
   9.6900000000000000E-002     4.1177717213817004     
   9.7200000000000009E-002     4.0500580342310641     
   9.7499999999999989E-002     3.8108812025761774     
   9.7799999999999998E-002     3.4056526836642460     
   9.8100000000000007E-002     2.8487132477649904     
   9.8400000000000015E-002     2.1621898882013841     
   9.8699999999999996E-002     1.3760414006476906     
   9.9000000000000005E-002    0.52613370614718735     
   9.9300000000000013E-002   -0.34720621918951144     
   9.9599999999999994E-002    -1.2015485063814024     
   9.9900000000000003E-002    -1.9940013966678443     
  0.10020000000000001         -2.6847634168191155     
  0.10049999999999999         -3.2380749171882051     
  0.10080000000000000         -3.6251904281420977     
  0.10110000000000001         -3.8259476820960532     
  0.10140000000000000         -3.8293216277857631     
  0.10170000000000000         -3.6344814592777075     
  0.10200000000000001         -3.2503325270706949     
  0.10230000000000002         -2.6945452731521140     
  0.10260000000000000         -1.9924072327639233     
  0.10290000000000001         -1.1756055117753610     
  0.10320000000000000        -0.27966890826617752     
  0.10350000000000001         0.65770695530097112     
  0.10380000000000000          1.5982698409846816     
  0.10410000000000001          2.5047369161033610     
  0.10440000000000001          3.3426636238156866     
  0.10470000000000000          4.0801825989618559     
  0.10500000000000000          4.6900294561239324     
  0.10530000000000000          5.1496042134288667     
  0.10560000000000000          5.4403514583189452     
  0.10590000000000001          5.5496318189407656     
  0.10620000000000000          5.4697524197420213     
  0.10650000000000001          5.1992730773127560     
  0.10679999999999999          4.7428856043836660     
  0.10710000000000000          4.1120614274623879     
  0.10740000000000001          3.3247361349611233     
  0.10770000000000000          2.4065176053634918     
  0.10800000000000000          1.3892853216874039     
  0.10830000000000001         0.31073969572366655     
  0.10859999999999999        -0.78645358136913623     
  0.10890000000000000         -1.8575994626854588     
  0.10920000000000001         -2.8562150134994497     
  0.10950000000000001         -3.7382268728174237     
  0.10979999999999999         -4.4650802148506754     
  0.11009999999999999         -5.0056355851838656     
  0.11040000000000001         -5.3388551366310972     
  0.11070000000000001         -5.4554713136678572     
  0.11100000000000000         -5.3603855657471868     
  0.11130000000000000         -5.0719330090613477     
  0.11160000000000002         -4.6226926978091987     
  0.11190000000000001         -4.0552604144615714     
  0.11220000000000001         -3.4212374964685068     
  0.11250000000000000         -2.7778023291438485     
  0.11280000000000000         -2.1822665118225357     
  0.11309999999999999         -1.6891754076819367     
  0.11340000000000001         -1.3436696488157600     
  0.11369999999999998         -1.1784341627144741     
  0.11400000000000000         -1.2109778988853810     
  0.11430000000000000         -1.4409288552750839     
  0.11460000000000002         -1.8481918242487028     
  0.11489999999999999         -2.3945551617358185     
  0.11520000000000001         -3.0248227017388576     
  0.11550000000000001         -3.6713209139337231     
  0.11580000000000000         -4.2583678102000748     
  0.11609999999999999         -4.7081622857049918     
  0.11640000000000002         -4.9457654729792342     
  0.11670000000000001         -4.9070894661551927     
  0.11700000000000001         -4.5444424177926965     
  0.11730000000000000         -3.8316274561482473     
  0.11760000000000000         -2.7682266874443884     
  0.11789999999999999         -1.3799396388876124     
  0.11820000000000001         0.28008632716037341     
  0.11850000000000001          2.1344901153326932     
  0.11880000000000000          4.0844376418798021     
  0.11910000000000000          6.0171330185932952     
  0.11940000000000002          7.8139151461522358     
  0.11970000000000001          9.3576857972306300     
  0.12000000000000001          10.542612915961856     
  0.12030000000000000          11.281363079927225     
  0.12060000000000000          11.511711187508803     
  0.12089999999999999          11.203167102958647     
  0.12119999999999999          10.359144195452698     
  0.12150000000000001          9.0168472023507356     
  0.12180000000000001          7.2449792001572959     
  0.12210000000000000          5.1391362301243095     
  0.12239999999999999          2.8153276783788037     
  0.12270000000000002         0.40230495682401091     
  0.12300000000000001         -1.9666201799273577     
  0.12330000000000001         -4.1641862409428843     
  0.12360000000000000         -6.0756297811632551     
  0.12390000000000000         -7.6057102077358598     
  0.12419999999999999         -8.6834851405919782     
  0.12450000000000001         -9.2657980913198443     
  0.12480000000000001         -9.3391052090484337     
  0.12509999999999999         -8.9197812573494559     
  0.12540000000000001         -8.0498824752789115     
  0.12570000000000003         -6.7946239084898519     
  0.12600000000000000         -5.2383840762557838     
  0.12630000000000002         -3.4788599777996243     
  0.12659999999999999         -1.6227297937040390     
  0.12690000000000001         0.22154162071780648     
  0.12719999999999998          1.9495839377308415     
  0.12750000000000000          3.4657691385214102     
  0.12780000000000002          4.6878641504708103     
  0.12809999999999999          5.5511331839047102     
  0.12840000000000001          6.0134655205577765     
  0.12869999999999998          6.0576173107327920     
  0.12900000000000000          5.6920803997221840     
  0.12930000000000003          4.9514689039583484     
  0.12959999999999999          3.8944694785387926     
  0.12990000000000002          2.6019585146793891     
  0.13019999999999998          1.1721730056939752     
  0.13050000000000000        -0.28640903861323774     
  0.13080000000000003         -1.6625827134335760     
  0.13109999999999999         -2.8507387924098606     
  0.13140000000000002         -3.7594622562561932     
  0.13169999999999998         -4.3193355036100325     
  0.13200000000000001         -4.4895138191955706     
  0.13229999999999997         -4.2626574957297443     
  0.13260000000000000         -3.6660266965636965     
  0.13290000000000002         -2.7599693269509622     
  0.13319999999999999         -1.6327818677520214     
  0.13350000000000001        -0.39193764179630020     
  0.13380000000000003         0.84558800614225960     
  0.13410000000000000          1.9661966122875976     
  0.13440000000000002          2.8713427084015688     
  0.13469999999999999          3.4887035684114123     
  0.13500000000000001          3.7810856250996774     
  0.13529999999999998          3.7497506322581682     
  0.13560000000000000          3.4363827993238329     
  0.13590000000000002          2.9168970869679072     
  0.13619999999999999          2.2951425429467642     
  0.13650000000000001          1.6873956994901107     
  0.13680000000000003          1.2111095235470213     
  0.13710000000000000         0.96769871268328922     
  0.13740000000000002          1.0296264266639457     
  0.13769999999999999          1.4297851854010182     
  0.13800000000000001          2.1531203687179818     
  0.13829999999999998          3.1364826017118084     
  0.13860000000000000          4.2706967206759954     
  0.13890000000000002          5.4117958680212901     
  0.13919999999999999          6.3927354310595312     
  0.13950000000000001          7.0413126927804619     
  0.13979999999999998          7.1970219201807790     
  0.14010000000000000          6.7308993337480461     
  0.14040000000000002          5.5607697313286222     
  0.14069999999999999          3.6643537619024391     
  0.14100000000000001          1.0855156961726056     
  0.14130000000000004         -2.0641659330446052     
  0.14160000000000000         -5.6104858858433158     
  0.14189999999999997         -9.3277372619665808     
  0.14219999999999999         -12.952687411606499     
  0.14250000000000002         -16.208504915383767     
  0.14279999999999998         -18.824967427870241     
  0.14310000000000000         -20.561825351538651     
  0.14339999999999997         -21.229295674454626     
  0.14369999999999999         -20.705755543164770     
  0.14400000000000002         -18.949571142429118     
  0.14429999999999998         -16.007937303585102     
  0.14460000000000001         -12.014317686993332     
  0.14490000000000003         -7.1801505863144506     
  0.14520000000000000         -1.7838025723245057     
  0.14550000000000002          3.8511153662390996     
  0.14579999999999999          9.3763943935030838     
  0.14610000000000001          14.445526213272775     
  0.14640000000000003          18.736608724348155     
  0.14670000000000000          21.978145015752485     
  0.14699999999999996          23.965054274525908     
  0.14729999999999999          24.573892993085607     
  0.14760000000000001          23.769839304968187     
  0.14789999999999998          21.607710783240407     
  0.14820000000000000          18.227133804685788     