  -1.4999999999999999E-002     0.0000000000000000     
  -1.4700000000000000E-002     0.0000000000000000     
  -1.4400000000000000E-002     0.0000000000000000     
  -1.4100000000000000E-002     0.0000000000000000     
  -1.3800000000000000E-002     0.0000000000000000     
  -1.3500000000000000E-002     0.0000000000000000     
  -1.3200000000000000E-002     0.0000000000000000     
  -1.2899999999999998E-002     0.0000000000000000     
  -1.2600000000000000E-002     0.0000000000000000     
  -1.2299999999999998E-002     0.0000000000000000     
  -1.2000000000000000E-002     0.0000000000000000     
  -1.1699999999999999E-002     0.0000000000000000     
  -1.1399999999999999E-002     0.0000000000000000     
  -1.1099999999999999E-002     0.0000000000000000     
  -1.0799999999999999E-002     0.0000000000000000     
  -1.0499999999999999E-002     0.0000000000000000     
  -1.0199999999999999E-002     0.0000000000000000     
  -9.8999999999999991E-003     0.0000000000000000     
  -9.5999999999999992E-003     0.0000000000000000     
  -9.2999999999999992E-003     0.0000000000000000     
  -8.9999999999999993E-003     0.0000000000000000     
  -8.6999999999999994E-003     0.0000000000000000     
  -8.3999999999999995E-003     0.0000000000000000     
  -8.0999999999999996E-003     0.0000000000000000     
  -7.7999999999999988E-003     0.0000000000000000     
  -7.4999999999999997E-003     0.0000000000000000     
  -7.1999999999999998E-003     0.0000000000000000     
  -6.8999999999999981E-003     0.0000000000000000     
  -6.5999999999999982E-003     0.0000000000000000     
  -6.3000000000000000E-003     0.0000000000000000     
  -6.0000000000000001E-003     0.0000000000000000     
  -5.6999999999999985E-003     0.0000000000000000     
  -5.3999999999999986E-003     0.0000000000000000     
  -5.1000000000000004E-003     0.0000000000000000     
  -4.7999999999999987E-003     0.0000000000000000     
  -4.5000000000000005E-003     0.0000000000000000     
  -4.1999999999999989E-003     0.0000000000000000     
  -3.8999999999999990E-003     0.0000000000000000     
  -3.5999999999999990E-003     0.0000000000000000     
  -3.2999999999999991E-003     0.0000000000000000     
  -2.9999999999999992E-003     0.0000000000000000     
  -2.6999999999999993E-003     0.0000000000000000     
  -2.3999999999999994E-003     0.0000000000000000     
  -2.0999999999999977E-003     0.0000000000000000     
  -1.7999999999999995E-003     0.0000000000000000     
  -1.4999999999999979E-003     0.0000000000000000     
  -1.1999999999999997E-003     0.0000000000000000     
  -8.9999999999999976E-004     0.0000000000000000     
  -5.9999999999999810E-004     0.0000000000000000     
  -2.9999999999999992E-004     0.0000000000000000     
   0.0000000000000000          0.0000000000000000     
   3.0000000000000165E-004     0.0000000000000000     
   5.9999999999999984E-004     0.0000000000000000     
   9.0000000000000149E-004     0.0000000000000000     
   1.2000000000000031E-003     0.0000000000000000     
   1.5000000000000013E-003     0.0000000000000000     
   1.8000000000000030E-003     0.0000000000000000     
   2.1000000000000012E-003     0.0000000000000000     
   2.3999999999999994E-003     0.0000000000000000     
   2.7000000000000010E-003     0.0000000000000000     
   2.9999999999999992E-003     0.0000000000000000     
   3.3000000000000008E-003     0.0000000000000000     
   3.6000000000000025E-003     0.0000000000000000     
   3.9000000000000007E-003     0.0000000000000000     
   4.2000000000000023E-003     0.0000000000000000     
   4.5000000000000005E-003     0.0000000000000000     
   4.7999999999999987E-003     0.0000000000000000     
   5.1000000000000004E-003     0.0000000000000000     
   5.4000000000000020E-003     0.0000000000000000     
   5.7000000000000037E-003     0.0000000000000000     
   5.9999999999999984E-003     0.0000000000000000     
   6.3000000000000000E-003     0.0000000000000000     
   6.6000000000000017E-003     0.0000000000000000     
   6.9000000000000034E-003     0.0000000000000000     
   7.2000000000000015E-003     0.0000000000000000     
   7.5000000000000032E-003     0.0000000000000000     
   7.8000000000000014E-003     0.0000000000000000     
   8.0999999999999996E-003     0.0000000000000000     
   8.4000000000000012E-003     0.0000000000000000     
   8.7000000000000029E-003     0.0000000000000000     
   9.0000000000000011E-003     0.0000000000000000     
   9.2999999999999992E-003     0.0000000000000000     
   9.6000000000000009E-003     0.0000000000000000     
   9.8999999999999991E-003     0.0000000000000000     
   1.0200000000000001E-002     0.0000000000000000     
   1.0500000000000002E-002     0.0000000000000000     
   1.0800000000000004E-002     0.0000000000000000     
   1.1099999999999999E-002     0.0000000000000000     
   1.1400000000000000E-002     0.0000000000000000     
   1.1700000000000002E-002     0.0000000000000000     
   1.2000000000000004E-002     0.0000000000000000     
   1.2300000000000002E-002     0.0000000000000000     
   1.2600000000000000E-002     0.0000000000000000     
   1.2900000000000002E-002     0.0000000000000000     
   1.3200000000000000E-002     0.0000000000000000     
   1.3500000000000002E-002     0.0000000000000000     
   1.3800000000000003E-002     0.0000000000000000     
   1.4100000000000001E-002     0.0000000000000000     
   1.4400000000000000E-002     0.0000000000000000     
   1.4700000000000001E-002     0.0000000000000000     
   1.4999999999999999E-002     0.0000000000000000     
   1.5300000000000001E-002     0.0000000000000000     
   1.5600000000000003E-002     0.0000000000000000     
   1.5899999999999997E-002     0.0000000000000000     
   1.6199999999999999E-002     0.0000000000000000     
   1.6500000000000001E-002     0.0000000000000000     
   1.6800000000000002E-002     0.0000000000000000     
   1.7100000000000004E-002     0.0000000000000000     
   1.7400000000000006E-002     0.0000000000000000     
   1.7700000000000000E-002     0.0000000000000000     
   1.8000000000000002E-002     0.0000000000000000     
   1.8300000000000004E-002     0.0000000000000000     
   1.8600000000000005E-002    -4.1326335372994686E-036
   1.8900000000000000E-002     6.3176754000671619E-036
   1.9200000000000002E-002     2.3742275769777434E-034
   1.9500000000000003E-002    -8.2314380868063599E-034
   1.9799999999999998E-002     2.8862914049686656E-033
   2.0100000000000000E-002    -5.6866948503177955E-033
   2.0400000000000001E-002     7.3703452528932988E-033
   2.0700000000000003E-002    -1.2706921628526888E-033
   2.0999999999999998E-002    -2.0748446992381523E-032
   2.1299999999999999E-002     5.7632395035735871E-032
   2.1600000000000001E-002    -7.5538351883777200E-032
   2.1900000000000003E-002    -1.4239122165054161E-032
   2.2200000000000004E-002     3.0235652257925296E-031
   2.2500000000000006E-002    -7.0382451947680510E-031
   2.2800000000000001E-002     7.4120087462328756E-031
   2.3100000000000002E-002     4.0998933713071025E-031
   2.3400000000000004E-002    -3.1978456060096080E-030
   2.3699999999999999E-002     6.2919380020794619E-030
   2.4000000000000000E-002    -5.5263925973967934E-030
   2.4300000000000002E-002    -4.8472233810829913E-030
   2.4599999999999997E-002     2.6829129702441921E-029
   2.4900000000000005E-002    -4.9798720530513268E-029
   2.5200000000000000E-002     4.3635210588732902E-029
   2.5499999999999995E-002     3.3725570954958097E-029
   2.5800000000000003E-002    -1.9920065133669176E-028
   2.6099999999999998E-002     3.8041933107245467E-028
   2.6400000000000007E-002    -3.7698070006834739E-028
   2.6700000000000002E-002    -5.2900432549698470E-029
   2.6999999999999996E-002     9.2834832806198411E-028
   2.7300000000000005E-002    -1.6819383774226971E-027
   2.7600000000000000E-002     6.1985847251711731E-028
   2.7900000000000008E-002     6.3699349554613238E-027
   2.8200000000000003E-002    -2.6416481940267395E-026
   2.8499999999999998E-002     5.7509835623043252E-026
   2.8800000000000006E-002    -4.1189949859891290E-026
   2.9100000000000001E-002    -1.8687722763416191E-025
   2.9400000000000003E-002     7.0053050740892458E-025
   2.9700000000000004E-002    -6.2974910563763880E-025
   3.0000000000000006E-002    -2.7623921844552449E-024
   3.0300000000000001E-002     1.0795704334968103E-023
   3.0600000000000002E-002    -7.4083808653838636E-024
   3.0900000000000004E-002    -6.9267120878285935E-023
   3.1199999999999999E-002     3.2015928302805341E-022
   3.1500000000000007E-002    -6.9713668003722546E-022
   3.1800000000000002E-002     4.1982061649724401E-022
   3.2099999999999997E-002     2.9259561787843191E-021
   3.2400000000000005E-002    -1.3195478203970666E-020
   3.2700000000000000E-002     2.9601347207195714E-020
   3.3000000000000002E-002    -2.3071819906046480E-020
   3.3300000000000003E-002    -1.2440733820157438E-019
   3.3599999999999998E-002     6.9473698930363863E-019
   3.3900000000000000E-002    -1.8765978351155541E-018
   3.4200000000000001E-002     1.9097597622477651E-018
   3.4500000000000003E-002     7.7815990841101285E-018
   3.4799999999999998E-002    -4.3947242439651150E-017
   3.5099999999999999E-002     9.7275914436577911E-017
   3.5400000000000001E-002    -1.7725771170931107E-017
   3.5699999999999996E-002    -5.8096485613528088E-016
   3.6000000000000004E-002     1.8515529030428528E-015
   3.6299999999999999E-002    -1.9384876063913220E-015
   3.6600000000000008E-002    -4.7583385103964841E-015
   3.6900000000000002E-002     2.2374836289078240E-014
   3.7199999999999997E-002    -3.3330366238369846E-014
   3.7500000000000006E-002    -2.1231111417198686E-014
   3.7800000000000000E-002     1.9319191115453669E-013
   3.8100000000000009E-002    -3.4911924929599998E-013
   3.8400000000000004E-002     1.4903055975056260E-014
   3.8699999999999998E-002     1.2445755073217621E-012
   3.9000000000000007E-002    -2.5830590496936867E-012
   3.9300000000000002E-002     1.0197217768486063E-012
   3.9600000000000003E-002     5.9373186170825172E-012
   3.9900000000000005E-002    -1.3695282978396858E-011
   4.0200000000000000E-002     8.8389581475678918E-012
   4.0500000000000001E-002     1.6553289953179150E-011
   4.0800000000000003E-002    -4.8743915065371582E-011
   4.1100000000000005E-002     6.6287024855729109E-011
   4.1399999999999999E-002    -3.7054242836145761E-011
   4.1700000000000008E-002    -1.7683994487535962E-010
   4.2000000000000003E-002     6.3543104666420245E-010
   4.2299999999999997E-002    -3.7487490389993592E-010
   4.2600000000000006E-002    -2.1574821290738953E-009
   4.2900000000000001E-002     3.6421720152206186E-009
   4.3200000000000002E-002     5.5491301738139978E-009
   4.3500000000000004E-002    -1.7521946940443141E-008
   4.3799999999999999E-002    -1.3504907086813864E-008
   4.4100000000000000E-002     7.6095531785567923E-008
   4.4400000000000002E-002     4.6770459881386610E-009
   4.4700000000000004E-002    -3.4358016657776078E-007
   4.4999999999999998E-002     5.6336775936695682E-007
   4.5300000000000000E-002     5.3714186979770062E-006
   4.5600000000000002E-002     1.4217844414020980E-005
   4.5899999999999996E-002     2.3572234386655488E-005
   4.6200000000000005E-002     3.0387502279652033E-005
   4.6500000000000000E-002     3.7324152455528660E-005
   4.6799999999999994E-002     5.2865655178612185E-005
   4.7100000000000003E-002     8.4088232701653694E-005
   4.7399999999999998E-002     1.3236337434343904E-004
   4.7700000000000006E-002     2.0052063018502733E-004
   4.8000000000000001E-002     2.9885937226314664E-004
   4.8300000000000010E-002     4.4004010218110521E-004
   4.8600000000000004E-002     6.3458829321243865E-004
   4.8899999999999999E-002     8.9629430008354857E-004
   4.9200000000000008E-002     1.2468538355620857E-003
   4.9500000000000002E-002     1.7097265085944107E-003
   4.9800000000000011E-002     2.3033760801922467E-003
   5.0100000000000006E-002     3.0451821943898475E-003
   5.0400000000000000E-002     3.9577744779062578E-003
   5.0700000000000009E-002     5.0635575261865576E-003
   5.1000000000000004E-002     6.3693765617815392E-003
   5.1299999999999998E-002     7.8580864042756479E-003
   5.1600000000000007E-002     9.4941994743401904E-003
   5.1900000000000002E-002     1.1229642765342846E-002
   5.2200000000000010E-002     1.2996081418181029E-002
   5.2500000000000005E-002     1.4690462729520978E-002
   5.2800000000000000E-002     1.6178677178899509E-002
   5.3099999999999994E-002     1.7310327345768824E-002
   5.3400000000000003E-002     1.7928598997445828E-002
   5.3699999999999998E-002     1.7879205505247586E-002
   5.4000000000000006E-002     1.7026222191514163E-002
   5.4300000000000001E-002     1.5272917226834288E-002
   5.4599999999999996E-002     1.2587141342111917E-002
   5.4900000000000004E-002     9.0078098332381871E-003
   5.5199999999999999E-002     4.6413160400251337E-003
   5.5499999999999994E-002    -3.4841136192886516E-004
   5.5800000000000002E-002    -5.7433546958609695E-003
   5.6099999999999997E-002    -1.1325236848136740E-002
   5.6400000000000006E-002    -1.6936579649475446E-002
   5.6700000000000000E-002    -2.2550859030874275E-002
   5.6999999999999995E-002    -2.8316536185430428E-002
   5.7300000000000004E-002    -3.4632304695813763E-002
   5.7599999999999998E-002    -4.2159496693273589E-002
   5.7900000000000007E-002    -5.1855318024789918E-002
   5.8200000000000002E-002    -6.4906579076151882E-002
   5.8499999999999996E-002    -8.2617041990335469E-002
   5.8800000000000005E-002   -0.10620451529311668     
   5.9100000000000000E-002   -0.13665359315457812     
   5.9400000000000008E-002   -0.17444679748961817     
   5.9700000000000003E-002   -0.21929281057816366     
   6.0000000000000012E-002   -0.26996052826691558     
   6.0300000000000006E-002   -0.32410052918844123     
   6.0600000000000001E-002   -0.37820503532526256     
   6.0900000000000010E-002   -0.42772293405825562     
   6.1200000000000004E-002   -0.46730774841290934     
   6.1500000000000013E-002   -0.49116057237063138     
   6.1800000000000008E-002   -0.49352082567901301     
   6.2100000000000002E-002   -0.46927711207833844     
   6.2399999999999997E-002   -0.41458475322255778     
   6.2700000000000006E-002   -0.32741295929132541     
   6.3000000000000000E-002   -0.20797885510717296     
   6.3300000000000009E-002    -5.8934307225371144E-002
   6.3600000000000004E-002    0.11441067422960988     
   6.3899999999999998E-002    0.30442202692764275     
   6.4199999999999993E-002    0.50138557589428123     
   6.4500000000000002E-002    0.69438034950562622     
   6.4800000000000010E-002    0.87189686971235947     
   6.5100000000000005E-002     1.0227544376290327     
   6.5400000000000000E-002     1.1368675301537319     
   6.5700000000000008E-002     1.2062637876072191     
   6.5999999999999989E-002     1.2255097697863104     
   6.6299999999999998E-002     1.1922264168660834     
   6.6600000000000006E-002     1.1072000333077063     
   6.6900000000000001E-002    0.97443909104687931     
   6.7199999999999996E-002    0.80072999611297058     
   6.7500000000000004E-002    0.59522706825088634     
   6.7800000000000013E-002    0.36881635076541425     
   6.8099999999999994E-002    0.13339126506851151     
   6.8400000000000002E-002    -9.8997224876733736E-002
   6.8700000000000011E-002   -0.31677657179830343     
   6.8999999999999992E-002   -0.50957214765452796     
   6.9300000000000000E-002   -0.66874128637196517     
   6.9600000000000009E-002   -0.78787356795318952     
   6.9900000000000004E-002   -0.86296904386903317     
   7.0199999999999999E-002   -0.89276701622115684     
   7.0500000000000007E-002   -0.87859982760456534     
   7.0800000000000016E-002   -0.82437945002280022     
   7.1099999999999997E-002   -0.73630142865876991     
   7.1400000000000005E-002   -0.62249136669153560     
   7.1700000000000000E-002   -0.49247739442757199     
   7.1999999999999995E-002   -0.35671577587723413     
   7.2300000000000003E-002   -0.22586802370992048     
   7.2600000000000012E-002   -0.11022756952321122     
   7.2900000000000006E-002    -1.8802254752352976E-002
   7.3200000000000001E-002     4.0955689691016206E-002
   7.3499999999999996E-002     6.4075858444128275E-002
   7.3800000000000004E-002     4.8172139723380150E-002
   7.4099999999999999E-002    -6.0180481090673721E-003
   7.4400000000000008E-002    -9.4809524042956797E-002
   7.4700000000000003E-002   -0.21160847674283778     
   7.5000000000000011E-002   -0.34724826409644405     
   7.5299999999999992E-002   -0.49078700803856573     
   7.5600000000000001E-002   -0.62988449070024310     
   7.5900000000000009E-002   -0.75207031751086284     
   7.6200000000000004E-002   -0.84501237682000863     
   7.6499999999999999E-002   -0.89807821306665747     
   7.6800000000000007E-002   -0.90256590566017703     
   7.7099999999999988E-002   -0.85261554306128218     
   7.7399999999999997E-002   -0.74562377313527128     
   7.7700000000000005E-002   -0.58225012129627807     
   7.8000000000000014E-002   -0.36686259478121802     
   7.8299999999999995E-002   -0.10708261612863060     
   7.8600000000000003E-002    0.18664606740788758     
   7.8900000000000012E-002    0.50137342272187935     
   7.9199999999999993E-002    0.82277043326284305     
   7.9500000000000001E-002     1.1351528369662360     
   7.9800000000000010E-002     1.4233899348038574     
   8.0100000000000018E-002     1.6725721612517674     
   8.0399999999999999E-002     1.8698460128362753     
   8.0700000000000008E-002     2.0045144823631351     
   8.1000000000000003E-002     2.0688720005656651     
   8.1299999999999997E-002     2.0589046714791905     
   8.1600000000000006E-002     1.9742287605551574     
   8.1900000000000014E-002     1.8185718232801598     
   8.2199999999999995E-002     1.5995798243802513     
   8.2500000000000004E-002     1.3279187769790530     
   8.2799999999999999E-002     1.0178453969062755     
   8.3100000000000007E-002    0.68481391723406648     
   8.3400000000000002E-002    0.34596812391337278     
   8.3700000000000011E-002     1.7702302665766258E-002
   8.4000000000000005E-002   -0.28436226616442256     
   8.4300000000000000E-002   -0.54720444681004654     
   8.4599999999999995E-002   -0.76109291487220854     
   8.4900000000000003E-002   -0.91995133446669963     
   8.5199999999999998E-002    -1.0220377598424253     
   8.5500000000000007E-002    -1.0696036969369915     
   8.5800000000000001E-002    -1.0687060505713015     
   8.6100000000000010E-002    -1.0281959913099801     
   8.6399999999999991E-002   -0.95884902574069375     
   8.6699999999999999E-002   -0.87244428335575885     
   8.7000000000000008E-002   -0.78031338208177792     
   8.7300000000000003E-002   -0.69267887614321821     
   8.7599999999999997E-002   -0.61755764994529638     
   8.7900000000000006E-002   -0.56050318748909034     
   8.8200000000000014E-002   -0.52418428690068231     
   8.8499999999999995E-002   -0.50890058073899125     
   8.8800000000000004E-002   -0.51221829239936401     
   8.9100000000000013E-002   -0.53048133255174923     
   8.9399999999999993E-002   -0.55830495825950488     
   8.9700000000000002E-002   -0.59034155996593429     
   9.0000000000000011E-002   -0.62053441191325398     
   9.0299999999999991E-002   -0.64372955998965797     
   9.0600000000000000E-002   -0.65483760208991038     
   9.0900000000000009E-002   -0.64969610732118332     
   9.1200000000000017E-002   -0.62448102042962295     
   9.1499999999999998E-002   -0.57630723795151606     
   9.1800000000000007E-002   -0.50250655786498510     
   9.2100000000000001E-002   -0.40151161612213937     
   9.2399999999999996E-002   -0.27244154528396541     
   9.2700000000000005E-002   -0.11582640925708367     
   9.3000000000000013E-002     6.6114755943064374E-002
   9.3300000000000008E-002    0.26928754344175937     
   9.3600000000000003E-002    0.48711715870776712     
   9.3899999999999997E-002    0.71077578124558782     
   9.4200000000000006E-002    0.92891829276361126     
   9.4500000000000001E-002     1.1286674671811872     
   9.4800000000000009E-002     1.2959953511963809     
   9.5100000000000004E-002     1.4166331290619805     
   9.5399999999999999E-002     1.4777816566721116     
   9.5699999999999993E-002     1.4688410822273212     
   9.6000000000000002E-002     1.3830791800514262     
   9.6300000000000011E-002     1.2181408511979037     
   9.6600000000000005E-002    0.97683937518310859     
   9.6900000000000000E-002    0.66766722164787018     
   9.7200000000000009E-002    0.30375872119882280     
   9.7499999999999989E-002    -9.6956542457990652E-002
   9.7799999999999998E-002   -0.51412963274803669     
   9.8100000000000007E-002   -0.92512881501099209     
   9.8400000000000015E-002    -1.3080036651898188     
   9.8699999999999996E-002    -1.6420025876649691     
   9.9000000000000005E-002    -1.9099258273743629     
   9.9300000000000013E-002    -2.0983984595070697     
   9.9599999999999994E-002    -2.1993217622716945     
   9.9900000000000003E-002    -2.2095916449184472     
  0.10020000000000001         -2.1314327909761199     
  0.10049999999999999         -1.9713316163575132     
  0.10080000000000000         -1.7400174338462897     
  0.10110000000000001         -1.4505328127523243     
  0.10140000000000000         -1.1185573508558508     
  0.10170000000000000        -0.76015134117695782     
  0.10200000000000001        -0.39248840173795202     
  0.10230000000000002         -3.1746745861306019E-002
  0.10260000000000000         0.30619859231121466     
  0.10290000000000001         0.60688298840722776     
  0.10320000000000000         0.85751521845069190     
  0.10350000000000001          1.0474556744034991     
  0.10380000000000000          1.1688449472821436     
  0.10410000000000001          1.2169093010344028     
  0.10440000000000001          1.1909732956467942     
  0.10470000000000000          1.0942744170719430     
  0.10500000000000000         0.93516035523582908     
  0.10530000000000000         0.72585411558427493     
  0.10560000000000000         0.48293359749472176     
  0.10590000000000001         0.22587590023231069     
  0.10620000000000000         -2.4201806729427275E-002
  0.10650000000000001        -0.24591486312606092     
  0.10679999999999999        -0.41959278617990975     
  0.10710000000000000        -0.52912389261867665     
  0.10740000000000001        -0.56297706789929181     
  0.10770000000000000        -0.51611375230803169     
  0.10800000000000000        -0.38905897348176666     
  0.10830000000000001        -0.18964105619674532     
  0.10859999999999999          6.9669619960412724E-002
  0.10890000000000000         0.37166184151623277     
  0.10920000000000001         0.69717556123787550     
  0.10950000000000001          1.0258734211236380     
  0.10979999999999999          1.3385778651660145     
  0.11009999999999999          1.6187776319729719     
  0.11040000000000001          1.8532036547253607     
  0.11070000000000001          2.0324516318171164     
  0.11100000000000000          2.1510493799158006     
  0.11130000000000000          2.2066419194839635     
  0.11160000000000002          2.1995456317402287     
  0.11190000000000001          2.1313254961362258     
  0.11220000000000001          2.0047242796698499     
  0.11250000000000000          1.8221510826939999     
  0.11280000000000000          1.5864951804372089     
  0.11309999999999999          1.3004422387741055     
  0.11340000000000001         0.96714510485312688     
  0.11369999999999998         0.59146590814148692     
  0.11400000000000000         0.17946124067507196     
  0.11430000000000000        -0.25943439138058849     
  0.11460000000000002        -0.71386700316533402     
  0.11489999999999999         -1.1689786914677995     
  0.11520000000000001         -1.6087064809374494     
  0.11550000000000001         -2.0151393543905662     
  0.11580000000000000         -2.3709678841613866     
  0.11609999999999999         -2.6602063426980229     
  0.11640000000000002         -2.8695457278534087     
  0.11670000000000001         -2.9899721481274271     
  0.11700000000000001         -3.0166066057607530     
  0.11730000000000000         -2.9496972943239932     
  0.11760000000000000         -2.7939224632280411     
  0.11789999999999999         -2.5580163387234425     
  0.11820000000000001         -2.2538106812458247     
  0.11850000000000001         -1.8948972571921798     
  0.11880000000000000         -1.4957660750005077     
  0.11910000000000000         -1.0709523232997791     
  0.11940000000000002        -0.63378062057294637     
  0.11970000000000001        -0.19662730502114520     
  0.12000000000000001         0.23002069257806443     
  0.12030000000000000         0.63685571939109331     
  0.12060000000000000          1.0165065582139292     
  0.12089999999999999          1.3626421822305592     
  0.12119999999999999          1.6701089351623599     
  0.12150000000000001          1.9351684132836862     
  0.12180000000000001          2.1548314434694067     
  0.12210000000000000          2.3279424103806599     
  0.12239999999999999          2.4539456795136787     
  0.12270000000000002          2.5344653578663006     
  0.12300000000000001          2.5716274240434189     
  0.12330000000000001          2.5694456547465800     
  0.12360000000000000          2.5316772887511778     
  0.12390000000000000          2.4630222715804364     
  0.12419999999999999          2.3672747969854413     
  0.12450000000000001          2.2474747022117980     
  0.12480000000000001          2.1053934376002847     
  0.12509999999999999          1.9409237151501246     
  0.12540000000000001          1.7526942706065269     
  0.12570000000000003          1.5383339119908328     
  0.12600000000000000          1.2947669205560191     
  0.12630000000000002          1.0199453995125314     
  0.12659999999999999         0.71232368114784150     
  0.12690000000000001         0.37359131811478641     
  0.12719999999999998          7.3459609190671734E-003
  0.12750000000000000        -0.37867494455891121     
  0.12780000000000002        -0.77458673170524139     
  0.12809999999999999         -1.1667042976030320     
  0.12840000000000001         -1.5409128746929777     
  0.12869999999999998         -1.8814343388479460     
  0.12900000000000000         -2.1743865293344156     
  0.12930000000000003         -2.4069576659767917     
  0.12959999999999999         -2.5708890474402737     
  0.12990000000000002         -2.6609271199071598     
  0.13019999999999998         -2.6771066913483610     
  0.13050000000000000         -2.6229389515280261     
  0.13080000000000003         -2.5061643971752150     
  0.13109999999999999         -2.3367834949520265     
  0.13140000000000002         -2.1257201069417229     
  0.13169999999999998         -1.8846625844748601     
  0.13200000000000001         -1.6231033251381588     
  0.13229999999999997         -1.3491172087622059     
  0.13260000000000000         -1.0673712799513493     
  0.13290000000000002        -0.78047056043178031     
  0.13319999999999999        -0.48826124168722379     
  0.13350000000000001        -0.18964591397587552     
  0.13380000000000003         0.11657258067297624     
  0.13410000000000000         0.43036431959808352     
  0.13440000000000002         0.74921008146473322     
  0.13469999999999999          1.0663935844522077     
  0.13500000000000001          1.3716000055916744     
  0.13529999999999998          1.6493041230747809     
  0.13560000000000000          1.8812863466047176     
  0.13590000000000002          2.0454598181449799     
  0.13619999999999999          2.1203773565082011     
  0.13650000000000001          2.0845859400114963     
  0.13680000000000003          1.9217871563891562     
  0.13710000000000000          1.6212755359513553     
  0.13740000000000002          1.1805661624258623     
  0.13769999999999999         0.60749537870778980     
  0.13800000000000001         -8.0459793339300922E-002
  0.13829999999999998        -0.85498972467309864     
  0.13860000000000000         -1.6798410069888436     
  0.13890000000000002         -2.5111494942601946     
  0.13919999999999999         -3.3020029930528896     
  0.13950000000000001         -4.0045491068008445     
  0.13979999999999998         -4.5741844882588980     
  0.14010000000000000         -4.9728098491432799     
  0.14040000000000002         -5.1708808370482222     
  0.14069999999999999         -5.1509599947982672     
  0.14100000000000001         -4.9069891074931649     
  0.14130000000000004         -4.4461021368062532     
  0.14160000000000000         -3.7863781261664329     
  0.14189999999999997         -2.9564606843920100     
  0.14219999999999999         -1.9925305467497969     
  0.14250000000000002        -0.93653400540308707     
  0.14279999999999998         0.16689815874547898     
  0.14310000000000000          1.2723213829177371     
  0.14339999999999997          2.3357940059158313     
  0.14369999999999999          3.3162710928883330     
  0.14400000000000002          4.1769881420981516     
  0.14429999999999998          4.8859968265729288     
  0.14460000000000001          5.4175052637572447     
  0.14490000000000003          5.7520503921216140     
  0.14520000000000000          5.8766260021692807     
  0.14550000000000002          5.7867622226762316     
  0.14579999999999999          5.4856600618662554     
  0.14610000000000001          4.9861283193594037     
  0.14640000000000003          4.3099703739930755     
  0.14670000000000000          3.4885339770053583     
  0.14699999999999996          2.5620372426452813     
  0.14729999999999999          1.5778962613574476     
  0.14760000000000001         0.58878139213378833     
  0.14789999999999998        -0.35078696717250929     
  0.14820000000000000         -1.1875368975800358     