  -1.4999999999999999E-002     0.0000000000000000     
  -1.4700000000000000E-002     0.0000000000000000     
  -1.4400000000000000E-002     0.0000000000000000     
  -1.4100000000000000E-002     0.0000000000000000     
  -1.3800000000000000E-002     0.0000000000000000     
  -1.3500000000000000E-002     0.0000000000000000     
  -1.3200000000000000E-002     0.0000000000000000     
  -1.2899999999999998E-002     0.0000000000000000     
  -1.2600000000000000E-002     0.0000000000000000     
  -1.2299999999999998E-002     0.0000000000000000     
  -1.2000000000000000E-002     0.0000000000000000     
  -1.1699999999999999E-002     0.0000000000000000     
  -1.1399999999999999E-002     0.0000000000000000     
  -1.1099999999999999E-002     0.0000000000000000     
  -1.0799999999999999E-002     0.0000000000000000     
  -1.0499999999999999E-002     0.0000000000000000     
  -1.0199999999999999E-002     0.0000000000000000     
  -9.8999999999999991E-003     0.0000000000000000     
  -9.5999999999999992E-003     0.0000000000000000     
  -9.2999999999999992E-003     0.0000000000000000     
  -8.9999999999999993E-003     0.0000000000000000     
  -8.6999999999999994E-003     0.0000000000000000     
  -8.3999999999999995E-003     0.0000000000000000     
  -8.0999999999999996E-003     0.0000000000000000     
  -7.7999999999999988E-003     0.0000000000000000     
  -7.4999999999999997E-003     0.0000000000000000     
  -7.1999999999999998E-003     0.0000000000000000     
  -6.8999999999999981E-003     0.0000000000000000     
  -6.5999999999999982E-003     0.0000000000000000     
  -6.3000000000000000E-003     0.0000000000000000     
  -6.0000000000000001E-003     0.0000000000000000     
  -5.6999999999999985E-003     0.0000000000000000     
  -5.3999999999999986E-003     0.0000000000000000     
  -5.1000000000000004E-003     0.0000000000000000     
  -4.7999999999999987E-003     0.0000000000000000     
  -4.5000000000000005E-003     0.0000000000000000     
  -4.1999999999999989E-003     0.0000000000000000     
  -3.8999999999999990E-003     0.0000000000000000     
  -3.5999999999999990E-003     0.0000000000000000     
  -3.2999999999999991E-003     0.0000000000000000     
  -2.9999999999999992E-003     0.0000000000000000     
  -2.6999999999999993E-003     0.0000000000000000     
  -2.3999999999999994E-003     0.0000000000000000     
  -2.0999999999999977E-003     0.0000000000000000     
  -1.7999999999999995E-003     0.0000000000000000     
  -1.4999999999999979E-003     0.0000000000000000     
  -1.1999999999999997E-003     0.0000000000000000     
  -8.9999999999999976E-004     0.0000000000000000     
  -5.9999999999999810E-004     0.0000000000000000     
  -2.9999999999999992E-004     0.0000000000000000     
   0.0000000000000000          0.0000000000000000     
   3.0000000000000165E-004     0.0000000000000000     
   5.9999999999999984E-004     0.0000000000000000     
   9.0000000000000149E-004     0.0000000000000000     
   1.2000000000000031E-003     0.0000000000000000     
   1.5000000000000013E-003     0.0000000000000000     
   1.8000000000000030E-003     0.0000000000000000     
   2.1000000000000012E-003     0.0000000000000000     
   2.3999999999999994E-003     0.0000000000000000     
   2.7000000000000010E-003     0.0000000000000000     
   2.9999999999999992E-003     0.0000000000000000     
   3.3000000000000008E-003     0.0000000000000000     
   3.6000000000000025E-003     0.0000000000000000     
   3.9000000000000007E-003     0.0000000000000000     
   4.2000000000000023E-003     0.0000000000000000     
   4.5000000000000005E-003     0.0000000000000000     
   4.7999999999999987E-003     0.0000000000000000     
   5.1000000000000004E-003     0.0000000000000000     
   5.4000000000000020E-003     0.0000000000000000     
   5.7000000000000037E-003     0.0000000000000000     
   5.9999999999999984E-003     0.0000000000000000     
   6.3000000000000000E-003    -2.0253282933120536E-037
   6.6000000000000017E-003     1.1928717458503855E-036
   6.9000000000000034E-003    -2.8167777574675590E-036
   7.2000000000000015E-003     4.2248318947626157E-036
   7.5000000000000032E-003     3.6625418527813089E-036
   7.8000000000000014E-003    -2.5343768592701496E-037
   8.0999999999999996E-003     7.8715514975803590E-035
   8.4000000000000012E-003    -1.8855595322311579E-034
   8.7000000000000029E-003     2.7231975338249649E-034
   9.0000000000000011E-003     2.6702844588233093E-034
   9.2999999999999992E-003    -2.1458513236901086E-033
   9.6000000000000009E-003     1.4856154767424106E-033
   9.8999999999999991E-003     1.4648223804512170E-033
   1.0200000000000001E-002    -5.5515417279814108E-033
   1.0500000000000002E-002     9.8499311163328030E-033
   1.0800000000000004E-002    -3.0313176029112256E-033
   1.1099999999999999E-002    -2.1324373518020257E-032
   1.1400000000000000E-002     4.7510243206430873E-032
   1.1700000000000002E-002    -4.6387444999814729E-032
   1.2000000000000004E-002     6.7307204408724401E-033
   1.2300000000000002E-002     5.6701249687295806E-032
   1.2600000000000000E-002    -1.6177280365804317E-031
   1.2900000000000002E-002     4.0582575542616190E-031
   1.3200000000000000E-002    -7.8760450038754018E-031
   1.3500000000000002E-002     7.6566387556769230E-031
   1.3800000000000003E-002     8.9806907271759597E-031
   1.4100000000000001E-002    -5.1062176062163029E-030
   1.4400000000000000E-002     1.0238353946916929E-029
   1.4700000000000001E-002    -1.0733315695118791E-029
   1.4999999999999999E-002    -1.5493436575660685E-030
   1.5300000000000001E-002     3.4091998396888700E-029
   1.5600000000000003E-002    -8.9364734022655686E-029
   1.5899999999999997E-002     1.4971694407522658E-028
   1.6199999999999999E-002    -1.3453125828147846E-028
   1.6500000000000001E-002    -1.4857053570364402E-028
   1.6800000000000002E-002     9.2694433806438731E-028
   1.7100000000000004E-002    -2.0457489909636717E-027
   1.7400000000000006E-002     2.2120227501248720E-027
   1.7700000000000000E-002     1.3189261576609449E-027
   1.8000000000000002E-002    -1.0800843910892821E-026
   1.8300000000000004E-002     2.2292765765221565E-026
   1.8600000000000005E-002    -1.8962686753239917E-026
   1.8900000000000000E-002    -2.5226429049261998E-026
   1.9200000000000002E-002     1.1554999480575311E-025
   1.9500000000000003E-002    -1.8324849391449394E-025
   1.9799999999999998E-002     6.5594767699198283E-026
   2.0100000000000000E-002     3.7571308516595930E-025
   2.0400000000000001E-002    -9.6147730857985252E-025
   2.0700000000000003E-002     9.5990140923096312E-025
   2.0999999999999998E-002     5.6342892260917624E-025
   2.1299999999999999E-002    -3.4931210612180289E-024
   2.1600000000000001E-002     5.3126836111783980E-024
   2.1900000000000003E-002    -1.7859920014991469E-024
   2.2200000000000004E-002    -8.7454090875141761E-024
   2.2500000000000006E-002     1.9758253047735030E-023
   2.2800000000000001E-002    -1.6658810425318780E-023
   2.3100000000000002E-002    -1.1459950165780601E-023
   2.3400000000000004E-002     5.3309089738701725E-023
   2.3699999999999999E-002    -6.8533182201034598E-023
   2.4000000000000000E-002     1.1832484897205498E-023
   2.4300000000000002E-002     1.1204610685786481E-022
   2.4599999999999997E-002    -1.9602177284972815E-022
   2.4900000000000005E-002     5.5406921009910326E-023
   2.5200000000000000E-002     3.6340014110383422E-022
   2.5499999999999995E-002    -5.7408733796844582E-022
   2.5800000000000003E-002    -5.8691549693962064E-022
   2.6099999999999998E-002     3.4664879445808870E-021
   2.6400000000000007E-002    -3.4132505971304535E-021
   2.6700000000000002E-002    -1.1560614596032171E-020
   2.6999999999999996E-002     4.4566377461598286E-020
   2.7300000000000005E-002    -3.9777289843057257E-020
   2.7600000000000000E-002    -1.4669823008143615E-019
   2.7900000000000008E-002     5.5343669698908166E-019
   2.8200000000000003E-002    -5.6163788274605746E-019
   2.8499999999999998E-002    -1.2893549089575023E-018
   2.8800000000000006E-002     5.2332979126797191E-018
   2.9100000000000001E-002    -6.1414485467796294E-018
   2.9400000000000003E-002    -5.3956136334863566E-018
   2.9700000000000004E-002     3.0733858382593559E-017
   3.0000000000000006E-002    -5.4809760629934217E-017
   3.0300000000000001E-002     3.5793520176546374E-017
   3.0600000000000002E-002     2.0213177625781896E-016
   3.0900000000000004E-002    -9.0543089051599238E-016
   3.1199999999999999E-002     7.5935375014536588E-016
   3.1500000000000007E-002     5.4931859531855808E-015
   3.1800000000000002E-002    -1.7859893169344328E-014
   3.2099999999999997E-002     1.9417123390506534E-016
   3.2400000000000005E-002     1.0732979670449587E-013
   3.2700000000000000E-002    -1.9965471209286392E-013
   3.3000000000000002E-002    -1.5651837419217967E-013
   3.3300000000000003E-002     1.0227867974395477E-012
   3.3599999999999998E-002    -7.4070088272016427E-013
   3.3900000000000000E-002    -2.2104527316481056E-012
   3.4200000000000001E-002     2.4838766216683994E-012
   3.4500000000000003E-002     8.3031443082765969E-012
   3.4799999999999998E-002    -1.0145904219863288E-011
   3.5099999999999999E-002    -5.0964561864251216E-011
   3.5400000000000001E-002     1.3217295522739728E-010
   3.5699999999999996E-002     5.3896640753022231E-011
   3.6000000000000004E-002    -6.8192545962185354E-010
   3.6299999999999999E-002     8.9376814772276344E-010
   3.6600000000000008E-002     1.0155513697355838E-009
   3.6900000000000002E-002    -4.5567090750272666E-009
   3.7199999999999997E-002     4.0704564807865591E-009
   3.7500000000000006E-002     7.4679959629673968E-009
   3.7800000000000000E-002    -2.5989810878541268E-008
   3.8100000000000009E-002     8.5182674227513676E-009
   3.8400000000000004E-002     8.8076068377413962E-008
   3.8699999999999998E-002    -9.1514546222241358E-008
   3.9000000000000007E-002    -2.3877286963280412E-007
   3.9300000000000002E-002     2.8123073084272320E-006
   3.9600000000000003E-002     1.6502470672375487E-005
   3.9900000000000005E-002     4.3664905593240324E-005
   4.0200000000000000E-002     7.1389622245236338E-005
   4.0500000000000001E-002     8.8540750743678408E-005
   4.0800000000000003E-002     1.1186331339923232E-004
   4.1100000000000005E-002     1.6928747403389510E-004
   4.1399999999999999E-002     2.7156301196472132E-004
   4.1700000000000008E-002     4.1882760454391615E-004
   4.2000000000000003E-002     6.1759423465442128E-004
   4.2299999999999997E-002     8.9366118747181392E-004
   4.2600000000000006E-002     1.2927085441687052E-003
   4.2900000000000001E-002     1.8535143014659508E-003
   4.3200000000000002E-002     2.6028504623587206E-003
   4.3500000000000004E-002     3.5845974430795870E-003
   4.3799999999999999E-002     4.8561457527738191E-003
   4.4100000000000000E-002     6.4627947957677971E-003
   4.4400000000000002E-002     8.4308401882292553E-003
   4.4700000000000004E-002     1.0760954675049894E-002
   4.4999999999999998E-002     1.3427050508882349E-002
   4.5300000000000000E-002     1.6360196853408088E-002
   4.5600000000000002E-002     1.9398694345248969E-002
   4.5899999999999996E-002     2.2280518309433367E-002
   4.6200000000000005E-002     2.4661760531912765E-002
   4.6500000000000000E-002     2.6066902554300622E-002
   4.6799999999999994E-002     2.5844696508463424E-002
   4.7100000000000003E-002     2.3229238094751095E-002
   4.7399999999999998E-002     1.7421223248612425E-002
   4.7700000000000006E-002     7.5994046975326381E-003
   4.8000000000000001E-002    -7.0590864753072276E-003
   4.8300000000000010E-002    -2.7234936386362429E-002
   4.8600000000000004E-002    -5.3278940027720538E-002
   4.8899999999999999E-002    -8.5090247661443727E-002
   4.9200000000000008E-002   -0.12200025932846278     
   4.9500000000000002E-002   -0.16262571966252118     
   4.9800000000000011E-002   -0.20477455107674436     
   5.0100000000000006E-002   -0.24544598350270919     
   5.0400000000000000E-002   -0.28087052754072639     
   5.0700000000000009E-002   -0.30666433455921238     
   5.1000000000000004E-002   -0.31813155029230616     
   5.1299999999999998E-002   -0.31064311397390654     
   5.1600000000000007E-002   -0.28008854403470240     
   5.1900000000000002E-002   -0.22341555973186494     
   5.2200000000000010E-002   -0.13913151857189324     
   5.2500000000000005E-002    -2.7762285237610825E-002
   5.2800000000000000E-002    0.10777626968338552     
   5.3099999999999994E-002    0.26208814073548198     
   5.3400000000000003E-002    0.42738185791707850     
   5.3699999999999998E-002    0.59379491159345266     
   5.4000000000000006E-002    0.75002421280481146     
   5.4300000000000001E-002    0.88418871013482225     
   5.4599999999999996E-002    0.98477291953549195     
   5.4900000000000004E-002     1.0416804332415472     
   5.5199999999999999E-002     1.0473525118289271     
   5.5499999999999994E-002    0.99761141858768343     
   5.5800000000000002E-002    0.89213529153017368     
   5.6099999999999997E-002    0.73486258611193533     
   5.6400000000000006E-002    0.53382099434273722     
   5.6700000000000000E-002    0.30057027859160418     
   5.6999999999999995E-002     4.9370247062613837E-002
   5.7300000000000004E-002   -0.20400815467023184     
   5.7599999999999998E-002   -0.44356391107896170     
   5.7900000000000007E-002   -0.65436811284625840     
   5.8200000000000002E-002   -0.82384519710044124     
   5.8499999999999996E-002   -0.94271750656478037     
   5.8800000000000005E-002    -1.0057821570152261     
   5.9100000000000000E-002    -1.0121532135228000     
   5.9400000000000008E-002   -0.96515528647705806     
   5.9700000000000003E-002   -0.87199760751009370     
   6.0000000000000012E-002   -0.74303555180757819     
   6.0300000000000006E-002   -0.59072707325351792     
   6.0600000000000001E-002   -0.42862305859932565     
   6.0900000000000010E-002   -0.27031209113342336     
   6.1200000000000004E-002   -0.12834440176997325     
   6.1500000000000013E-002    -1.3337922152335015E-002
   6.1800000000000008E-002     6.6645140613782794E-002
   6.2100000000000002E-002    0.10665461394611191     
   6.2399999999999997E-002    0.10506530663414169     
   6.2700000000000006E-002     6.3546034157874590E-002
   6.3000000000000000E-002    -1.3020164866234347E-002
   6.3300000000000009E-002   -0.11703880235227582     
   6.3600000000000004E-002   -0.23854984261946133     
   6.3899999999999998E-002   -0.36606422190529780     
   6.4199999999999993E-002   -0.48724894821703613     
   6.4500000000000002E-002   -0.58963687855935709     
   6.4800000000000010E-002   -0.66153379279690994     
   6.5100000000000005E-002   -0.69282838001783476     
   6.5400000000000000E-002   -0.67579491458949126     
   6.5700000000000008E-002   -0.60570542524435600     
   6.5999999999999989E-002   -0.48131053607860430     
   6.6299999999999998E-002   -0.30515397457280180     
   6.6600000000000006E-002    -8.3653989544847096E-002
   6.6900000000000001E-002    0.17307641586607142     
   6.7199999999999996E-002    0.45173828877682837     
   6.7500000000000004E-002    0.73654362488431135     
   6.7800000000000013E-002     1.0102482614758235     
   6.8099999999999994E-002     1.2552132902203126     
   6.8400000000000002E-002     1.4546947381980100     
   6.8700000000000011E-002     1.5938526587761790     
   6.8999999999999992E-002     1.6609464086226460     
   6.9300000000000000E-002     1.6483309888042124     
   6.9600000000000009E-002     1.5529371558312262     
   6.9900000000000004E-002     1.3765113965115905     
   7.0199999999999999E-002     1.1255617857733486     
   7.0500000000000007E-002    0.81101650466463393     
   7.0800000000000016E-002    0.44749509651714992     
   7.1099999999999997E-002     5.2377109203777306E-002
   7.1400000000000005E-002   -0.35535661266357038     
   7.1700000000000000E-002   -0.75608929436706429     
   7.1999999999999995E-002    -1.1308200325603028     
   7.2300000000000003E-002    -1.4621313394093298     
   7.2600000000000012E-002    -1.7347461267000714     
   7.2900000000000006E-002    -1.9366446490370390     
   7.3200000000000001E-002    -2.0591303953452869     
   7.3499999999999996E-002    -2.0969653023208585     
   7.3800000000000004E-002    -2.0490355567486369     
   7.4099999999999999E-002    -1.9175840594703115     
   7.4400000000000008E-002    -1.7082216384356024     
   7.4700000000000003E-002    -1.4298237046701310     
   7.5000000000000011E-002    -1.0937843917645451     
   7.5299999999999992E-002   -0.71361722361819491     
   7.5600000000000001E-002   -0.30472871812374119     
   7.5900000000000009E-002    0.11662751679328254     
   7.6200000000000004E-002    0.53410304003442088     
   7.6499999999999999E-002    0.93150555765273335     
   7.6800000000000007E-002     1.2935528649306032     
   7.7099999999999988E-002     1.6068336217291659     
   7.7399999999999997E-002     1.8601918623852369     
   7.7700000000000005E-002     2.0451253298654866     
   7.8000000000000014E-002     2.1561635619966095     
   7.8299999999999995E-002     2.1907555185730683     
   7.8600000000000003E-002     2.1495418864872553     
   7.8900000000000012E-002     2.0362104065169637     
   7.9199999999999993E-002     1.8568588829981327     
   7.9500000000000001E-002     1.6195617485017317     
   7.9800000000000010E-002     1.3342630066846639     
   8.0100000000000018E-002     1.0121832952163314     
   8.0399999999999999E-002    0.66544204022884879     
   8.0700000000000008E-002    0.30677609036407433     
   8.1000000000000003E-002    -5.0861256061736054E-002
   8.1299999999999997E-002   -0.39470859221877869     
   8.1600000000000006E-002   -0.71193366812448000     
   8.1900000000000014E-002   -0.99027339439305218     
   8.2199999999999995E-002    -1.2187456586845964     
   8.2500000000000004E-002    -1.3877501849540153     
   8.2799999999999999E-002    -1.4898491224772523     
   8.3100000000000007E-002    -1.5203649875329437     
   8.3400000000000002E-002    -1.4781562059680846     
   8.3700000000000011E-002    -1.3657510958737442     
   8.4000000000000005E-002    -1.1901467576274092     
   8.4300000000000000E-002   -0.96247962008652355     
   8.4599999999999995E-002   -0.69764923777116483     
   8.4900000000000003E-002   -0.41332626892128022     
   8.5199999999999998E-002   -0.12912819714952939     
   8.5500000000000007E-002    0.13495290469784194     
   8.5800000000000001E-002    0.36050539731799458     
   8.6100000000000010E-002    0.53153782356809742     
   8.6399999999999991E-002    0.63666083102619808     
   8.6699999999999999E-002    0.67000236571475957     
   8.7000000000000008E-002    0.63123546777326989     
   8.7300000000000003E-002    0.52619513847630994     
   8.7599999999999997E-002    0.36611675229404794     
   8.7900000000000006E-002    0.16642529359845928     
   8.8200000000000014E-002    -5.4122616128748038E-002
   8.8499999999999995E-002   -0.27594002447016874     
   8.8800000000000004E-002   -0.47960845715260647     
   8.9100000000000013E-002   -0.64801633310963924     
   8.9399999999999993E-002   -0.76733968704789279     
   8.9700000000000002E-002   -0.82798815474951848     
   9.0000000000000011E-002   -0.82534203843460030     
   9.0299999999999991E-002   -0.75975937932375581     
   9.0600000000000000E-002   -0.63606689185547149     
   9.0900000000000009E-002   -0.46262536169971957     
   9.1200000000000017E-002   -0.25125984850529182     
   9.1499999999999998E-002    -1.5315696759195013E-002
   9.1800000000000007E-002    0.23054322559999404     
   9.2100000000000001E-002    0.47174971081691908     
   9.2399999999999996E-002    0.69474835720501904     
   9.2700000000000005E-002    0.88707086150426684     
   9.3000000000000013E-002     1.0378093750129649     
   9.3300000000000008E-002     1.1387651237185126     
   9.3600000000000003E-002     1.1841370253656232     
   9.3899999999999997E-002     1.1704840120389868     
   9.4200000000000006E-002     1.0975704488458384     
   9.4500000000000001E-002    0.96753078938527382     
   9.4800000000000009E-002    0.78595725776690850     
   9.5100000000000004E-002    0.56110704364026709     
   9.5399999999999999E-002    0.30348060110597858     
   9.5699999999999993E-002     2.6157979668887117E-002
   9.6000000000000002E-002   -0.25640838757871232     
   9.6300000000000011E-002   -0.52913230897158947     
   9.6600000000000005E-002   -0.77668515621920453     
   9.6900000000000000E-002   -0.98541613150261709     
   9.7200000000000009E-002    -1.1438820549358231     
   9.7499999999999989E-002    -1.2437224398351121     
   9.7799999999999998E-002    -1.2804575282197477     
   9.8100000000000007E-002    -1.2542098308012191     
   9.8400000000000015E-002    -1.1695966749560689     
   9.8699999999999996E-002    -1.0354448941609418     
   9.9000000000000005E-002   -0.86433471447944199     
   9.9300000000000013E-002   -0.67064296526504319     
   9.9599999999999994E-002   -0.47054638742619193     
   9.9900000000000003E-002   -0.27987695657581585     
  0.10020000000000001        -0.11259964038922290     
  0.10049999999999999          2.0187045932713331E-002
  0.10080000000000000         0.11170830232597950     
  0.10110000000000001         0.15957730545963550     
  0.10140000000000000         0.16628962429403832     
  0.10170000000000000         0.13908285382448365     
  0.10200000000000001          8.9225808594578127E-002
  0.10230000000000002          3.0606586238551947E-002
  0.10260000000000000         -2.1535610068204078E-002
  0.10290000000000001         -5.1957568215437948E-002
  0.10320000000000000         -4.7447625950495301E-002
  0.10350000000000001          2.3697860503296697E-003
  0.10380000000000000         0.10318220063427183     
  0.10410000000000001         0.25575422466543829     
  0.10440000000000001         0.45499654785406152     
  0.10470000000000000         0.69061639281104259     
  0.10500000000000000         0.94759092540422363     
  0.10530000000000000          1.2068924684789366     
  0.10560000000000000          1.4473480979905347     
  0.10590000000000001          1.6469327309889086     
  0.10620000000000000          1.7850450722432414     
  0.10650000000000001          1.8436454134876787     
  0.10679999999999999          1.8096621654934417     
  0.10710000000000000          1.6759822723339997     
  0.10740000000000001          1.4420094010878266     
  0.10770000000000000          1.1149894845823352     
  0.10800000000000000         0.70945498002821150     
  0.10830000000000001         0.24621044830156158     
  0.10859999999999999        -0.24858135605305676     
  0.10890000000000000        -0.74555287448805296     
  0.10920000000000001         -1.2139390946932624     
  0.10950000000000001         -1.6242379136359091     
  0.10979999999999999         -1.9503623330936586     
  0.11009999999999999         -2.1720052170426833     
  0.11040000000000001         -2.2763446755738812     
  0.11070000000000001         -2.2580406039806360     
  0.11100000000000000         -2.1205588559763155     
  0.11130000000000000         -1.8752368568263154     
  0.11160000000000002         -1.5400490529946167     
  0.11190000000000001         -1.1379715122713958     
  0.11220000000000001        -0.69381503075944662     
  0.11250000000000000        -0.23357848621882660     
  0.11280000000000000         0.21875565360632904     
  0.11309999999999999         0.64292284491846541     
  0.11340000000000001          1.0232280488866632     
  0.11369999999999998          1.3494366938314748     
  0.11400000000000000          1.6165136974815999     
  0.11430000000000000          1.8237943306983966     
  0.11460000000000002          1.9741607015115719     
  0.11489999999999999          2.0727807233972007     
  0.11520000000000001          2.1250063400466255     
  0.11550000000000001          2.1358813637946397     
  0.11580000000000000          2.1086298340294598     
  0.11609999999999999          2.0444970443456705     
  0.11640000000000002          1.9423955889083917     
  0.11670000000000001          1.7992794139643045     
  0.11700000000000001          1.6107669953469450     
  0.11730000000000000          1.3722140588020628     
  0.11760000000000000          1.0796076119030573     
  0.11789999999999999         0.73109903943108012     
  0.11820000000000001         0.32741589114454595     
  0.11850000000000001        -0.12690464187636269     
  0.11880000000000000        -0.62312410425144926     
  0.11910000000000000         -1.1475457853332882     
  0.11940000000000002         -1.6822667773259652     
  0.11970000000000001         -2.2052313142814324     
  0.12000000000000001         -2.6911934616167343     
  0.12030000000000000         -3.1131282144273209     
  0.12060000000000000         -3.4434505521299186     
  0.12089999999999999         -3.6567954205725135     
  0.12119999999999999         -3.7318938868279634     
  0.12150000000000001         -3.6535299501832705     
  0.12180000000000001         -3.4151112977482700     
  0.12210000000000000         -3.0204941124146290     
  0.12239999999999999         -2.4842501474559913     
  0.12270000000000002         -1.8332702989912324     
  0.12300000000000001         -1.1040719319461243     
  0.12330000000000001        -0.34212574667998119     
  0.12360000000000000         0.40122045075713364     
  0.12390000000000000          1.0735929328077798     
  0.12419999999999999          1.6248919058767790     
  0.12450000000000001          2.0136013308190295     
  0.12480000000000001          2.2096688686257804     
  0.12509999999999999          2.1986671161550526     
  0.12540000000000001          1.9845181631762574     
  0.12570000000000003          1.5900338812956769     
  0.12600000000000000          1.0560031981266584     
  0.12630000000000002         0.43773786393529424     
  0.12659999999999999        -0.19840807481462075     
  0.12690000000000001        -0.78204513536322728     
  0.12719999999999998         -1.2441144996860181     
  0.12750000000000000         -1.5245358540374663     
  0.12780000000000002         -1.5783834962869945     
  0.12809999999999999         -1.3808827561849872     
  0.12840000000000001        -0.93028765877534703     
  0.12869999999999998        -0.24903306203821285     
  0.12900000000000000         0.61635742326645615     
  0.12930000000000003          1.6001989868928281     
  0.12959999999999999          2.6226199323066810     
  0.12990000000000002          3.5957887676449993     
  0.13019999999999998          4.4332423621222663     
  0.13050000000000000          5.0566315920222618     
  0.13080000000000003          5.4032022643143049     
  0.13109999999999999          5.4321691601801625     
  0.13140000000000002          5.1272873856418943     
  0.13169999999999998          4.4998229265606593     
  0.13200000000000001          3.5869218471655682     
  0.13229999999999997          2.4484664422398574     
  0.13260000000000000          1.1620883643477224     
  0.13290000000000002        -0.18406714218672160     
  0.13319999999999999         -1.4976697242703565     
  0.13350000000000001         -2.6909864047116261     
  0.13380000000000003         -3.6870611715706394     
  0.13410000000000000         -4.4260203847926993     
  0.13440000000000002         -4.8696393456234954     
  0.13469999999999999         -5.0032045202784960     
  0.13500000000000001         -4.8366113919669136     
  0.13529999999999998         -4.4021169724453841     
  0.13560000000000000         -3.7512110787882529     
  0.13590000000000002         -2.9512361414601536     
  0.13619999999999999         -2.0779629787236087     
  0.13650000000000001         -1.2104255202238647     
  0.13680000000000003        -0.42446799133315949     
  0.13710000000000000         0.21315709023343379     
  0.13740000000000002         0.64810740310358095     
  0.13769999999999999         0.84381349938160011     
  0.13800000000000001         0.78309773317684406     
  0.13829999999999998         0.46898482386060736     
  0.13860000000000000         -7.6476557705518311E-002
  0.13890000000000002        -0.81372615631902667     
  0.13919999999999999         -1.6897642964208632     
  0.13950000000000001         -2.6407442696832644     
  0.13979999999999998         -3.5974789035240229     
  0.14010000000000000         -4.4895522743125280     
  0.14040000000000002         -5.2509962877328382     
  0.14069999999999999         -5.8233919020777893     
  0.14100000000000001         -6.1587724809009821     
  0.14130000000000004         -6.2233248789263902     
  0.14160000000000000         -5.9979239167261555     
  0.14189999999999997         -5.4800136874461343     
  0.14219999999999999         -4.6813662272268441     
  0.14250000000000002         -3.6281442241239983     
  0.14279999999999998         -2.3586627995460470     
  0.14310000000000000        -0.92164037366397600     
  0.14339999999999997         0.62732427637844812     
  0.14369999999999999          2.2287350810871476     
  0.14400000000000002          3.8212980370935350     
  0.14429999999999998          5.3437509328756274     
  0.14460000000000001          6.7397195482751409     
  0.14490000000000003          7.9585382623889238     
  0.14520000000000000          8.9569411422369996     
  0.14550000000000002          9.7022663217633003     
  0.14579999999999999          10.172883646522518     
  0.14610000000000001          10.358804706106101     
  0.14640000000000003          10.263535184675586     
  0.14670000000000000          9.9024660711757182     
  0.14699999999999996          9.3044606520304463     
  0.14729999999999999          8.5077467100887674     
  0.14760000000000001          7.5577301307673004     
  0.14789999999999998          6.5056327368207238     
  0.14820000000000000          5.4032628613173390     