  -1.4999999999999999E-002     0.0000000000000000     
  -1.4700000000000000E-002     0.0000000000000000     
  -1.4400000000000000E-002     0.0000000000000000     
  -1.4100000000000000E-002     0.0000000000000000     
  -1.3800000000000000E-002     0.0000000000000000     
  -1.3500000000000000E-002     0.0000000000000000     
  -1.3200000000000000E-002     0.0000000000000000     
  -1.2899999999999998E-002     0.0000000000000000     
  -1.2600000000000000E-002    -7.3322186090376652E-038
  -1.2299999999999998E-002    -5.4804214720967016E-036
  -1.2000000000000000E-002     1.0524155654435737E-034
  -1.1699999999999999E-002    -7.9076884684404653E-034
  -1.1399999999999999E-002    -2.5659627967957079E-034
  -1.1099999999999999E-002     3.3910495368318249E-032
  -1.0799999999999999E-002    -6.6348502272714238E-032
  -1.0499999999999999E-002    -5.5835768465972881E-031
  -1.0199999999999999E-002     1.3408614945064028E-030
  -9.8999999999999991E-003     5.9066101661771713E-030
  -9.5999999999999992E-003    -9.5822708337892041E-030
  -9.2999999999999992E-003    -6.1199915423795367E-029
  -8.9999999999999993E-003     1.2992106687554786E-029
  -8.6999999999999994E-003     5.7959378114922329E-028
  -8.3999999999999995E-003     3.8500007637786930E-028
  -8.0999999999999996E-003    -4.3398965815821925E-027
  -7.7999999999999988E-003    -3.3656123656504283E-027
  -7.4999999999999997E-003     1.6019543351040425E-026
  -7.1999999999999998E-003     3.5438832526739072E-026
  -6.8999999999999981E-003    -3.7033366213661731E-027
  -6.5999999999999982E-003    -3.5944026159594915E-025
  -6.3000000000000000E-003     4.5077044401314395E-026
  -6.0000000000000001E-003     1.2727458493414553E-024
  -5.6999999999999985E-003     1.2001823227710441E-025
  -5.3999999999999986E-003     7.1766290429708163E-025
  -5.1000000000000004E-003    -1.2869654437221899E-023
  -4.7999999999999987E-003    -5.2437594714188751E-024
  -4.5000000000000005E-003     7.3935907622124747E-023
  -4.1999999999999989E-003    -7.9284292257036951E-023
  -3.8999999999999990E-003     1.1665394196112259E-022
  -3.5999999999999990E-003    -2.5508075031554016E-022
  -3.2999999999999991E-003    -6.6245463944510350E-022
  -2.9999999999999992E-003     2.8998134748152855E-021
  -2.6999999999999993E-003    -4.0715910771183386E-021
  -2.3999999999999994E-003     5.6453112378973403E-021
  -2.0999999999999977E-003    -4.9744403682222077E-021
  -1.7999999999999995E-003    -2.0874432146018711E-020
  -1.4999999999999979E-003     7.7309738401856244E-020
  -1.1999999999999997E-003    -1.4979539984422319E-019
  -8.9999999999999976E-004     2.5484388761460891E-019
  -5.9999999999999810E-004    -1.7944791022986042E-019
  -2.9999999999999992E-004    -7.1770590761165818E-019
   0.0000000000000000          2.8241134367716758E-018
   3.0000000000000165E-004    -5.4369438184096330E-018
   5.9999999999999984E-004     4.8506198833479398E-018
   9.0000000000000149E-004     8.3924540009446670E-018
   1.2000000000000031E-003    -4.0144184566069004E-017
   1.5000000000000013E-003     6.7377230123942722E-017
   1.8000000000000030E-003    -2.7537183156985020E-017
   2.1000000000000012E-003    -1.4416793440315953E-016
   2.3999999999999994E-003     3.9774569633367180E-016
   2.7000000000000010E-003    -4.1936622497818054E-016
   2.9999999999999992E-003    -2.2919128161622991E-016
   3.3000000000000008E-003     1.4844077161704726E-015
   3.6000000000000025E-003    -2.2571677202758094E-015
   3.9000000000000007E-003     8.4592005831946766E-016
   4.2000000000000023E-003     3.4222753604878601E-015
   4.5000000000000005E-003    -8.0993144063564852E-015
   4.7999999999999987E-003     7.8521766533374878E-015
   5.1000000000000004E-003     1.5232256126899345E-015
   5.4000000000000020E-003    -1.8809100176839942E-014
   5.7000000000000037E-003     3.4414259938807156E-014
   5.9999999999999984E-003    -2.9025829420822082E-014
   6.3000000000000000E-003    -1.6527709590362305E-014
   6.6000000000000017E-003     9.6527968964433177E-014
   6.9000000000000034E-003    -1.5681669780638042E-013
   7.2000000000000015E-003     9.8943544603841543E-014
   7.5000000000000032E-003     1.4516297004897018E-013
   7.8000000000000014E-003    -4.7883471958811984E-013
   8.0999999999999996E-003     5.9678615609195885E-013
   8.4000000000000012E-003    -1.5738697423684215E-013
   8.7000000000000029E-003    -8.7202730310617379E-013
   9.0000000000000011E-003     1.8791893146379886E-012
   9.2999999999999992E-003    -1.7276005682375969E-012
   9.6000000000000009E-003    -3.5061163114054699E-013
   9.8999999999999991E-003     3.6750995686068137E-012
   1.0200000000000001E-002    -5.8240974831057189E-012
   1.0500000000000002E-002     3.8094304696654938E-012
   1.0800000000000004E-002     3.2161249151463251E-012
   1.1099999999999999E-002    -1.1740277857446645E-011
   1.1400000000000000E-002     1.4931590066561770E-011
   1.1700000000000002E-002    -6.8990845311323106E-012
   1.2000000000000004E-002    -1.1714246988778862E-011
   1.2300000000000002E-002     3.0645704156985827E-011
   1.2600000000000000E-002    -3.4847046998002161E-011
   1.2900000000000002E-002     1.4653532532064360E-011
   1.3200000000000000E-002     2.7532431629898601E-011
   1.3500000000000002E-002    -7.4871576465279764E-011
   1.3800000000000003E-002     9.5117892791064125E-011
   1.4100000000000001E-002    -4.8634961085709333E-011
   1.4400000000000000E-002    -7.5497501903425180E-011
   1.4700000000000001E-002     2.1395803703229825E-010
   1.4999999999999999E-002    -2.6484870085822777E-010
   1.5300000000000001E-002     1.5721861193319705E-010
   1.5600000000000003E-002     2.4050243770250550E-010
   1.5899999999999997E-002    -9.3514886178316081E-010
   1.6199999999999999E-002     8.9893910493322548E-010
   1.6500000000000001E-002     1.1388737700403394E-009
   1.6800000000000002E-002    -2.5737904291631655E-009
   1.7100000000000004E-002    -1.6825155169521596E-009
   1.7400000000000006E-002     6.7617373300967203E-009
   1.7700000000000000E-002     3.0991106285169977E-009
   1.8000000000000002E-002    -2.8292481862463807E-008
   1.8300000000000004E-002     1.3892558350882739E-008
   1.8600000000000005E-002     1.1568633527747128E-007
   1.8900000000000000E-002    -1.0257680799753802E-007
   1.9200000000000002E-002    -3.8831001368230225E-007
   1.9500000000000003E-002     8.7983120966067728E-007
   1.9799999999999998E-002     5.0505000750232618E-006
   2.0100000000000000E-002     1.1382412867443154E-005
   2.0400000000000001E-002     1.7791315831019777E-005
   2.0700000000000003E-002     2.3746371891016513E-005
   2.0999999999999998E-002     3.1896911755460832E-005
   2.1299999999999999E-002     4.5602196757598415E-005
   2.1600000000000001E-002     6.6113108644147331E-005
   2.1900000000000003E-002     9.5137188546027309E-005
   2.2200000000000004E-002     1.3926277884740247E-004
   2.2500000000000006E-002     2.0511034880971320E-004
   2.2800000000000001E-002     2.9317852078082206E-004
   2.3100000000000002E-002     4.0501769268926459E-004
   2.3400000000000004E-002     5.4278946963617761E-004
   2.3699999999999999E-002     7.0554648651684009E-004
   2.4000000000000000E-002     8.9785521110725313E-004
   2.4300000000000002E-002     1.1159622644442151E-003
   2.4599999999999997E-002     1.3376666000346892E-003
   2.4900000000000005E-002     1.5228275404749643E-003
   2.5200000000000000E-002     1.5960479743104992E-003
   2.5499999999999995E-002     1.4508089056439045E-003
   2.5800000000000003E-002     9.4499494142565943E-004
   2.6099999999999998E-002    -1.2013937846691992E-004
   2.6400000000000007E-002    -2.0046594321292332E-003
   2.6700000000000002E-002    -5.0247104955639943E-003
   2.6999999999999996E-002    -9.5748785568097357E-003
   2.7300000000000005E-002    -1.6154321713368502E-002
   2.7600000000000000E-002    -2.5342177761929593E-002
   2.7900000000000008E-002    -3.7771376413364276E-002
   2.8200000000000003E-002    -5.4073097763193828E-002
   2.8499999999999998E-002    -7.4855013342417065E-002
   2.8800000000000006E-002   -0.10066398262675343     
   2.9100000000000001E-002   -0.13190689742760547     
   2.9400000000000003E-002   -0.16877390035828235     
   2.9700000000000004E-002   -0.21116788156281696     
   3.0000000000000006E-002   -0.25867747839368238     
   3.0300000000000001E-002   -0.31045688154955731     
   3.0600000000000002E-002   -0.36523157913193416     
   3.0900000000000004E-002   -0.42130817781301894     
   3.1199999999999999E-002   -0.47660138730780643     
   3.1500000000000007E-002   -0.52868142800808493     
   3.1800000000000002E-002   -0.57493514443325944     
   3.2099999999999997E-002   -0.61263766636357375     
   3.2400000000000005E-002   -0.63920938373891800     
   3.2700000000000000E-002   -0.65231748992318184     
   3.3000000000000002E-002   -0.65010979191552354     
   3.3300000000000003E-002   -0.63122771729461247     
   3.3599999999999998E-002   -0.59502328869482446     
   3.3900000000000000E-002   -0.54158944848729784     
   3.4200000000000001E-002   -0.47159146936021090     
   3.4500000000000003E-002   -0.38649608807833402     
   3.4799999999999998E-002   -0.28825344220401128     
   3.5099999999999999E-002   -0.17925247963648772     
   3.5400000000000001E-002    -6.2259105302022527E-002
   3.5699999999999996E-002     5.9809661662059102E-002
   3.6000000000000004E-002    0.18383038800912987     
   3.6299999999999999E-002    0.30669640278999905     
   3.6600000000000008E-002    0.42524957707045924     
   3.6900000000000002E-002    0.53631573057471948     
   3.7199999999999997E-002    0.63690321415762852     
   3.7500000000000006E-002    0.72421246329548272     
   3.7800000000000000E-002    0.79594106841193446     
   3.8100000000000009E-002    0.85037552484932821     
   3.8400000000000004E-002    0.88680987114582333     
   3.8699999999999998E-002    0.90582632936359730     
   3.9000000000000007E-002    0.90963034859934955     
   3.9300000000000002E-002    0.90227405532668858     
   3.9600000000000003E-002    0.88950555728050906     
   3.9900000000000005E-002    0.87889723388272722     
   4.0200000000000000E-002    0.87908157475563797     
   4.0500000000000001E-002    0.89929777986080750     
   4.0800000000000003E-002    0.94820530674984149     
   4.1100000000000005E-002     1.0328896054584034     
   4.1399999999999999E-002     1.1576345396000469     
   4.1700000000000008E-002     1.3228749449043882     
   4.2000000000000003E-002     1.5244205253238190     
   4.2299999999999997E-002     1.7526636330353629     
   4.2600000000000006E-002     1.9930206625524676     
   4.2900000000000001E-002     2.2261306555856852     
   4.3200000000000002E-002     2.4292645699530269     
   4.3500000000000004E-002     2.5777169803330180     
   4.3799999999999999E-002     2.6467149608680760     
   4.4100000000000000E-002     2.6140061330068298     
   4.4400000000000002E-002     2.4615108092484137     
   4.4700000000000004E-002     2.1777166429639525     
   4.4999999999999998E-002     1.7592093148420287     
   4.5300000000000000E-002     1.2113755647876856     
   4.5600000000000002E-002    0.54932015106436538     
   4.5899999999999996E-002   -0.20299355188894266     
   4.6200000000000005E-002    -1.0136653041281536     
   4.6500000000000000E-002    -1.8449564892553889     
   4.6799999999999994E-002    -2.6550846883051373     
   4.7100000000000003E-002    -3.4016035853896347     
   4.7399999999999998E-002    -4.0442263470874469     
   4.7700000000000006E-002    -4.5472958968304908     
   4.8000000000000001E-002    -4.8833323893192286     
   4.8300000000000010E-002    -5.0343019455531319     
   4.8600000000000004E-002    -4.9939234267968100     
   4.8899999999999999E-002    -4.7681480923712627     
   4.9200000000000008E-002    -4.3744116221078952     
   4.9500000000000002E-002    -3.8421671586756272     
   4.9800000000000011E-002    -3.2084604724823080     
   5.0100000000000006E-002    -2.5179488622280011     
   5.0400000000000000E-002    -1.8170186547748490     
   5.0700000000000009E-002    -1.1520810130488157     
   5.1000000000000004E-002   -0.56472861976889266     
   5.1299999999999998E-002    -8.8672070832578886E-002
   5.1600000000000007E-002    0.25259941958561211     
   5.1900000000000002E-002    0.44918552672562484     
   5.2200000000000010E-002    0.50360581431239682     
   5.2500000000000005E-002    0.43288700027620741     
   5.2800000000000000E-002    0.26481733639383637     
   5.3099999999999994E-002     3.7317907876997458E-002
   5.3400000000000003E-002   -0.20686148728989939     
   5.3699999999999998E-002   -0.42282760230376920     
   5.4000000000000006E-002   -0.56851703072870441     
   5.4300000000000001E-002   -0.60909542652571491     
   5.4599999999999996E-002   -0.51953146536573935     
   5.4900000000000004E-002   -0.28845713560089520     
   5.5199999999999999E-002     8.2347343470492856E-002
   5.5499999999999994E-002    0.57572328271807138     
   5.5800000000000002E-002     1.1629080239028697     
   5.6099999999999997E-002     1.8048849444431734     
   5.6400000000000006E-002     2.4564892281953599     
   5.6700000000000000E-002     3.0713522038117698     
   5.6999999999999995E-002     3.6053696807632045     
   5.7300000000000004E-002     4.0217087208797935     
   5.7599999999999998E-002     4.2938722550394957     
   5.7900000000000007E-002     4.4078028139834542     
   5.8200000000000002E-002     4.3630132507887351     
   5.8499999999999996E-002     4.1722540225603257     
   5.8800000000000005E-002     3.8595555068613541     
   5.9100000000000000E-002     3.4569312220756192     
   5.9400000000000008E-002     3.0017092507500251     
   5.9700000000000003E-002     2.5317472751770116     
   6.0000000000000012E-002     2.0819591727470170     
   6.0300000000000006E-002     1.6813844873442423     
   6.0600000000000001E-002     1.3495268455255853     
   6.0900000000000010E-002     1.0964158513479636     
   6.1200000000000004E-002    0.92135181023091373     
   6.1500000000000013E-002    0.81415852232144847     
   6.1800000000000008E-002    0.75668549989031331     
   6.2100000000000002E-002    0.72554806601301991     
   6.2399999999999997E-002    0.69513646551313291     
   6.2700000000000006E-002    0.63968366297257229     
   6.3000000000000000E-002    0.53763058085813786     
   6.3300000000000009E-002    0.37212883273476172     
   6.3600000000000004E-002    0.13456197272974404     
   6.3899999999999998E-002   -0.17664410732592484     
   6.4199999999999993E-002   -0.55419267299074604     
   6.4500000000000002E-002   -0.98424626028713358     
   6.4800000000000010E-002    -1.4474113696875199     
   6.5100000000000005E-002    -1.9195636689431086     
   6.5400000000000000E-002    -2.3766709983947729     
   6.5700000000000008E-002    -2.7945467425111423     
   6.5999999999999989E-002    -3.1532616440985342     
   6.6299999999999998E-002    -3.4375417744746568     
   6.6600000000000006E-002    -3.6389141727237897     
   6.6900000000000001E-002    -3.7566012541715885     
   6.7199999999999996E-002    -3.7963541071396651     
   6.7500000000000004E-002    -3.7718381604899802     
   6.7800000000000013E-002    -3.7013969758224361     
   6.8099999999999994E-002    -3.6081690421144641     
   6.8400000000000002E-002    -3.5161328985799933     
   6.8700000000000011E-002    -3.4499301679891055     
   6.8999999999999992E-002    -3.4301410869353774     
   6.9300000000000000E-002    -3.4734311734217771     
   6.9600000000000009E-002    -3.5887299332402085     
   6.9900000000000004E-002    -3.7764828232151268     
   7.0199999999999999E-002    -4.0273280731683556     
   7.0500000000000007E-002    -4.3214495322190398     
   7.0800000000000016E-002    -4.6279450136040232     
   7.1099999999999997E-002    -4.9072319706733545     
   7.1400000000000005E-002    -5.1106642042101322     
   7.1700000000000000E-002    -5.1843695754233643     
   7.1999999999999995E-002    -5.0728028740215256     
   7.2300000000000003E-002    -4.7220152192574290     
   7.2600000000000012E-002    -4.0856990614146582     
   7.2900000000000006E-002    -3.1315767310624754     
   7.3200000000000001E-002    -1.8454430836134645     
   7.3499999999999996E-002   -0.23830804680080853     
   7.3800000000000004E-002     1.6499200285075690     
   7.4099999999999999E-002     3.7483701332096766     
   7.4400000000000008E-002     5.9540026163504738     
   7.4700000000000003E-002     8.1363798189685497     
   7.5000000000000011E-002     10.142304657407593     
   7.5299999999999992E-002     11.806755989325305     
   7.5600000000000001E-002     12.965905393217977     
   7.5900000000000009E-002     13.470402739814638     
   7.6200000000000004E-002     13.201928005730469     
   7.6499999999999999E-002     12.088541545038685     
   7.6800000000000007E-002     10.115056637972460     
   7.7099999999999988E-002     7.3347520145482310     
   7.7399999999999997E-002     3.8690176109879921     
   7.7700000000000005E-002    -9.4055970635645636E-002
   7.8000000000000014E-002    -4.3079474179746544     
   7.8299999999999995E-002    -8.4876105224694012     
   7.8600000000000003E-002    -12.325111948139215     
   7.8900000000000012E-002    -15.517711928653734     
   7.9199999999999993E-002    -17.791589186779447     
   7.9500000000000001E-002    -18.925464191075168     
   7.9800000000000010E-002    -18.771469025881615     
   8.0100000000000018E-002    -17.271140409626881     
   8.0399999999999999E-002    -14.459753483154202     
   8.0700000000000008E-002    -10.469361929364965     
   8.1000000000000003E-002    -5.5176830481442902     
   8.1299999999999997E-002    0.10764083710086680     
   8.1600000000000006E-002     6.0681043897097009     
   8.1900000000000014E-002     12.005663915362753     
   8.2199999999999995E-002     17.561651372221405     
   8.2500000000000004E-002     22.410273863374659     
   8.2799999999999999E-002     26.275298805967179     
   8.3100000000000007E-002     28.951346815153116     
   8.3400000000000002E-002     30.310777551771451     
   8.3700000000000011E-002     30.311598397604001     
   8.4000000000000005E-002     28.992236069965578     
   8.4300000000000000E-002     26.462532563850502     
   8.4599999999999995E-002     22.894541873666217     
   8.4900000000000003E-002     18.498534281829954     
   8.5199999999999998E-002     13.514867532637304     
   8.5500000000000007E-002     8.1873785362936946     
   8.5800000000000001E-002     2.7557846208434276     
   8.6100000000000010E-002    -2.5630897708254388     
   8.6399999999999991E-002    -7.5814256947893632     
   8.6699999999999999E-002    -12.146189992975319     
   8.7000000000000008E-002    -16.143099745361479     
   8.7300000000000003E-002    -19.493127823495541     
   8.7599999999999997E-002    -22.151726590781948     
   8.7900000000000006E-002    -24.101434714525389     
   8.8200000000000014E-002    -25.349643880182349     
   8.8499999999999995E-002    -25.918980421147289     
   8.8800000000000004E-002    -25.846167218940529     
   8.9100000000000013E-002    -25.176134841591587     
   8.9399999999999993E-002    -23.960066153638852     
   8.9700000000000002E-002    -22.254523160013605     
   9.0000000000000011E-002    -20.120502367185743     
   9.0299999999999991E-002    -17.624265717359226     
   9.0600000000000000E-002    -14.836299216028006     
   9.0900000000000009E-002    -11.836661370989226     
   9.1200000000000017E-002    -8.7055354302618184     
   9.1499999999999998E-002    -5.5333300988426917     
   9.1800000000000007E-002    -2.4072167295714726     
   9.2100000000000001E-002    0.58336857101646178     
   9.2399999999999996E-002     3.3576647837509430     
   9.2700000000000005E-002     5.8425279068768745     
   9.3000000000000013E-002     7.9800780622115504     
   9.3300000000000008E-002     9.7309814736509548     
   9.3600000000000003E-002     11.075386916224902     
   9.3899999999999997E-002     12.015161936080526     
   9.4200000000000006E-002     12.573020836684652     
   9.4500000000000001E-002     12.788575824928278     
   9.4800000000000009E-002     12.714077526982768     
   9.5100000000000004E-002     12.412828980099727     
   9.5399999999999999E-002     11.945743172364899     
   9.5699999999999993E-002     11.375038097564927     
   9.6000000000000002E-002     10.750018153677539     
   9.6300000000000011E-002     10.110283294104793     
   9.6600000000000005E-002     9.4783163943220359     
   9.6900000000000000E-002     8.8619625531784258     
   9.7200000000000009E-002     8.2546825187207169     
   9.7499999999999989E-002     7.6373244073190296     
   9.7799999999999998E-002     6.9865440201214035     
   9.8100000000000007E-002     6.2715292710991761     
   9.8400000000000015E-002     5.4696597564986673     
   9.8699999999999996E-002     4.5592345923467708     
   9.9000000000000005E-002     3.5331526409091927     
   9.9300000000000013E-002     2.3963594511611350     
   9.9599999999999994E-002     1.1647588213263802     
   9.9900000000000003E-002   -0.12690713847110691     
  0.10020000000000001         -1.4397239883702786     
  0.10049999999999999         -2.7211690043575327     
  0.10080000000000000         -3.9190348004479918     
  0.10110000000000001         -4.9808953326338345     
  0.10140000000000000         -5.8594530334182737     
  0.10170000000000000         -6.5181854650623778     
  0.10200000000000001         -6.9326495406931272     
  0.10230000000000002         -7.0945482591567686     
  0.10260000000000000         -7.0111636539010114     
  0.10290000000000001         -6.7046202606342113     
  0.10320000000000000         -6.2116672803991113     
  0.10350000000000001         -5.5775320597631257     
  0.10380000000000000         -4.8553499956040316     
  0.10410000000000001         -4.0997599066559660     
  0.10440000000000001         -3.3613882479277057     
  0.10470000000000000         -2.6871076629072661     
  0.10500000000000000         -2.1105923685664658     
  0.10530000000000000         -1.6558363992288050     
  0.10560000000000000         -1.3304126754972401     
  0.10590000000000001         -1.1304907663784343     
  0.10620000000000000         -1.0382978199818469     
  0.10650000000000001         -1.0276569043353756     
  0.10679999999999999         -1.0637491516340600     
  0.10710000000000000         -1.1106389037668500     
  0.10740000000000001         -1.1317988905810346     
  0.10770000000000000         -1.0945781085104418     
  0.10800000000000000        -0.97577086088520204     
  0.10830000000000001        -0.75912222104412264     
  0.10859999999999999        -0.44163520842715065     
  0.10890000000000000         -3.0304503098553148E-002
  0.10920000000000001         0.45802466650278384     
  0.10950000000000001         0.99615504307490454     
  0.10979999999999999          1.5514691943488905     
  0.11009999999999999          2.0881033466661330     
  0.11040000000000001          2.5677795626681927     
  0.11070000000000001          2.9574844965355869     
  0.11100000000000000          3.2279701217007064     
  0.11130000000000000          3.3571483489756759     
  0.11160000000000002          3.3339172886658837     
  0.11190000000000001          3.1558728319434768     
  0.11220000000000001          2.8326227782502036     
  0.11250000000000000          2.3834888545445256     
  0.11280000000000000          1.8379138057329629     
  0.11309999999999999          1.2312142241401778     
  0.11340000000000001         0.60517546701003988     
  0.11369999999999998          2.2633234165422844E-003
  0.11400000000000000        -0.53497163091624989     
  0.11430000000000000        -0.96808968999685996     
  0.11460000000000002         -1.2671953864105632     
  0.11489999999999999         -1.4106976398020206     
  0.11520000000000001         -1.3900882015503702     
  0.11550000000000001         -1.2104001135831157     
  0.11580000000000000        -0.88883729823468771     
  0.11609999999999999        -0.45632458822418098     
  0.11640000000000002          4.6699427020987588E-002
  0.11670000000000001         0.57335522257852523     
  0.11700000000000001          1.0704413932367329     
  0.11730000000000000          1.4918912615266109     
  0.11760000000000000          1.7912805212294467     
  0.11789999999999999          1.9365788697257948     
  0.11820000000000001          1.9074920303904310     
  0.11850000000000001          1.6974434605695556     
  0.11880000000000000          1.3201013008993236     
  0.11910000000000000         0.79880425589058091     
  0.11940000000000002         0.17572076727190578     
  0.11970000000000001        -0.50294624707023428     
  0.12000000000000001         -1.1814194517485104     
  0.12030000000000000         -1.8079410064666732     
  0.12060000000000000         -2.3323415912315739     
  0.12089999999999999         -2.7153014212614810     
  0.12119999999999999         -2.9299419729500986     
  0.12150000000000001         -2.9621806462884157     
  0.12180000000000001         -2.8159649478026521     
  0.12210000000000000         -2.5079826649497363     
  0.12239999999999999         -2.0674321544309566     
  0.12270000000000002         -1.5346408183831959     
  0.12300000000000001        -0.95253414958292448     
  0.12330000000000001        -0.36840472820363090     
  0.12360000000000000         0.17384870907706540     
  0.12390000000000000         0.63978195627812506     
  0.12419999999999999         0.99748012913326300     
  0.12450000000000001          1.2346451185135285     
  0.12480000000000001          1.3428404305412711     
  0.12509999999999999          1.3304690687290863     
  0.12540000000000001          1.2144246459229171     
  0.12570000000000003          1.0184037929119147     
  0.12600000000000000         0.77412187771718144     
  0.12630000000000002         0.51245344289463701     
  0.12659999999999999         0.26631711686301657     
  0.12690000000000001          6.0876903759682716E-002
  0.12719999999999998         -7.9769466223959473E-002
  0.12750000000000000        -0.14593464641474785     
  0.12780000000000002        -0.12922589757075487     
  0.12809999999999999         -3.6340685476099824E-002
  0.12840000000000001         0.12193678649298659     
  0.12869999999999998         0.32868196834904989     
  0.12900000000000000         0.55883999343675228     
  0.12930000000000003         0.79149120501675607     
  0.12959999999999999         0.99952403421828029     
  0.12990000000000002          1.1654846219092565     
  0.13019999999999998          1.2698893930995885     
  0.13050000000000000          1.3058505497902502     
  0.13080000000000003          1.2671710391144515     
  0.13109999999999999          1.1589569336289485     
  0.13140000000000002         0.99080090149369404     
  0.13169999999999998         0.77606594557392949     
  0.13200000000000001         0.53628068130167261     
  0.13229999999999997         0.28734101294117703     
  0.13260000000000000          5.3701245410377241E-002
  0.13290000000000002        -0.15052070959519215     
  0.13319999999999999        -0.30922222894549684     
  0.13350000000000001        -0.41400317782216384     
  0.13380000000000003        -0.46158496075534716     
  0.13410000000000000        -0.45313451991721021     
  0.13440000000000002        -0.39706412402676694     
  0.13469999999999999        -0.30353646938863876     
  0.13500000000000001        -0.18851784264490079     
  0.13529999999999998         -6.7300233476389193E-002
  0.13560000000000000          4.4197590576276355E-002
  0.13590000000000002         0.13137889350374465     
  0.13619999999999999         0.18469077694415970     
  0.13650000000000001         0.19451894738125447     
  0.13680000000000003         0.16074414492265185     
  0.13710000000000000          8.2236253500855200E-002
  0.13740000000000002         -3.5090552256527498E-002
  0.13769999999999999        -0.18204756748164358     
  0.13800000000000001        -0.35006847823219717     
  0.13829999999999998        -0.52546248446047206     
  0.13860000000000000        -0.69819702095858727     
  0.13890000000000002        -0.85773681116787448     
  0.13919999999999999        -0.99370089411156459     
  0.13950000000000001         -1.1019804905724515     
  0.13979999999999998         -1.1755581477819992     
  0.14010000000000000         -1.2145753416193008     
  0.14040000000000002         -1.2190552150379779     
  0.14069999999999999         -1.1910811863648281     
  0.14100000000000001         -1.1366587905328360     
  0.14130000000000004         -1.0592835861093559     
  0.14160000000000000        -0.96627358007630382     
  0.14189999999999997        -0.86197153534818005     
  0.14219999999999999        -0.75235649936827487     
  0.14250000000000002        -0.64083542405417626     
  0.14279999999999998        -0.52955474136655900     
  0.14310000000000000        -0.42045910506941575     
  0.14339999999999997        -0.31087645654198720     
  0.14369999999999999        -0.20171422908424874     
  0.14400000000000002         -8.7708543981623047E-002
  0.14429999999999998          3.1681308826986915E-002
  0.14460000000000001         0.15947385423505778     
  0.14490000000000003         0.29717522833070287     
  0.14520000000000000         0.44317343171301982     
  0.14550000000000002         0.59697304656952355     
  0.14579999999999999         0.75309107991481561     
  0.14610000000000001         0.90650543843616482     
  0.14640000000000003          1.0505148221657146     
  0.14670000000000000          1.1777876192154244     
  0.14699999999999996          1.2800070442699525     
  0.14729999999999999          1.3518666275099658     
  0.14760000000000001          1.3873278670282696     
  0.14789999999999998          1.3831898770828444     
  0.14820000000000000          1.3396089314276241     