  -1.4999999999999999E-002     0.0000000000000000     
  -1.4700000000000000E-002     0.0000000000000000     
  -1.4400000000000000E-002     0.0000000000000000     
  -1.4100000000000000E-002     0.0000000000000000     
  -1.3800000000000000E-002     0.0000000000000000     
  -1.3500000000000000E-002     0.0000000000000000     
  -1.3200000000000000E-002     0.0000000000000000     
  -1.2899999999999998E-002     0.0000000000000000     
  -1.2600000000000000E-002     0.0000000000000000     
  -1.2299999999999998E-002     0.0000000000000000     
  -1.2000000000000000E-002     0.0000000000000000     
  -1.1699999999999999E-002     0.0000000000000000     
  -1.1399999999999999E-002     0.0000000000000000     
  -1.1099999999999999E-002     0.0000000000000000     
  -1.0799999999999999E-002     0.0000000000000000     
  -1.0499999999999999E-002     0.0000000000000000     
  -1.0199999999999999E-002     0.0000000000000000     
  -9.8999999999999991E-003     0.0000000000000000     
  -9.5999999999999992E-003     0.0000000000000000     
  -9.2999999999999992E-003     0.0000000000000000     
  -8.9999999999999993E-003     0.0000000000000000     
  -8.6999999999999994E-003     0.0000000000000000     
  -8.3999999999999995E-003     0.0000000000000000     
  -8.0999999999999996E-003     0.0000000000000000     
  -7.7999999999999988E-003     0.0000000000000000     
  -7.4999999999999997E-003     0.0000000000000000     
  -7.1999999999999998E-003     0.0000000000000000     
  -6.8999999999999981E-003     0.0000000000000000     
  -6.5999999999999982E-003     0.0000000000000000     
  -6.3000000000000000E-003     0.0000000000000000     
  -6.0000000000000001E-003     0.0000000000000000     
  -5.6999999999999985E-003     0.0000000000000000     
  -5.3999999999999986E-003     0.0000000000000000     
  -5.1000000000000004E-003     0.0000000000000000     
  -4.7999999999999987E-003     0.0000000000000000     
  -4.5000000000000005E-003     0.0000000000000000     
  -4.1999999999999989E-003     0.0000000000000000     
  -3.8999999999999990E-003     0.0000000000000000     
  -3.5999999999999990E-003     0.0000000000000000     
  -3.2999999999999991E-003     0.0000000000000000     
  -2.9999999999999992E-003     0.0000000000000000     
  -2.6999999999999993E-003     0.0000000000000000     
  -2.3999999999999994E-003     0.0000000000000000     
  -2.0999999999999977E-003     0.0000000000000000     
  -1.7999999999999995E-003     0.0000000000000000     
  -1.4999999999999979E-003     0.0000000000000000     
  -1.1999999999999997E-003     0.0000000000000000     
  -8.9999999999999976E-004     0.0000000000000000     
  -5.9999999999999810E-004     0.0000000000000000     
  -2.9999999999999992E-004     0.0000000000000000     
   0.0000000000000000          0.0000000000000000     
   3.0000000000000165E-004     0.0000000000000000     
   5.9999999999999984E-004     0.0000000000000000     
   9.0000000000000149E-004     0.0000000000000000     
   1.2000000000000031E-003     0.0000000000000000     
   1.5000000000000013E-003     0.0000000000000000     
   1.8000000000000030E-003     0.0000000000000000     
   2.1000000000000012E-003     0.0000000000000000     
   2.3999999999999994E-003     0.0000000000000000     
   2.7000000000000010E-003     0.0000000000000000     
   2.9999999999999992E-003     0.0000000000000000     
   3.3000000000000008E-003     0.0000000000000000     
   3.6000000000000025E-003     0.0000000000000000     
   3.9000000000000007E-003     0.0000000000000000     
   4.2000000000000023E-003     0.0000000000000000     
   4.5000000000000005E-003     0.0000000000000000     
   4.7999999999999987E-003     0.0000000000000000     
   5.1000000000000004E-003     0.0000000000000000     
   5.4000000000000020E-003     0.0000000000000000     
   5.7000000000000037E-003     0.0000000000000000     
   5.9999999999999984E-003     0.0000000000000000     
   6.3000000000000000E-003     7.9587816361344767E-036
   6.6000000000000017E-003    -2.2309634368859752E-035
   6.9000000000000034E-003    -9.1695743511635038E-035
   7.2000000000000015E-003     3.0549993670879061E-034
   7.5000000000000032E-003    -6.3172012790742094E-034
   7.8000000000000014E-003     2.2172094327610575E-033
   8.0999999999999996E-003    -4.2223476051729013E-033
   8.4000000000000012E-003     4.8446013903674617E-033
   8.7000000000000029E-003     4.0456245340299654E-035
   9.0000000000000011E-003    -1.4977065527425624E-032
   9.2999999999999992E-003     3.2944577782102340E-032
   9.6000000000000009E-003    -2.1721428325147591E-032
   9.8999999999999991E-003    -5.7207661595043204E-032
   1.0200000000000001E-002     1.9236234134876241E-031
   1.0500000000000002E-002    -2.4916392759826688E-031
   1.0800000000000004E-002    -8.6346790723538023E-033
   1.1099999999999999E-002     7.0775433631312448E-031
   1.1400000000000000E-002    -1.5715386714735957E-030
   1.1700000000000002E-002     1.8094396820963657E-030
   1.2000000000000004E-002    -3.3982999292814347E-031
   1.2300000000000002E-002    -3.8733644404791604E-030
   1.2600000000000000E-002     1.1386593337235349E-029
   1.2900000000000002E-002    -2.0364770860134386E-029
   1.3200000000000000E-002     2.1488016811874248E-029
   1.3500000000000002E-002     6.9328882574246973E-030
   1.3800000000000003E-002    -9.0615161951062069E-029
   1.4100000000000001E-002     2.2352619844135268E-028
   1.4400000000000000E-002    -3.1319927248436970E-028
   1.4700000000000001E-002     1.5316510998183927E-028
   1.4999999999999999E-002     5.1800286251123274E-028
   1.5300000000000001E-002    -1.8341745831631530E-027
   1.5600000000000003E-002     3.4507530365674909E-027
   1.5899999999999997E-002    -3.9190090261299841E-027
   1.6199999999999999E-002    -1.0647806741382052E-028
   1.6500000000000001E-002     1.3544146714360420E-026
   1.6800000000000002E-002    -3.8057175715263766E-026
   1.7100000000000004E-002     5.9169949128322941E-026
   1.7400000000000006E-002    -3.0125255013586195E-026
   1.7700000000000000E-002    -1.2118097261255035E-025
   1.8000000000000002E-002     4.1454004997486998E-025
   1.8300000000000004E-002    -6.4956897237012279E-025
   1.8600000000000005E-002     2.7115389342415203E-025
   1.8900000000000000E-002     1.3798431559076773E-024
   1.9200000000000002E-002    -4.0577514012265042E-024
   1.9500000000000003E-002     5.1788403575645519E-024
   1.9799999999999998E-002     1.6467657931536262E-025
   2.0100000000000000E-002    -1.4931319220527663E-023
   2.0400000000000001E-002     3.1485739593180239E-023
   2.0700000000000003E-002    -2.6289456260325995E-023
   2.0999999999999998E-002    -2.7280698353217785E-023
   2.1299999999999999E-002     1.2103463919443151E-022
   2.1600000000000001E-002    -1.7381438235015928E-022
   2.1900000000000003E-002     5.3345387209328317E-023
   2.2200000000000004E-002     2.9660032951408715E-022
   2.2500000000000006E-002    -6.8274388863693798E-022
   2.2800000000000001E-002     6.3794884010298264E-022
   2.3100000000000002E-002     2.5668027141988978E-022
   2.3400000000000004E-002    -1.7739756949755665E-021
   2.3699999999999999E-002     2.6722015664977001E-021
   2.4000000000000000E-002    -1.2763451972411263E-021
   2.4300000000000002E-002    -2.7223671485436780E-021
   2.4599999999999997E-002     6.3296970887892474E-021
   2.4900000000000005E-002    -4.1672923838045926E-021
   2.5200000000000000E-002    -4.2657792829503400E-021
   2.5499999999999995E-002     3.6612441538006731E-021
   2.5800000000000003E-002     3.0793388006933072E-020
   2.6099999999999998E-002    -7.1957967457549247E-020
   2.6400000000000007E-002    -6.3464112334235725E-020
   2.6700000000000002E-002     6.3216823488875700E-019
   2.6999999999999996E-002    -1.2066372426980024E-018
   2.7300000000000005E-002    -6.4716494562590191E-019
   2.7600000000000000E-002     8.3263373264351375E-018
   2.7900000000000008E-002    -1.6949924012218741E-017
   2.8200000000000003E-002    -1.1064250751480310E-018
   2.8499999999999998E-002     8.2296350973539448E-017
   2.8800000000000006E-002    -1.8490731994253150E-016
   2.9100000000000001E-002     9.3617204153773158E-017
   2.9400000000000003E-002     4.5380103670676566E-016
   2.9700000000000004E-002    -1.3771545597099661E-015
   3.0000000000000006E-002     1.9091913988538655E-015
   3.0300000000000001E-002     4.6530850303317653E-016
   3.0600000000000002E-002    -1.1581363700323962E-014
   3.0900000000000004E-002     2.6001719481292453E-014
   3.1199999999999999E-002     2.5634105795673101E-014
   3.1500000000000007E-002    -2.4456330457289420E-013
   3.1800000000000002E-002     2.8787919528901898E-013
   3.2099999999999997E-002     1.2037020719629702E-012
   3.2400000000000005E-002    -4.4448890723058222E-012
   3.2700000000000000E-002     1.6949737185642120E-012
   3.3000000000000002E-002     2.1344632709141573E-011
   3.3300000000000003E-002    -4.9150073995220302E-011
   3.3599999999999998E-002    -8.9430571073180548E-012
   3.3900000000000000E-002     2.2353542430839328E-010
   3.4200000000000001E-002    -3.3654486427620551E-010
   3.4500000000000003E-002    -2.7467241119573846E-010
   3.4799999999999998E-002     1.5533890998741040E-009
   3.5099999999999999E-002    -1.3979818345461018E-009
   3.5400000000000001E-002    -2.6456802938921600E-009
   3.5699999999999996E-002     7.4331901402213592E-009
   3.6000000000000004E-002    -2.6201820850454304E-009
   3.6299999999999999E-002    -1.4977898654607494E-008
   3.6600000000000008E-002     2.3620987035839380E-008
   3.6900000000000002E-002     4.9896477226600269E-009
   3.7199999999999997E-002    -5.3409458754089186E-008
   3.7500000000000006E-002     4.4199245969047752E-008
   3.7800000000000000E-002     4.5741704179746557E-008
   3.8100000000000009E-002    -1.3663203037265022E-007
   3.8400000000000004E-002     1.2264465389356884E-007
   3.8699999999999998E-002     2.2381017311690646E-006
   3.9000000000000007E-002     9.7046082996788765E-006
   3.9300000000000002E-002     2.3079180695747418E-005
   3.9600000000000003E-002     3.5331289546756496E-005
   3.9900000000000005E-002     4.4033189383042102E-005
   4.0200000000000000E-002     5.8332446533013510E-005
   4.0500000000000001E-002     8.8623585333082793E-005
   4.0800000000000003E-002     1.4120827655538220E-004
   4.1100000000000005E-002     2.1764980665709796E-004
   4.1399999999999999E-002     3.2484382609005460E-004
   4.1700000000000008E-002     4.8499108587603712E-004
   4.2000000000000003E-002     7.1536935117996563E-004
   4.2299999999999997E-002     1.0257571599010175E-003
   4.2600000000000006E-002     1.4463801496912058E-003
   4.2900000000000001E-002     2.0199171084763047E-003
   4.3200000000000002E-002     2.7753815283034322E-003
   4.3500000000000004E-002     3.7364379665902215E-003
   4.3799999999999999E-002     4.9438331832527939E-003
   4.4100000000000000E-002     6.4526870397031803E-003
   4.4400000000000002E-002     8.3024054238925015E-003
   4.4700000000000004E-002     1.0497598848981528E-002
   4.4999999999999998E-002     1.3015543045797690E-002
   4.5300000000000000E-002     1.5830159120087724E-002
   4.5600000000000002E-002     1.8908660793446150E-002
   4.5899999999999996E-002     2.2158153298949886E-002
   4.6200000000000005E-002     2.5402087680277678E-002
   4.6500000000000000E-002     2.8439963225640210E-002
   4.6799999999999994E-002     3.1082378727036120E-002
   4.7100000000000003E-002     3.3093940543099915E-002
   4.7399999999999998E-002     3.4183003146010076E-002
   4.7700000000000006E-002     3.4082696048302205E-002
   4.8000000000000001E-002     3.2605178933469842E-002
   4.8300000000000010E-002     2.9624769814566715E-002
   4.8600000000000004E-002     2.5040526354811927E-002
   4.8899999999999999E-002     1.8834395787443385E-002
   4.9200000000000008E-002     1.1110203805942239E-002
   4.9500000000000002E-002     2.0049316531905045E-003
   4.9800000000000011E-002    -8.3462322245324468E-003
   5.0100000000000006E-002    -1.9848959289801245E-002
   5.0400000000000000E-002    -3.2502666071569021E-002
   5.0700000000000009E-002    -4.6542231186587985E-002
   5.1000000000000004E-002    -6.2449653172584663E-002
   5.1299999999999998E-002    -8.1003897661691651E-002
   5.1600000000000007E-002   -0.10322345154679563     
   5.1900000000000002E-002   -0.13034089042181099     
   5.2200000000000010E-002   -0.16366484912800017     
   5.2500000000000005E-002   -0.20432897072648520     
   5.2800000000000000E-002   -0.25312835134190986     
   5.3099999999999994E-002   -0.31009787457191734     
   5.3400000000000003E-002   -0.37436673144377425     
   5.3699999999999998E-002   -0.44385603116384742     
   5.4000000000000006E-002   -0.51515591122857096     
   5.4300000000000001E-002   -0.58347338337394994     
   5.4599999999999996E-002   -0.64284872823209915     
   5.4900000000000004E-002   -0.68645971743401490     
   5.5199999999999999E-002   -0.70713120351298209     
   5.5499999999999994E-002   -0.69791161602910656     
   5.5800000000000002E-002   -0.65283125184904289     
   5.6099999999999997E-002   -0.56764667754922737     
   5.6400000000000006E-002   -0.44038629072339569     
   5.6700000000000000E-002   -0.27197357594812344     
   5.6999999999999995E-002    -6.6501956702434167E-002
   5.7300000000000004E-002    0.16875925908648037     
   5.7599999999999998E-002    0.42370426785643905     
   5.7900000000000007E-002    0.68580907584167838     
   5.8200000000000002E-002    0.94110983476365129     
   5.8499999999999996E-002     1.1749118540143959     
   5.8800000000000005E-002     1.3732830248002228     
   5.9100000000000000E-002     1.5236872387009255     
   5.9400000000000008E-002     1.6160466616528031     
   5.9700000000000003E-002     1.6439000309855880     
   6.0000000000000012E-002     1.6043729723369187     
   6.0300000000000006E-002     1.4987109843614068     
   6.0600000000000001E-002     1.3322832534262425     
   6.0900000000000010E-002     1.1139529901682510     
   6.1200000000000004E-002    0.85569667500936897     
   6.1500000000000013E-002    0.57171499527864156     
   6.1800000000000008E-002    0.27732804334993144     
   6.2100000000000002E-002    -1.1591140810341939E-002
   6.2399999999999997E-002   -0.28022509681137475     
   6.2700000000000006E-002   -0.51514351153823534     
   6.3000000000000000E-002   -0.70536458221525256     
   6.3300000000000009E-002   -0.84317904410735978     
   6.3600000000000004E-002   -0.92408626974253938     
   6.3899999999999998E-002   -0.94730716678853666     
   6.4199999999999993E-002   -0.91562926565220415     
   6.4500000000000002E-002   -0.83525317788432396     
   6.4800000000000010E-002   -0.71541857701592970     
   6.5100000000000005E-002   -0.56730747317513897     
   6.5400000000000000E-002   -0.40391788092715381     
   6.5700000000000008E-002   -0.23856860709103198     
   6.5999999999999989E-002    -8.4499273689531168E-002
   6.6299999999999998E-002     4.6270347299502343E-002
   6.6600000000000006E-002    0.14401740841439145     
   6.6900000000000001E-002    0.20133141698550611     
   6.7199999999999996E-002    0.21447707285589704     
   6.7500000000000004E-002    0.18291818753767886     
   6.7800000000000013E-002    0.10976620542027350     
   6.8099999999999994E-002     1.7741403575695473E-003
   6.8400000000000002E-002   -0.13188356067807261     
   6.8700000000000011E-002   -0.27954703298872829     
   6.8999999999999992E-002   -0.42819761784711052     
   6.9300000000000000E-002   -0.56460415708372991     
   6.9600000000000009E-002   -0.67607306685371638     
   6.9900000000000004E-002   -0.75156562663729531     
   7.0199999999999999E-002   -0.78251146343118816     
   7.0500000000000007E-002   -0.76323883773666434     
   7.0800000000000016E-002   -0.69196938534760366     
   7.1099999999999997E-002   -0.57020192471184783     
   7.1400000000000005E-002   -0.40369754269013314     
   7.1700000000000000E-002   -0.20087630430915498     
   7.1999999999999995E-002     2.6761696417111160E-002
   7.2300000000000003E-002    0.26569190865185077     
   7.2600000000000012E-002    0.50168651373870232     
   7.2900000000000006E-002    0.71946841296941078     
   7.3200000000000001E-002    0.90559219923872003     
   7.3499999999999996E-002     1.0472224892495419     
   7.3800000000000004E-002     1.1344728394646117     
   7.4099999999999999E-002     1.1602406412695214     
   7.4400000000000008E-002     1.1207266946802883     
   7.4700000000000003E-002     1.0159944190716430     
   7.5000000000000011E-002    0.84944938546734938     
   7.5299999999999992E-002    0.62863915120906300     
   7.5600000000000001E-002    0.36349590649297470     
   7.5900000000000009E-002     6.7849679723458081E-002
   7.6200000000000004E-002   -0.24351913436040196     
   7.6499999999999999E-002   -0.55358064695005060     
   7.6800000000000007E-002   -0.84541672785755417     
   7.7099999999999988E-002    -1.1022868166774717     
   7.7399999999999997E-002    -1.3091332900945640     
   7.7700000000000005E-002    -1.4531637397292481     
   7.8000000000000014E-002    -1.5248358196952616     
   7.8299999999999995E-002    -1.5188499618683837     
   7.8600000000000003E-002    -1.4339580450984428     
   7.8900000000000012E-002    -1.2742273711516294     
   7.9199999999999993E-002    -1.0477245943157731     
   7.9500000000000001E-002   -0.76744406359241957     
   7.9800000000000010E-002   -0.44926836047849428     
   8.0100000000000018E-002   -0.11223192280441074     
   8.0399999999999999E-002    0.22392509262144467     
   8.0700000000000008E-002    0.53913832447329657     
   8.1000000000000003E-002    0.81502628892172557     
   8.1299999999999997E-002     1.0360311306839938     
   8.1600000000000006E-002     1.1906929032287403     
   8.1900000000000014E-002     1.2724902624442422     
   8.2199999999999995E-002     1.2802641365191172     
   8.2500000000000004E-002     1.2183544589700561     
   8.2799999999999999E-002     1.0965547498485384     
   8.3100000000000007E-002    0.92928605503225670     
   8.3400000000000002E-002    0.73382650940925942     
   8.3700000000000011E-002    0.53011017121835446     
   8.4000000000000005E-002    0.33819123182029365     
   8.4300000000000000E-002    0.17651157690269581     
   8.4599999999999995E-002     6.1488795457706399E-002
   8.4900000000000003E-002     4.3814811817765517E-003
   8.5199999999999998E-002     1.1671128692079721E-002
   8.5500000000000007E-002     8.3372402535273712E-002
   8.5800000000000001E-002    0.21339367058764133     
   8.6100000000000010E-002    0.38947030763244500     
   8.6399999999999991E-002    0.59434467528106050     
   8.6699999999999999E-002    0.80639386236656774     
   8.7000000000000008E-002     1.0021780741258772     
   8.7300000000000003E-002     1.1576398625884299     
   8.7599999999999997E-002     1.2496941105200690     
   8.7900000000000006E-002     1.2604031576999957     
   8.8200000000000014E-002     1.1751800787515676     
   8.8499999999999995E-002    0.98754692169102365     
   8.8800000000000004E-002    0.69814133715617299     
   8.9100000000000013E-002    0.31511038600991675     
   8.9399999999999993E-002   -0.14595366947853244     
   8.9700000000000002E-002   -0.66205358412848592     
   9.0000000000000011E-002    -1.2067974792167739     
   9.0299999999999991E-002    -1.7494863251889679     
   9.0600000000000000E-002    -2.2592103453911281     
   9.0900000000000009E-002    -2.7067909204983045     
   9.1200000000000017E-002    -3.0658459619134422     
   9.1499999999999998E-002    -3.3165669388597352     
   9.1800000000000007E-002    -3.4448239743694726     
   9.2100000000000001E-002    -3.4448859625987960     
   9.2399999999999996E-002    -3.3182814051506715     
   9.2700000000000005E-002    -3.0736999439959551     
   9.3000000000000013E-002    -2.7261223720950465     
   9.3300000000000008E-002    -2.2948625017713695     
   9.3600000000000003E-002    -1.8026806049718080     
   9.3899999999999997E-002    -1.2732158838361316     
   9.4200000000000006E-002   -0.72971945461292687     
   9.4500000000000001E-002   -0.19347495871547413     
   9.4800000000000009E-002    0.31722307572988334     
   9.5100000000000004E-002    0.78743577273850762     
   9.5399999999999999E-002     1.2065174596378949     
   9.5699999999999993E-002     1.5674809224049524     
   9.6000000000000002E-002     1.8665931221245216     
   9.6300000000000011E-002     2.1027014242573094     
   9.6600000000000005E-002     2.2769410588628780     
   9.6900000000000000E-002     2.3913519353758992     
   9.7200000000000009E-002     2.4492385352872228     
   9.7499999999999989E-002     2.4533619842250869     
   9.7799999999999998E-002     2.4071471650406231     
   9.8100000000000007E-002     2.3135015923120124     
   9.8400000000000015E-002     2.1752905804986420     
   9.8699999999999996E-002     1.9962774475778271     
   9.9000000000000005E-002     1.7794783077600158     
   9.9300000000000013E-002     1.5295076333051625     
   9.9599999999999994E-002     1.2517236433431558     
   9.9900000000000003E-002    0.95225804639718270     
  0.10020000000000001         0.63887488384342017     
  0.10049999999999999         0.31987410250057563     
  0.10080000000000000          5.3522299737283367E-003
  0.10110000000000001        -0.29500181235500683     
  0.10140000000000000        -0.57014573495083976     
  0.10170000000000000        -0.81000770128146493     
  0.10200000000000001         -1.0049363482667621     
  0.10230000000000002         -1.1464231127572970     
  0.10260000000000000         -1.2286533230209629     
  0.10290000000000001         -1.2471672402980656     
  0.10320000000000000         -1.2016112896780351     
  0.10350000000000001         -1.0933686566311149     
  0.10380000000000000        -0.92839700419357984     
  0.10410000000000001        -0.71385306223403344     
  0.10440000000000001        -0.46118363468944856     
  0.10470000000000000        -0.18237482847366449     
  0.10500000000000000         0.10909992000509273     
  0.10530000000000000         0.39988292638238188     
  0.10560000000000000         0.67668248880799253     
  0.10590000000000001         0.92865868280118002     
  0.10620000000000000          1.1463865237174484     
  0.10650000000000001          1.3228874400800652     
  0.10679999999999999          1.4546206178142418     
  0.10710000000000000          1.5388270772740889     
  0.10740000000000001          1.5763906361062527     
  0.10770000000000000          1.5679158049172861     
  0.10800000000000000          1.5161594178639686     
  0.10830000000000001          1.4222381087413274     
  0.10859999999999999          1.2887433685563086     
  0.10890000000000000          1.1155311928681870     
  0.10920000000000001         0.90373162644440630     
  0.10950000000000001         0.65331248305551670     
  0.10979999999999999         0.36470086005908275     
  0.11009999999999999          4.1109753420522255E-002
  0.11040000000000001        -0.31339308056349480     
  0.11070000000000001        -0.69068159909518223     
  0.11100000000000000         -1.0780848457676324     
  0.11130000000000000         -1.4609126004414192     
  0.11160000000000002         -1.8191025359663899     
  0.11190000000000001         -2.1306269217779339     
  0.11220000000000001         -2.3732964986683260     
  0.11250000000000000         -2.5239834727500590     
  0.11280000000000000         -2.5642583265883814     
  0.11309999999999999         -2.4804639673615467     
  0.11340000000000001         -2.2645535298908976     
  0.11369999999999998         -1.9190187267392047     
  0.11400000000000000         -1.4533200072640442     
  0.11430000000000000        -0.88672057923673231     
  0.11460000000000002        -0.24666073716312978     
  0.11489999999999999         0.43433906100617242     
  0.11520000000000001          1.1190377589939260     
  0.11550000000000001          1.7695869290818864     
  0.11580000000000000          2.3497276356477168     
  0.11609999999999999          2.8278832454224450     
  0.11640000000000002          3.1789453019654887     
  0.11670000000000001          3.3865008320435761     
  0.11700000000000001          3.4430382199467844     
  0.11730000000000000          3.3507831031448760     
  0.11760000000000000          3.1197159218322161     
  0.11789999999999999          2.7675359174626881     
  0.11820000000000001          2.3161320614281644     
  0.11850000000000001          1.7910861902134971     
  0.11880000000000000          1.2175359666490013     
  0.11910000000000000         0.62002628540404314     
  0.11940000000000002          1.9901428014350898E-002
  0.11970000000000001        -0.56645310227000156     
  0.12000000000000001         -1.1245309134034360     
  0.12030000000000000         -1.6466863163553596     
  0.12060000000000000         -2.1261365408684290     
  0.12089999999999999         -2.5592603663977673     
  0.12119999999999999         -2.9442203007864691     
  0.12150000000000001         -3.2773516121525255     
  0.12180000000000001         -3.5567579190543652     
  0.12210000000000000         -3.7793412106193482     
  0.12239999999999999         -3.9412796371444179     
  0.12270000000000002         -4.0418295712367005     
  0.12300000000000001         -4.0802502467001949     
  0.12330000000000001         -4.0604896369312371     
  0.12360000000000000         -3.9897036374777040     
  0.12390000000000000         -3.8794247936028730     
  0.12419999999999999         -3.7450558992066592     
  0.12450000000000001         -3.6039185409962440     
  0.12480000000000001         -3.4738521505012998     
  0.12509999999999999         -3.3691496828655216     
  0.12540000000000001         -3.2998304400970078     
  0.12570000000000003         -3.2672720041937828     
  0.12600000000000000         -3.2630660666002504     
  0.12630000000000002         -3.2681789564493546     
  0.12659999999999999         -3.2544644062345820     
  0.12690000000000001         -3.1837523165399966     
  0.12719999999999998         -3.0169608751666224     
  0.12750000000000000         -2.7123258229696616     
  0.12780000000000002         -2.2343213614551911     
  0.12809999999999999         -1.5590039476201445     
  0.12840000000000001        -0.67541985791935055     
  0.12869999999999998         0.40712358213876737     
  0.12900000000000000          1.6614861714602134     
  0.12930000000000003          3.0407071382245410     
  0.12959999999999999          4.4809847163898722     
  0.12990000000000002          5.9072127615460497     
  0.13019999999999998          7.2375250092053927     
  0.13050000000000000          8.3895864643254789     
  0.13080000000000003          9.2900486050343360     
  0.13109999999999999          9.8769006671243229     
  0.13140000000000002          10.107941609239875     
  0.13169999999999998          9.9626912765507480     
  0.13200000000000001          9.4438256802930010     
  0.13229999999999997          8.5783843492911611     
  0.13260000000000000          7.4137777726191683     
  0.13290000000000002          6.0153259658249700     
  0.13319999999999999          4.4612059043775059     
  0.13350000000000001          2.8354734890170130     
  0.13380000000000003          1.2253385398864709     
  0.13410000000000000        -0.28765388857648211     
  0.13440000000000002         -1.6294686892222607     
  0.13469999999999999         -2.7391581470180126     
  0.13500000000000001         -3.5711960564161718     
  0.13529999999999998         -4.0953993419641703     
  0.13560000000000000         -4.3009747954326674     
  0.13590000000000002         -4.1920070049373708     
  0.13619999999999999         -3.7892417253013719     
  0.13650000000000001         -3.1272801685079110     
  0.13680000000000003         -2.2521712142302142     
  0.13710000000000000         -1.2193440825486703     
  0.13740000000000002         -9.2174588631256438E-002
  0.13769999999999999          1.0639391262992797     
  0.13800000000000001          2.1806683697506313     
  0.13829999999999998          3.1922557337825186     
  0.13860000000000000          4.0373153495134089     
  0.13890000000000002          4.6619362473153982     
  0.13919999999999999          5.0236186472462148     
  0.13950000000000001          5.0901340805425042     
  0.13979999999999998          4.8478507268450342     
  0.14010000000000000          4.2954382112273146     
  0.14040000000000002          3.4516612679684204     
  0.14069999999999999          2.3503538777195865     
  0.14100000000000001          1.0407747492399544     
  0.14130000000000004        -0.41427174674236938     
  0.14160000000000000         -1.9421175054666506     
  0.14189999999999997         -3.4648337757703929     
  0.14219999999999999         -4.9013533839411823     
  0.14250000000000002         -6.1768102741182629     
  0.14279999999999998         -7.2224392838299103     
  0.14310000000000000         -7.9821662713606312     
  0.14339999999999997         -8.4186334301134398     
  0.14369999999999999         -8.5105542733486104     
  0.14400000000000002         -8.2615623002347895     
  0.14429999999999998         -7.6924337831556944     
  0.14460000000000001         -6.8469914872835087     
  0.14490000000000003         -5.7851395110355952     
  0.14520000000000000         -4.5801367308672178     
  0.14550000000000002         -3.3142072766319783     
  0.14579999999999999         -2.0706119223752362     
  0.14610000000000001        -0.92931840432113733     
  0.14640000000000003          4.1487773863945095E-002
  0.14670000000000000         0.79010744024851098     
  0.14699999999999996          1.2844904741207186     
  0.14729999999999999          1.5195871665156817     
  0.14760000000000001          1.5135306215077533     
  0.14789999999999998          1.3093247555468936     
  0.14820000000000000         0.96906371995960927     