  -1.4999999999999999E-002     0.0000000000000000     
  -1.4700000000000000E-002     0.0000000000000000     
  -1.4400000000000000E-002     0.0000000000000000     
  -1.4100000000000000E-002     0.0000000000000000     
  -1.3800000000000000E-002     0.0000000000000000     
  -1.3500000000000000E-002     0.0000000000000000     
  -1.3200000000000000E-002     0.0000000000000000     
  -1.2899999999999998E-002     0.0000000000000000     
  -1.2600000000000000E-002     0.0000000000000000     
  -1.2299999999999998E-002     0.0000000000000000     
  -1.2000000000000000E-002     0.0000000000000000     
  -1.1699999999999999E-002     0.0000000000000000     
  -1.1399999999999999E-002     0.0000000000000000     
  -1.1099999999999999E-002     0.0000000000000000     
  -1.0799999999999999E-002     0.0000000000000000     
  -1.0499999999999999E-002     0.0000000000000000     
  -1.0199999999999999E-002     0.0000000000000000     
  -9.8999999999999991E-003     0.0000000000000000     
  -9.5999999999999992E-003     0.0000000000000000     
  -9.2999999999999992E-003     0.0000000000000000     
  -8.9999999999999993E-003     0.0000000000000000     
  -8.6999999999999994E-003     0.0000000000000000     
  -8.3999999999999995E-003     0.0000000000000000     
  -8.0999999999999996E-003     0.0000000000000000     
  -7.7999999999999988E-003     0.0000000000000000     
  -7.4999999999999997E-003     0.0000000000000000     
  -7.1999999999999998E-003     0.0000000000000000     
  -6.8999999999999981E-003     0.0000000000000000     
  -6.5999999999999982E-003     0.0000000000000000     
  -6.3000000000000000E-003     0.0000000000000000     
  -6.0000000000000001E-003     0.0000000000000000     
  -5.6999999999999985E-003     0.0000000000000000     
  -5.3999999999999986E-003     0.0000000000000000     
  -5.1000000000000004E-003    -4.7321443180772362E-036
  -4.7999999999999987E-003    -3.4230869212344828E-035
  -4.5000000000000005E-003     1.3074827510917784E-034
  -4.1999999999999989E-003    -1.7445820769346426E-036
  -3.8999999999999990E-003    -2.3681779363333914E-035
  -3.5999999999999990E-003    -5.9450528005151849E-035
  -3.2999999999999991E-003    -8.8026384186187478E-034
  -2.9999999999999992E-003     2.2923245090706308E-032
  -2.6999999999999993E-003    -7.3030308715119526E-032
  -2.3999999999999994E-003     8.3370080562277559E-032
  -2.0999999999999977E-003     1.1634587977673430E-032
  -1.7999999999999995E-003    -2.5448291724492671E-031
  -1.4999999999999979E-003     1.2537602871222746E-030
  -1.1999999999999997E-003    -3.1647780300444898E-030
  -8.9999999999999976E-004     3.4232310649667053E-030
  -5.9999999999999810E-004    -4.4664343441232249E-030
  -2.9999999999999992E-004     1.7528045048238971E-029
   0.0000000000000000         -1.6088419734484050E-029
   3.0000000000000165E-004    -1.2542662305594651E-028
   5.9999999999999984E-004     6.6055753141342514E-028
   9.0000000000000149E-004    -1.8301952623540016E-027
   1.2000000000000031E-003     2.2692512449860566E-027
   1.5000000000000013E-003     4.6950806240810203E-027
   1.8000000000000030E-003    -2.9573955060472112E-026
   2.1000000000000012E-003     6.5220851055245730E-026
   2.3999999999999994E-003    -3.9613498141613852E-026
   2.7000000000000010E-003    -2.1587233189911525E-025
   2.9999999999999992E-003     8.1140508081845202E-025
   3.3000000000000008E-003    -1.2280866417995121E-024
   3.6000000000000025E-003    -3.0406266885724452E-025
   3.9000000000000007E-003     5.8562364035987113E-024
   4.2000000000000023E-003    -1.3509202146533979E-023
   4.5000000000000005E-003     1.1462350252536638E-023
   4.7999999999999987E-003     1.9930741405399622E-023
   5.1000000000000004E-003    -8.4681398242347648E-023
   5.4000000000000020E-003     1.3287194599276720E-022
   5.7000000000000037E-003    -5.6033611288828925E-023
   5.9999999999999984E-003    -2.3615744231960157E-022
   6.3000000000000000E-003     6.9455429649993138E-022
   6.6000000000000017E-003    -1.0620915392617803E-021
   6.9000000000000034E-003     8.4578123221620692E-022
   7.2000000000000015E-003     8.3478195921237426E-022
   7.5000000000000032E-003    -5.2365097459903276E-021
   7.8000000000000014E-003     1.2175794232950789E-020
   8.0999999999999996E-003    -1.5045446184847329E-020
   8.4000000000000012E-003    -2.5408411734506742E-021
   8.7000000000000029E-003     5.5568456190170419E-020
   9.0000000000000011E-003    -1.2510388308981627E-019
   9.2999999999999992E-003     1.2776379878724702E-019
   9.6000000000000009E-003     5.7435855038878471E-020
   9.8999999999999991E-003    -4.6700694756846408E-019
   1.0200000000000001E-002     8.8904535851740894E-019
   1.0500000000000002E-002    -8.0475048394453763E-019
   1.0800000000000004E-002    -4.1026664643393889E-019
   1.1099999999999999E-002     2.9220207195170178E-018
   1.1400000000000000E-002    -5.5573633865136993E-018
   1.1700000000000002E-002     5.1918674291701166E-018
   1.2000000000000004E-002     2.1584988744483922E-018
   1.2300000000000002E-002    -1.7198590615153295E-017
   1.2600000000000000E-002     3.1599590212309813E-017
   1.2900000000000002E-002    -2.6948062429848855E-017
   1.3200000000000000E-002    -1.4009875435928160E-017
   1.3500000000000002E-002     8.5382801488647515E-017
   1.3800000000000003E-002    -1.4253964591811513E-016
   1.4100000000000001E-002     1.1545421874853017E-016
   1.4400000000000000E-002     4.3864488187396727E-017
   1.4700000000000001E-002    -3.0733153561722107E-016
   1.4999999999999999E-002     5.5298668462112839E-016
   1.5300000000000001E-002    -5.9186274509910077E-016
   1.5600000000000003E-002     1.9852082272492887E-016
   1.5899999999999997E-002     8.4777675859460587E-016
   1.6199999999999999E-002    -2.5274622801294566E-015
   1.6500000000000001E-002     3.9365772050878439E-015
   1.6800000000000002E-002    -2.6650003174253880E-015
   1.7100000000000004E-002    -4.1387792139682906E-015
   1.7400000000000006E-002     1.5473135599248641E-014
   1.7700000000000000E-002    -2.1482224579656591E-014
   1.8000000000000002E-002     6.2859141849811159E-015
   1.8300000000000004E-002     3.4695533816032060E-014
   1.8600000000000005E-002    -7.4273833208936216E-014
   1.8900000000000000E-002     6.1157676984804176E-014
   1.9200000000000002E-002     2.9434886483518135E-014
   1.9500000000000003E-002    -1.4827737478783830E-013
   1.9799999999999998E-002     1.9876613643807838E-013
   2.0100000000000000E-002    -1.2070234581071372E-013
   2.0400000000000001E-002    -6.0277006542481412E-014
   2.0700000000000003E-002     2.1175176176396611E-013
   2.0999999999999998E-002    -2.1451177536953777E-013
   2.1299999999999999E-002     8.1102584548801375E-013
   2.1600000000000001E-002    -3.9668234428666208E-012
   2.1900000000000003E-002     6.4561269307826942E-012
   2.2200000000000004E-002     1.1290520746208108E-011
   2.2500000000000006E-002    -6.0153806223455353E-011
   2.2800000000000001E-002     5.1291936489582566E-011
   2.3100000000000002E-002     1.8091477138336000E-010
   2.3400000000000004E-002    -4.4748971683622225E-010
   2.3699999999999999E-002    -8.4030110646819171E-011
   2.4000000000000000E-002     1.5170166404560746E-009
   2.4300000000000002E-002    -1.3612339168881223E-009
   2.4599999999999997E-002    -2.5079680855427827E-009
   2.4900000000000005E-002     5.9935026448666173E-009
   2.5200000000000000E-002    -1.0355933898431413E-009
   2.5499999999999995E-002    -1.6308913488065324E-008
   2.5800000000000003E-002     1.7705058891811454E-008
   2.6099999999999998E-002     6.3652955477592953E-008
   2.6400000000000007E-002    -9.6951368602029095E-008
   2.6700000000000002E-002    -4.0200220434947063E-007
   2.6999999999999996E-002     8.7219241022493414E-007
   2.7300000000000005E-002     5.4296916111571534E-006
   2.7600000000000000E-002     1.0884608970185977E-005
   2.7900000000000008E-002     1.6055786715168953E-005
   2.8200000000000003E-002     2.6803565840020564E-005
   2.8499999999999998E-002     4.5370147310083268E-005
   2.8800000000000006E-002     6.2956264384921750E-005
   2.9100000000000001E-002     8.2090752539091950E-005
   2.9400000000000003E-002     1.3020256437269986E-004
   2.9700000000000004E-002     2.1405627418878172E-004
   3.0000000000000006E-002     3.1919509973493416E-004
   3.0300000000000001E-002     4.6280000728549250E-004
   3.0600000000000002E-002     6.5738941301450766E-004
   3.0900000000000004E-002     9.1323717291199344E-004
   3.1199999999999999E-002     1.2732764141307913E-003
   3.1500000000000007E-002     1.7649926197755908E-003
   3.1800000000000002E-002     2.4053228805841313E-003
   3.2099999999999997E-002     3.2072172371419736E-003
   3.2400000000000005E-002     4.1944492117728148E-003
   3.2700000000000000E-002     5.3933314614317074E-003
   3.3000000000000002E-002     6.7675761658073626E-003
   3.3300000000000003E-002     8.2901819548972314E-003
   3.3599999999999998E-002     9.9301795587510479E-003
   3.3900000000000000E-002     1.1556504415716493E-002
   3.4200000000000001E-002     1.3004874947268243E-002
   3.4500000000000003E-002     1.4070207401017961E-002
   3.4799999999999998E-002     1.4459477889545585E-002
   3.5099999999999999E-002     1.3847324211452834E-002
   3.5400000000000001E-002     1.1851498050436100E-002
   3.5699999999999996E-002     8.0463607710185431E-003
   3.6000000000000004E-002     2.0252249882425997E-003
   3.6299999999999999E-002    -6.5466659832029393E-003
   3.6600000000000008E-002    -1.7843118125119722E-002
   3.6900000000000002E-002    -3.1859256662226193E-002
   3.7199999999999997E-002    -4.8284505070483381E-002
   3.7500000000000006E-002    -6.6424534423504558E-002
   3.7800000000000000E-002    -8.5171029867573425E-002
   3.8100000000000009E-002   -0.10291159261232843     
   3.8400000000000004E-002   -0.11755305652286001     
   3.8699999999999998E-002   -0.12654905154279730     
   3.9000000000000007E-002   -0.12704524531429853     
   3.9300000000000002E-002   -0.11604244383938893     
   3.9600000000000003E-002    -9.0620354769341896E-002
   3.9900000000000005E-002    -4.8297115175391196E-002
   4.0200000000000000E-002     1.2680235456544314E-002
   4.0500000000000001E-002     9.3023934454881982E-002
   4.0800000000000003E-002    0.19199736619127919     
   4.1100000000000005E-002    0.30724564518943387     
   4.1399999999999999E-002    0.43467498284204481     
   4.1700000000000008E-002    0.56835491064647425     
   4.2000000000000003E-002    0.70080585026725262     
   4.2299999999999997E-002    0.82329744968740493     
   4.2600000000000006E-002    0.92635453724094841     
   4.2900000000000001E-002     1.0005281077013508     
   4.3200000000000002E-002     1.0369968523628659     
   4.3500000000000004E-002     1.0284423936533182     
   4.3799999999999999E-002    0.96976144143780518     
   4.4100000000000000E-002    0.85848713825693823     
   4.4400000000000002E-002    0.69527430074536867     
   4.4700000000000004E-002    0.48412094029582253     
   4.4999999999999998E-002    0.23198436443989848     
   4.5300000000000000E-002    -5.1548578402645789E-002
   4.5600000000000002E-002   -0.35489783066775443     
   4.5899999999999996E-002   -0.66528261411033629     
   4.6200000000000005E-002   -0.96969224046689295     
   4.6500000000000000E-002    -1.2556629313485950     
   4.6799999999999994E-002    -1.5121225278247516     
   4.7100000000000003E-002    -1.7297696057714378     
   4.7399999999999998E-002    -1.9015830955869353     
   4.7700000000000006E-002    -2.0229506706010372     
   4.8000000000000001E-002    -2.0911221724750630     
   4.8300000000000010E-002    -2.1054096443920081     
   4.8600000000000004E-002    -2.0667109707310138     
   4.8899999999999999E-002    -1.9768932074044099     
   4.9200000000000008E-002    -1.8388394311105893     
   4.9500000000000002E-002    -1.6557678158644826     
   4.9800000000000011E-002    -1.4315806778010025     
   5.0100000000000006E-002    -1.1708445672238386     
   5.0400000000000000E-002   -0.87847621172765478     
   5.0700000000000009E-002   -0.56086290471878775     
   5.1000000000000004E-002   -0.22495854136200241     
   5.1299999999999998E-002    0.12077017257405302     
   5.1600000000000007E-002    0.46703392760818285     
   5.1900000000000002E-002    0.80388147487077588     
   5.2200000000000010E-002     1.1206283687481524     
   5.2500000000000005E-002     1.4072092919822814     
   5.2800000000000000E-002     1.6540680105892409     
   5.3099999999999994E-002     1.8536217407910820     
   5.3400000000000003E-002     1.9999743910646206     
   5.3699999999999998E-002     2.0903942805109619     
   5.4000000000000006E-002     2.1245999559942299     
   5.4300000000000001E-002     2.1050040943516333     
   5.4599999999999996E-002     2.0369501328352739     
   5.4900000000000004E-002     1.9271974766526301     
   5.5199999999999999E-002     1.7841464468995909     
   5.5499999999999994E-002     1.6166882685299806     
   5.5800000000000002E-002     1.4331402929725086     
   5.6099999999999997E-002     1.2406414878158827     
   5.6400000000000006E-002     1.0448044648894432     
   5.6700000000000000E-002    0.84887010757772274     
   5.6999999999999995E-002    0.65414536693877490     
   5.7300000000000004E-002    0.45997962846623192     
   5.7599999999999998E-002    0.26427242445510452     
   5.7900000000000007E-002     6.4846352503200047E-002
   5.8200000000000002E-002   -0.14056004723922316     
   5.8499999999999996E-002   -0.35291871792532065     
   5.8800000000000005E-002   -0.57096404431467562     
   5.9100000000000000E-002   -0.79123980634072422     
   5.9400000000000008E-002    -1.0074153052078363     
   5.9700000000000003E-002    -1.2109409697887892     
   6.0000000000000012E-002    -1.3910383132409037     
   6.0300000000000006E-002    -1.5365613860814602     
   6.0600000000000001E-002    -1.6366533213589771     
   6.0900000000000010E-002    -1.6821195064710508     
   6.1200000000000004E-002    -1.6669604954393376     
   6.1500000000000013E-002    -1.5886694360853642     
   6.1800000000000008E-002    -1.4494476471738891     
   6.2100000000000002E-002    -1.2562025918512716     
   6.2399999999999997E-002    -1.0197199691209979     
   6.2700000000000006E-002   -0.75413215961846769     
   6.3000000000000000E-002   -0.47587049515048041     
   6.3300000000000009E-002   -0.20106408217077959     
   6.3600000000000004E-002     5.4773413180624848E-002
   6.3899999999999998E-002    0.27893016033240670     
   6.4199999999999993E-002    0.46237826832484963     
   6.4500000000000002E-002    0.59996832047878490     
   6.4800000000000010E-002    0.69109786283957508     
   6.5100000000000005E-002    0.73940945449721540     
   6.5400000000000000E-002    0.75090134933789632     
   6.5700000000000008E-002    0.73428685244922498     
   6.5999999999999989E-002    0.69877053040771286     
   6.6299999999999998E-002    0.65289521901589054     
   6.6600000000000006E-002    0.60391301548133214     
   6.6900000000000001E-002    0.55664033278243041     
   6.7199999999999996E-002    0.51309824523715553     
   6.7500000000000004E-002    0.47299227609616268     
   6.7800000000000013E-002    0.43384203764659279     
   6.8099999999999994E-002    0.39129993725049461     
   6.8400000000000002E-002    0.34114495273370454     
   6.8700000000000011E-002    0.27841857364605493     
   6.8999999999999992E-002    0.19957781045556774     
   6.9300000000000000E-002    0.10321638841195928     
   6.9600000000000009E-002    -1.1292057215828778E-002
   6.9900000000000004E-002   -0.14093393232181067     
   7.0199999999999999E-002   -0.28146356634913039     
   7.0500000000000007E-002   -0.42640629852279294     
   7.0800000000000016E-002   -0.56807721250486465     
   7.1099999999999997E-002   -0.69776041040584658     
   7.1400000000000005E-002   -0.80648852233774793     
   7.1700000000000000E-002   -0.88622797458817260     
   7.1999999999999995E-002   -0.92924744859928710     
   7.2300000000000003E-002   -0.93019814270337442     
   7.2600000000000012E-002   -0.88479412526498891     
   7.2900000000000006E-002   -0.79174048536314412     
   7.3200000000000001E-002   -0.65215057816847821     
   7.3499999999999996E-002   -0.46976000562085124     
   7.3800000000000004E-002   -0.25088209176027737     
   7.4099999999999999E-002    -4.0769214152917357E-003
   7.4400000000000008E-002    0.26032591140355538     
   7.4700000000000003E-002    0.53066152892430829     
   7.5000000000000011E-002    0.79509300829651675     
   7.5299999999999992E-002     1.0413051953115540     
   7.5600000000000001E-002     1.2584198845547960     
   7.5900000000000009E-002     1.4365799577919007     
   7.6200000000000004E-002     1.5682819054211596     
   7.6499999999999999E-002     1.6473713093868176     
   7.6800000000000007E-002     1.6699558671368981     
   7.7099999999999988E-002     1.6341499261092407     
   7.7399999999999997E-002     1.5390668076023495     
   7.7700000000000005E-002     1.3853765870408634     
   7.8000000000000014E-002     1.1741073253521983     
   7.8299999999999995E-002    0.90628493769489860     
   7.8600000000000003E-002    0.58437252643950111     
   7.8900000000000012E-002    0.21058713107641033     
   7.9199999999999993E-002   -0.21141596371221205     
   7.9500000000000001E-002   -0.67608106853358829     
   7.9800000000000010E-002    -1.1758912925467924     
   8.0100000000000018E-002    -1.6999232947236758     
   8.0399999999999999E-002    -2.2349171872337688     
   8.0700000000000008E-002    -2.7635271838046465     
   8.1000000000000003E-002    -3.2655606610916261     
   8.1299999999999997E-002    -3.7195976168895184     
   8.1600000000000006E-002    -4.1029897164605087     
   8.1900000000000014E-002    -4.3938465577367252     
   8.2199999999999995E-002    -4.5723920346311919     
   8.2500000000000004E-002    -4.6223745829485567     
   8.2799999999999999E-002    -4.5331902978520571     
   8.3100000000000007E-002    -4.2996736023496913     
   8.3400000000000002E-002    -3.9231374675642332     
   8.3700000000000011E-002    -3.4112966419538640     
   8.4000000000000005E-002    -2.7767877871733702     
   8.4300000000000000E-002    -2.0369124628503226     
   8.4599999999999995E-002    -1.2115017305502134     
   8.4900000000000003E-002   -0.32186204563065857     
   8.5199999999999998E-002    0.61007810247372507     
   8.5500000000000007E-002     1.5637732905223400     
   8.5800000000000001E-002     2.5203669332897642     
   8.6100000000000010E-002     3.4636896017823156     
   8.6399999999999991E-002     4.3794260483078231     
   8.6699999999999999E-002     5.2547922685162973     
   8.7000000000000008E-002     6.0773711842539573     
   8.7300000000000003E-002     6.8357344392298973     
   8.7599999999999997E-002     7.5156670407655071     
   8.7900000000000006E-002     8.1035443205956561     
   8.8200000000000014E-002     8.5823803852820859     
   8.8499999999999995E-002     8.9351969707890468     
   8.8800000000000004E-002     9.1426955234393628     
   8.9100000000000013E-002     9.1866656319708149     
   8.9399999999999993E-002     9.0493861200470018     
   8.9700000000000002E-002     8.7169791188713415     
   9.0000000000000011E-002     8.1798859506674937     
   9.0299999999999991E-002     7.4344340156055830     
   9.0600000000000000E-002     6.4855294912619188     
   9.0900000000000009E-002     5.3450809089487645     
   9.1200000000000017E-002     4.0347657629490401     
   9.1499999999999998E-002     2.5849700246524590     
   9.1800000000000007E-002     1.0338887084681800     
   9.2100000000000001E-002   -0.57295460123448427     
   9.2399999999999996E-002    -2.1848707430913579     
   9.2700000000000005E-002    -3.7483327785702745     
   9.3000000000000013E-002    -5.2097759798051131     
   9.3300000000000008E-002    -6.5167899820853004     
   9.3600000000000003E-002    -7.6249118657094401     
   9.3899999999999997E-002    -8.4975558224886196     
   9.4200000000000006E-002    -9.1096278198691305     
   9.4500000000000001E-002    -9.4495631261353292     
   9.4800000000000009E-002    -9.5212336590580176     
   9.5100000000000004E-002    -9.3432007820533496     
   9.5399999999999999E-002    -8.9486008632763081     
   9.5699999999999993E-002    -8.3821650433326038     
   9.6000000000000002E-002    -7.6988411758979964     
   9.6300000000000011E-002    -6.9557772413164667     
   9.6600000000000005E-002    -6.2119179423641393     
   9.6900000000000000E-002    -5.5195279699963224     
   9.7200000000000009E-002    -4.9225206890844069     
   9.7499999999999989E-002    -4.4511595238640442     
   9.7799999999999998E-002    -4.1186743214282906     
   9.8100000000000007E-002    -3.9217291289779772     
   9.8400000000000015E-002    -3.8400891230737786     
   9.8699999999999996E-002    -3.8389532970275226     
   9.9000000000000005E-002    -3.8735764435270790     
   9.9300000000000013E-002    -3.8934085780551877     
   9.9599999999999994E-002    -3.8479617049227306     
   9.9900000000000003E-002    -3.6933429632524297     
  0.10020000000000001         -3.3953326108605255     
  0.10049999999999999         -2.9370882823042370     
  0.10080000000000000         -2.3189511545676087     
  0.10110000000000001         -1.5608700680081697     
  0.10140000000000000        -0.70169103896550655     
  0.10170000000000000         0.20586674127478302     
  0.10200000000000001          1.0991436359088460     
  0.10230000000000002          1.9115501844472349     
  0.10260000000000000          2.5821211611432431     
  0.10290000000000001          3.0612604942272164     
  0.10320000000000000          3.3201103562057237     
  0.10350000000000001          3.3560126183031538     
  0.10380000000000000          3.1958916525196055     
  0.10410000000000001          2.8963105984104143     
  0.10440000000000001          2.5413518219064155     
  0.10470000000000000          2.2350085015329788     
  0.10500000000000000          2.0921592929925854     
  0.10530000000000000          2.2265906564719149     
  0.10560000000000000          2.7346632764315100     
  0.10590000000000001          3.6837752248808395     
  0.10620000000000000          5.0963416631987259     
  0.10650000000000001          6.9419828188840622     
  0.10679999999999999          9.1327954298362641     
  0.10710000000000000          11.523181082951627     
  0.10740000000000001          13.919398454612693     
  0.10770000000000000          16.092083147242676     
  0.10800000000000000          17.796741673741170     
  0.10830000000000001          18.794374664810057     
  0.10859999999999999          18.878771028166653     
  0.10890000000000000          17.898256491565679     
  0.10920000000000001          15.776803184014053     
  0.10950000000000001          12.528103961477401     
  0.10979999999999999          8.2608252450827049     
  0.11009999999999999          3.1770027024769218     
  0.11040000000000001         -2.4400372759374553     
  0.11070000000000001         -8.2470971023586195     
  0.11100000000000000         -13.864466813732934     
  0.11130000000000000         -18.909246644789544     
  0.11160000000000002         -23.023714309322116     
  0.11190000000000001         -25.908045089492504     
  0.11220000000000001         -27.342106155199133     
  0.11250000000000000         -27.207573225388902     
  0.11280000000000000         -25.493313105964404     
  0.11309999999999999         -22.297613380356360     
  0.11340000000000001         -17.817825506343919     
  0.11369999999999998         -12.335335862349453     
  0.11400000000000000         -6.1926022233023321     
  0.11430000000000000         0.23266223315838155     
  0.11460000000000002          6.5553050736141811     
  0.11489999999999999          12.408849847788973     
  0.11520000000000001          17.469909853284392     
  0.11550000000000001          21.477092970769338     
  0.11580000000000000          24.242386121462129     
  0.11609999999999999          25.657181058354777     
  0.11640000000000002          25.696731840036282     
  0.11670000000000001          24.410974761591316     
  0.11700000000000001          21.919533008496359     
  0.11730000000000000          18.397907452354257     
  0.11760000000000000          14.062270313775876     
  0.11789999999999999          9.1526461619620552     
  0.11820000000000001          3.9197740971809139     
  0.11850000000000001         -1.3920365718333787     
  0.11880000000000000         -6.5533920027973993     
  0.11910000000000000         -11.363176466168717     
  0.11940000000000002         -15.654573606383638     
  0.11970000000000001         -19.297579016083194     
  0.12000000000000001         -22.204803702038841     
  0.12030000000000000         -24.323818464464022     
  0.12060000000000000         -25.638057980312695     
  0.12089999999999999         -26.157881060131224     
  0.12119999999999999         -25.917801177807181     
  0.12150000000000001         -24.968076970353696     
  0.12180000000000001         -23.372606524994353     
  0.12210000000000000         -21.201147303996784     
  0.12239999999999999         -18.528442579033303     
  0.12270000000000002         -15.427548571887151     
  0.12300000000000001         -11.975947506907099     
  0.12330000000000001         -8.2513323704542749     
  0.12360000000000000         -4.3375068171264770     
  0.12390000000000000        -0.32182419655428451     
  0.12419999999999999          3.7025432977053199     
  0.12450000000000001          7.6400581213506298     
  0.12480000000000001          11.392902494734859     
  0.12509999999999999          14.864097752424559     
  0.12540000000000001          17.956678580423947     
  0.12570000000000003          20.582647541299014     
  0.12600000000000000          22.663164378500163     
  0.12630000000000002          24.140381114731351     
  0.12659999999999999          24.975498463683866     
  0.12690000000000001          25.154075888680769     
  0.12719999999999998          24.686876558167533     
  0.12750000000000000          23.603906881157865     
  0.12780000000000002          21.960321658673315     
  0.12809999999999999          19.829401225966802     
  0.12840000000000001          17.300731841929643     
  0.12869999999999998          14.475655708847434     
  0.12900000000000000          11.459073187930876     
  0.12930000000000003          8.3548518110993850     
  0.12959999999999999          5.2601681311962842     
  0.12990000000000002          2.2603268862460681     
  0.13019999999999998        -0.57005817299391093     
  0.13050000000000000         -3.1752896644345356     
  0.13080000000000003         -5.5154286013517551     
  0.13109999999999999         -7.5662413442747765     
  0.13140000000000002         -9.3212796242387981     
  0.13169999999999998         -10.787041778104916     
  0.13200000000000001         -11.978720791564905     
  0.13229999999999997         -12.919587271849194     
  0.13260000000000000         -13.633602286412874     
  0.13290000000000002         -14.143753201229631     
  0.13319999999999999         -14.468035850842522     
  0.13350000000000001         -14.619744455371016     
  0.13380000000000003         -14.607799684461080     
  0.13410000000000000         -14.432103309639222     
  0.13440000000000002         -14.089887768014304     
  0.13469999999999999         -13.572473669529757     
  0.13500000000000001         -12.871057646488879     
  0.13529999999999998         -11.977754719565821     
  0.13560000000000000         -10.892096634663273     
  0.13590000000000002         -9.6175318781418984     
  0.13619999999999999         -8.1683674722456185     
  0.13650000000000001         -6.5670829513552400     
  0.13680000000000003         -4.8426566635708816     
  0.13710000000000000         -3.0357914291469319     
  0.13740000000000002         -1.1916200048002834     
  0.13769999999999999         0.63996786561322194     
  0.13800000000000001          2.4050846354677939     
  0.13829999999999998          4.0541768503198226     
  0.13860000000000000          5.5406971564083376     
  0.13890000000000002          6.8259487874203799     
  0.13919999999999999          7.8786331056273484     
  0.13950000000000001          8.6801215135772694     
  0.13979999999999998          9.2212124845361423     
  0.14010000000000000          9.5059481671389019     
  0.14040000000000002          9.5483513886938507     
  0.14069999999999999          9.3734494245533853     
  0.14100000000000001          9.0157137869116912     
  0.14130000000000004          8.5134945814647356     
  0.14160000000000000          7.9085617900227723     
  0.14189999999999997          7.2437191773948060     
  0.14219999999999999          6.5536671376281541     
  0.14250000000000002          5.8713532113623765     
  0.14279999999999998          5.2196097924877272     
  0.14310000000000000          4.6123266707190194     
  0.14339999999999997          4.0544887017505600     
  0.14369999999999999          3.5387502090731719     
  0.14400000000000002          3.0505931700086473     
  0.14429999999999998          2.5674839291526386     
  0.14460000000000001          2.0663767079993960     
  0.14490000000000003          1.5241022271932407     
  0.14520000000000000         0.92375118526409983     
  0.14550000000000002         0.25376904288183960     
  0.14579999999999999        -0.48568368464217837     
  0.14610000000000001         -1.2866498367443433     
  0.14640000000000003         -2.1275356040519267     
  0.14670000000000000         -2.9760270433299887     
  0.14699999999999996         -3.7926767273488080     
  0.14729999999999999         -4.5355244162711248     
  0.14760000000000001         -5.1587696621380674     
  0.14789999999999998         -5.6266580223476783     
  0.14820000000000000         -5.9073181777459602     