  -1.4999999999999999E-002     0.0000000000000000     
  -1.4700000000000000E-002     0.0000000000000000     
  -1.4400000000000000E-002     0.0000000000000000     
  -1.4100000000000000E-002     0.0000000000000000     
  -1.3800000000000000E-002     0.0000000000000000     
  -1.3500000000000000E-002     0.0000000000000000     
  -1.3200000000000000E-002     0.0000000000000000     
  -1.2899999999999998E-002     0.0000000000000000     
  -1.2600000000000000E-002     0.0000000000000000     
  -1.2299999999999998E-002     0.0000000000000000     
  -1.2000000000000000E-002     0.0000000000000000     
  -1.1699999999999999E-002     0.0000000000000000     
  -1.1399999999999999E-002     0.0000000000000000     
  -1.1099999999999999E-002     0.0000000000000000     
  -1.0799999999999999E-002     0.0000000000000000     
  -1.0499999999999999E-002     0.0000000000000000     
  -1.0199999999999999E-002     0.0000000000000000     
  -9.8999999999999991E-003     0.0000000000000000     
  -9.5999999999999992E-003     0.0000000000000000     
  -9.2999999999999992E-003     0.0000000000000000     
  -8.9999999999999993E-003    -5.5704296938008023E-036
  -8.6999999999999994E-003    -3.2629423763325604E-035
  -8.3999999999999995E-003     3.1356816672261925E-035
  -8.0999999999999996E-003    -1.7128139649405742E-034
  -7.7999999999999988E-003    -5.7069680342583685E-034
  -7.4999999999999997E-003     6.1180272217682321E-034
  -7.1999999999999998E-003     5.6815734602218737E-033
  -6.8999999999999981E-003    -2.0393291225668877E-034
  -6.5999999999999982E-003    -3.8495509830029485E-032
  -6.3000000000000000E-003    -1.9964012261676627E-032
  -6.0000000000000001E-003     1.1557697551566914E-031
  -5.6999999999999985E-003     6.3885339724458879E-031
  -5.3999999999999986E-003    -8.5955722494411859E-031
  -5.1000000000000004E-003    -4.3909537290230229E-030
  -4.7999999999999987E-003     6.9048305815918395E-030
  -4.5000000000000005E-003     1.9172262741424084E-030
  -4.1999999999999989E-003     2.7244609899702386E-029
  -3.8999999999999990E-003    -2.2371917690067327E-029
  -3.5999999999999990E-003    -3.8153543894152162E-028
  -3.2999999999999991E-003     9.4022151411026568E-028
  -2.9999999999999992E-003    -9.6864479149727751E-028
  -2.6999999999999993E-003     1.9379963536371482E-027
  -2.3999999999999994E-003    -1.0487553594097177E-027
  -2.0999999999999977E-003    -1.5607076896457416E-026
  -1.7999999999999995E-003     4.4067131313620127E-026
  -1.4999999999999979E-003    -7.1322260660963030E-026
  -1.1999999999999997E-003     1.5313632489885038E-025
  -8.9999999999999976E-004    -2.1349500194776625E-025
  -5.9999999999999810E-004    -2.3167579808478463E-025
  -2.9999999999999992E-004     1.6826047300884733E-024
   0.0000000000000000         -5.0188578503393510E-024
   3.0000000000000165E-004     1.1124444566063147E-023
   5.9999999999999984E-004    -1.1185004455025500E-023
   9.0000000000000149E-004    -2.2812736018814466E-023
   1.2000000000000031E-003     1.1951337209494906E-022
   1.5000000000000013E-003    -2.5761605015869950E-022
   1.8000000000000030E-003     2.5094063751029951E-022
   2.1000000000000012E-003     3.8306305854258563E-022
   2.3999999999999994E-003    -2.0493071099418658E-021
   2.7000000000000010E-003     3.8189468012262095E-021
   2.9999999999999992E-003    -2.3533939990829686E-021
   3.3000000000000008E-003    -7.0759110461229799E-021
   3.6000000000000025E-003     2.5040640874546067E-020
   3.9000000000000007E-003    -3.7059761526985008E-020
   4.2000000000000023E-003     9.5706456964990782E-021
   4.5000000000000005E-003     8.5883654000549392E-020
   4.7999999999999987E-003    -2.2292811718134344E-019
   5.1000000000000004E-003     2.7462913927594334E-019
   5.4000000000000020E-003    -2.1450301801924951E-020
   5.7000000000000037E-003    -6.9264524692143135E-019
   5.9999999999999984E-003     1.6502169673801413E-018
   6.3000000000000000E-003    -2.0188600990440412E-018
   6.6000000000000017E-003     4.0364245098616872E-019
   6.9000000000000034E-003     4.4815706009039270E-018
   7.2000000000000015E-003    -1.1885993109568544E-017
   7.5000000000000032E-003     1.6235107889245599E-017
   7.8000000000000014E-003    -6.0511836905685017E-018
   8.0999999999999996E-003    -3.0751073094078161E-017
   8.4000000000000012E-003     8.8801571222505371E-017
   8.7000000000000029E-003    -1.1887973884201707E-016
   9.0000000000000011E-003     2.8633352204428089E-017
   9.2999999999999992E-003     2.4293711558426489E-016
   9.6000000000000009E-003    -5.8529153260359638E-016
   9.8999999999999991E-003     6.2805018448631773E-016
   1.0200000000000001E-002     8.7111953531863485E-017
   1.0500000000000002E-002    -1.5853452180366602E-015
   1.0800000000000004E-002     2.9287108017944906E-015
   1.1099999999999999E-002    -2.3523180810328133E-015
   1.1400000000000000E-002    -1.5007625953397345E-015
   1.1700000000000002E-002     7.6248660285255712E-015
   1.2000000000000004E-002    -1.1537825210241731E-014
   1.2300000000000002E-002     7.0953583142622317E-015
   1.2600000000000000E-002     8.4166778973830207E-015
   1.2900000000000002E-002    -2.8797995390927395E-014
   1.3200000000000000E-002     3.8265984202045921E-014
   1.3500000000000002E-002    -2.0044895132603042E-014
   1.3800000000000003E-002    -2.8543076548919943E-014
   1.4100000000000001E-002     8.6712102806448746E-014
   1.4400000000000000E-002    -1.1651983396575188E-013
   1.4700000000000001E-002     8.0938385237050342E-014
   1.4999999999999999E-002     3.9268073916527061E-014
   1.5300000000000001E-002    -2.3470606533944479E-013
   1.5600000000000003E-002     4.4029686641661231E-013
   1.5899999999999997E-002    -4.7584157065777022E-013
   1.6199999999999999E-002     4.7673704570085671E-014
   1.6500000000000001E-002     9.9770463364019546E-013
   1.6800000000000002E-002    -2.1623879377282094E-012
   1.7100000000000004E-002     2.0363310322995921E-012
   1.7400000000000006E-002     8.4057855493519098E-013
   1.7700000000000000E-002    -5.8286637337780690E-012
   1.8000000000000002E-002     8.5951054066726429E-012
   1.8300000000000004E-002    -3.2309125515725122E-012
   1.8600000000000005E-002    -1.1140019879776255E-011
   1.8900000000000000E-002     2.4544779841488407E-011
   1.9200000000000002E-002    -2.0845891803429592E-011
   1.9500000000000003E-002    -4.2069762804633028E-012
   1.9799999999999998E-002     3.4271430669389791E-011
   2.0100000000000000E-002    -7.8100859883349749E-011
   2.0400000000000001E-002     2.2258081749871156E-010
   2.0700000000000003E-002    -3.6076405922750801E-010
   2.0999999999999998E-002    -5.1343429091806815E-010
   2.1299999999999999E-002     3.4612309236530000E-009
   2.1600000000000001E-002    -4.1049603629706875E-009
   2.1900000000000003E-002    -1.1131934165152721E-008
   2.2200000000000004E-002     3.4087100512009670E-008
   2.2500000000000006E-002     6.5116644155071165E-009
   2.2800000000000001E-002    -1.7032694614874172E-007
   2.3100000000000002E-002     2.6544142402170326E-007
   2.3400000000000004E-002     2.5605673615631327E-006
   2.3699999999999999E-002     6.9823274829167772E-006
   2.4000000000000000E-002     1.2288246919269378E-005
   2.4300000000000002E-002     1.7424025092305486E-005
   2.4599999999999997E-002     2.4756936405303651E-005
   2.4900000000000005E-002     3.7858347203622301E-005
   2.5200000000000000E-002     5.6755766637677143E-005
   2.5499999999999995E-002     8.4642867943773189E-005
   2.5800000000000003E-002     1.2770350491329686E-004
   2.6099999999999998E-002     1.8753719121621334E-004
   2.6400000000000007E-002     2.7559078210859461E-004
   2.6700000000000002E-002     4.0718831144269526E-004
   2.6999999999999996E-002     5.8459235856663275E-004
   2.7300000000000005E-002     8.1607382016060713E-004
   2.7600000000000000E-002     1.1169712634568425E-003
   2.7900000000000008E-002     1.5066749057794254E-003
   2.8200000000000003E-002     2.0043159246117132E-003
   2.8499999999999998E-002     2.6156518315647451E-003
   2.8800000000000006E-002     3.3460205899102651E-003
   2.9100000000000001E-002     4.1900173614687290E-003
   2.9400000000000003E-002     5.1235558485576670E-003
   2.9700000000000004E-002     6.1146381103318187E-003
   3.0000000000000006E-002     7.1069946077480638E-003
   3.0300000000000001E-002     7.9753153289375302E-003
   3.0600000000000002E-002     8.5404216924528879E-003
   3.0900000000000004E-002     8.6215340631087961E-003
   3.1199999999999999E-002     7.9805975776841027E-003
   3.1500000000000007E-002     6.2892047278965768E-003
   3.1800000000000002E-002     3.1788059887889819E-003
   3.2099999999999997E-002    -1.7223743050854370E-003
   3.2400000000000005E-002    -8.8037572859779277E-003
   3.2700000000000000E-002    -1.8455479225138762E-002
   3.3000000000000002E-002    -3.1040558135383943E-002
   3.3300000000000003E-002    -4.6883783869540264E-002
   3.3599999999999998E-002    -6.6184470487815131E-002
   3.3900000000000000E-002    -8.8992151183393750E-002
   3.4200000000000001E-002   -0.11521205185139791     
   3.4500000000000003E-002   -0.14456854443854622     
   3.4799999999999998E-002   -0.17657245593149523     
   3.5099999999999999E-002   -0.21057318871592559     
   3.5400000000000001E-002   -0.24575689188077524     
   3.5699999999999996E-002   -0.28119786791550139     
   3.6000000000000004E-002   -0.31589730325043153     
   3.6299999999999999E-002   -0.34879828631434989     
   3.6600000000000008E-002   -0.37889077064685084     
   3.6900000000000002E-002   -0.40517808957235918     
   3.7199999999999997E-002   -0.42682155534192134     
   3.7500000000000006E-002   -0.44313822244654755     
   3.7800000000000000E-002   -0.45361069421153849     
   3.8100000000000009E-002   -0.45792786534179369     
   3.8400000000000004E-002   -0.45590831029397938     
   3.8699999999999998E-002   -0.44753368981679409     
   3.9000000000000007E-002   -0.43292033322370727     
   3.9300000000000002E-002   -0.41232242550239467     
   3.9600000000000003E-002   -0.38594108303678620     
   3.9900000000000005E-002   -0.35393184555026774     
   4.0200000000000000E-002   -0.31642112893761987     
   4.0500000000000001E-002   -0.27324946152475210     
   4.0800000000000003E-002   -0.22409013188013560     
   4.1100000000000005E-002   -0.16827626165649184     
   4.1399999999999999E-002   -0.10489724720190002     
   4.1700000000000008E-002    -3.2677274882561835E-002
   4.2000000000000003E-002     4.9724186488912248E-002
   4.2299999999999997E-002    0.14379613549627268     
   4.2600000000000006E-002    0.25082972548436877     
   4.2900000000000001E-002    0.37163613707069576     
   4.3200000000000002E-002    0.50660398454718059     
   4.3500000000000004E-002    0.65507511969491816     
   4.3799999999999999E-002    0.81550140103793356     
   4.4100000000000000E-002    0.98512570590562265     
   4.4400000000000002E-002     1.1602064643755712     
   4.4700000000000004E-002     1.3358638348951852     
   4.4999999999999998E-002     1.5066643963168569     
   4.5300000000000000E-002     1.6669019399876990     
   4.5600000000000002E-002     1.8106979321248529     
   4.5899999999999996E-002     1.9330498420693121     
   4.6200000000000005E-002     2.0293197739164595     
   4.6500000000000000E-002     2.0963638387709418     
   4.6799999999999994E-002     2.1320195525008252     
   4.7100000000000003E-002     2.1350558601024576     
   4.7399999999999998E-002     2.1056193140097239     
   4.7700000000000006E-002     2.0439104422129017     
   4.8000000000000001E-002     1.9506497360151864     
   4.8300000000000010E-002     1.8264365886108891     
   4.8600000000000004E-002     1.6712285192725835     
   4.8899999999999999E-002     1.4847697136019482     
   4.9200000000000008E-002     1.2661216039295398     
   4.9500000000000002E-002     1.0141126111052559     
   4.9800000000000011E-002    0.72760162924183869     
   5.0100000000000006E-002    0.40584403765509003     
   5.0400000000000000E-002     4.9449687355195615E-002
   5.0700000000000009E-002   -0.34047551562802209     
   5.1000000000000004E-002   -0.75984597739050674     
   5.1299999999999998E-002    -1.2040389820010347     
   5.1600000000000007E-002    -1.6654375880178334     
   5.1900000000000002E-002    -2.1351506214527687     
   5.2200000000000010E-002    -2.6030653455009909     
   5.2500000000000005E-002    -3.0571197292449419     
   5.2800000000000000E-002    -3.4854779967368659     
   5.3099999999999994E-002    -3.8749342633224062     
   5.3400000000000003E-002    -4.2129055250363212     
   5.3699999999999998E-002    -4.4867959716589150     
   5.4000000000000006E-002    -4.6843824953141731     
   5.4300000000000001E-002    -4.7942853296580106     
   5.4599999999999996E-002    -4.8061658242913490     
   5.4900000000000004E-002    -4.7112347357237780     
   5.5199999999999999E-002    -4.5030168959538317     
   5.5499999999999994E-002    -4.1775745450639787     
   5.5800000000000002E-002    -3.7347575274102702     
   5.6099999999999997E-002    -3.1786333542233134     
   5.6400000000000006E-002    -2.5184447189148615     
   5.6700000000000000E-002    -1.7688840226456524     
   5.6999999999999995E-002   -0.94990949882130682     
   5.7300000000000004E-002    -8.7022783888652921E-002
   5.7599999999999998E-002    0.79020075832723269     
   5.7900000000000007E-002     1.6489960085323532     
   5.8200000000000002E-002     2.4554809935321544     
   5.8499999999999996E-002     3.1764606938567859     
   5.8800000000000005E-002     3.7812593848158542     
   5.9100000000000000E-002     4.2446910570202361     
   5.9400000000000008E-002     4.5477206509295964     
   5.9700000000000003E-002     4.6799920917369571     
   6.0000000000000012E-002     4.6399977214465293     
   6.0300000000000006E-002     4.4357259802944746     
   6.0600000000000001E-002     4.0844853965835233     
   6.0900000000000010E-002     3.6111415788430996     
   6.1200000000000004E-002     3.0480748225678287     
   6.1500000000000013E-002     2.4314801079409398     
   6.1800000000000008E-002     1.8003382699480683     
   6.2100000000000002E-002     1.1936311542120213     
   6.2399999999999997E-002    0.64700056103194614     
   6.2700000000000006E-002    0.19152515593754482     
   6.3000000000000000E-002   -0.14983519821668251     
   6.3300000000000009E-002   -0.36306715750653840     
   6.3600000000000004E-002   -0.44431872742758616     
   6.3899999999999998E-002   -0.40200046038077458     
   6.4199999999999993E-002   -0.25343527981288938     
   6.4500000000000002E-002    -2.7484397252043741E-002
   6.4800000000000010E-002    0.24074420916190170     
   6.5100000000000005E-002    0.51093575599588836     
   6.5400000000000000E-002    0.74136634742047347     
   6.5700000000000008E-002    0.89356763251400229     
   6.5999999999999989E-002    0.93476817372808096     
   6.6299999999999998E-002    0.84370866584115278     
   6.6600000000000006E-002    0.61123070432195814     
   6.6900000000000001E-002    0.24429842943189364     
   6.7199999999999996E-002   -0.23475257165754312     
   6.7500000000000004E-002   -0.78867439470745027     
   6.7800000000000013E-002    -1.3674178668527037     
   6.8099999999999994E-002    -1.9132375983600274     
   6.8400000000000002E-002    -2.3646017156892145     
   6.8700000000000011E-002    -2.6626135256401842     
   6.8999999999999992E-002    -2.7570780564299215     
   6.9300000000000000E-002    -2.6115838471207318     
   6.9600000000000009E-002    -2.2084601300976221     
   6.9900000000000004E-002    -1.5512597681482512     
   7.0199999999999999E-002   -0.66631911789601850     
   7.0500000000000007E-002    0.39886102865098128     
   7.0800000000000016E-002     1.5780281332836539     
   7.1099999999999997E-002     2.7914125964371466     
   7.1400000000000005E-002     3.9519390322718597     
   7.1700000000000000E-002     4.9723715692449311     
   7.1999999999999995E-002     5.7718228642476150     
   7.2300000000000003E-002     6.2833378807864930     
   7.2600000000000012E-002     6.4580168446896007     
   7.2900000000000006E-002     6.2710741269787960     
   7.3200000000000001E-002     5.7208233635976162     
   7.3499999999999996E-002     4.8311336674331899     
   7.3800000000000004E-002     3.6478033554472988     
   7.4099999999999999E-002     2.2339612186270230     
   7.4400000000000008E-002    0.66748042840219179     
   7.4700000000000003E-002   -0.96914590357883657     
   7.5000000000000011E-002    -2.5909268644774301     
   7.5299999999999992E-002    -4.1197894210041985     
   7.5600000000000001E-002    -5.4876087366524571     
   7.5900000000000009E-002    -6.6407871729511836     
   7.6200000000000004E-002    -7.5430580438315227     
   7.6499999999999999E-002    -8.1748031820896578     
   7.6800000000000007E-002    -8.5339764765854511     
   7.7099999999999988E-002    -8.6321741570454584     
   7.7399999999999997E-002    -8.4929887054726940     
   7.7700000000000005E-002    -8.1473152040396712     
   7.8000000000000014E-002    -7.6300573522195876     
   7.8299999999999995E-002    -6.9775634274542453     
   7.8600000000000003E-002    -6.2229151373801050     
   7.8900000000000012E-002    -5.3964381091491065     
   7.9199999999999993E-002    -4.5237901128703824     
   7.9500000000000001E-002    -3.6256180170701118     
   7.9800000000000010E-002    -2.7206371768630504     
   8.0100000000000018E-002    -1.8238023618314583     
   8.0399999999999999E-002   -0.95108121351262209     
   8.0700000000000008E-002   -0.11808603430840359     
   8.1000000000000003E-002    0.65884825026649940     
   8.1299999999999997E-002     1.3611078454696324     
   8.1600000000000006E-002     1.9710800238192276     
   8.1900000000000014E-002     2.4721581680460352     
   8.2199999999999995E-002     2.8507582741974504     
   8.2500000000000004E-002     3.0997233249048626     
   8.2799999999999999E-002     3.2183791062466365     
   8.3100000000000007E-002     3.2149585070457531     
   8.3400000000000002E-002     3.1062511361949166     
   8.3700000000000011E-002     2.9169302705158988     
   8.4000000000000005E-002     2.6765094603510682     
   8.4300000000000000E-002     2.4197375053352479     
   8.4599999999999995E-002     2.1776533275212278     
   8.4900000000000003E-002     1.9799824594706052     
   8.5199999999999998E-002     1.8466339981762490     
   8.5500000000000007E-002     1.7882534676516277     
   8.5800000000000001E-002     1.8046893267057618     
   8.6100000000000010E-002     1.8836953834176837     
   8.6399999999999991E-002     2.0046264943734129     
   8.6699999999999999E-002     2.1401807716403858     
   8.7000000000000008E-002     2.2618317140478994     
   8.7300000000000003E-002     2.3433909140659468     
   8.7599999999999997E-002     2.3674877856794474     
   8.7900000000000006E-002     2.3266826383008277     
   8.8200000000000014E-002     2.2292547103582359     
   8.8499999999999995E-002     2.0967088426950782     
   8.8800000000000004E-002     1.9632663909592052     
   8.9100000000000013E-002     1.8742235978939874     
   8.9399999999999993E-002     1.8754841375894433     
   8.9700000000000002E-002     2.0125774115653958     
   9.0000000000000011E-002     2.3188461632003148     
   9.0299999999999991E-002     2.8100900688561854     
   9.0600000000000000E-002     3.4794886801196925     
   9.0900000000000009E-002     4.2931416039968751     
   9.1200000000000017E-002     5.1891763021723634     
   9.1499999999999998E-002     6.0824979366592187     
   9.1800000000000007E-002     6.8663001137971227     
   9.2100000000000001E-002     7.4250248878550531     
   9.2399999999999996E-002     7.6426924217738463     
   9.2700000000000005E-002     7.4138370846917132     
   9.3000000000000013E-002     6.6599681920426228     
   9.3300000000000008E-002     5.3337062133011655     
   9.3600000000000003E-002     3.4344299171986910     
   9.3899999999999997E-002     1.0069545365715211     
   9.4200000000000006E-002    -1.8514429451438401     
   9.4500000000000001E-002    -4.9995118521647752     
   9.4800000000000009E-002    -8.2553867949112032     
   9.5100000000000004E-002    -11.409258880217815     
   9.5399999999999999E-002    -14.239615262565609     
   9.5699999999999993E-002    -16.524426304836265     
   9.6000000000000002E-002    -18.065906766050272     
   9.6300000000000011E-002    -18.698025041055814     
   9.6600000000000005E-002    -18.308546406607370     
   9.6900000000000000E-002    -16.846699806384667     
   9.7200000000000009E-002    -14.329534484502940     
   9.7499999999999989E-002    -10.848352269009689     
   9.7799999999999998E-002    -6.5613991264522511     
   9.8100000000000007E-002    -1.6894658805222562     
   9.8400000000000015E-002     3.4997630086333382     
   9.8699999999999996E-002     8.7044841261416472     
   9.9000000000000005E-002     13.613310749585676     
   9.9300000000000013E-002     17.920743557190686     
   9.9599999999999994E-002     21.352705496831632     
   9.9900000000000003E-002     23.682694528679896     
  0.10020000000000001          24.748157972393550     
  0.10049999999999999          24.464498936121778     
  0.10080000000000000          22.826305521091900     
  0.10110000000000001          19.913558182072293     
  0.10140000000000000          15.882155063413485     
  0.10170000000000000          10.953334415160320     
  0.10200000000000001          5.4001668739233031     
  0.10230000000000002        -0.47372365351284973     
  0.10260000000000000         -6.3530691022913981     
  0.10290000000000001         -11.932208395209381     
  0.10320000000000000         -16.933548393853926     
  0.10350000000000001         -21.126044498782978     
  0.10380000000000000         -24.333496019336280     
  0.10410000000000001         -26.447272219617012     
  0.10440000000000001         -27.423679117600077     
  0.10470000000000000         -27.283661325238725     
  0.10500000000000000         -26.107386222227220     
  0.10530000000000000         -24.019349735300541     
  0.10560000000000000         -21.181046136191007     
  0.10590000000000001         -17.772207742022204     
  0.10620000000000000         -13.980876991475242     
  0.10650000000000001         -9.9879951274290573     
  0.10679999999999999         -5.9601113016589906     
  0.10710000000000000         -2.0395259319683174     
  0.10740000000000001          1.6593832100528489     
  0.10770000000000000          5.0507942384501909     
  0.10800000000000000          8.0771451478410370     
  0.10830000000000001          10.707148362647578     
  0.10859999999999999          12.927253042315398     
  0.10890000000000000          14.743312053778279     
  0.10920000000000001          16.166767245452203     
  0.10950000000000001          17.218868931676969     
  0.10979999999999999          17.921019345002922     
  0.11009999999999999          18.292802197300833     
  0.11040000000000001          18.354527195476720     
  0.11070000000000001          18.121264344911722     
  0.11100000000000000          17.606157105155283     
  0.11130000000000000          16.823362977124827     
  0.11160000000000002          15.782593976310739     
  0.11190000000000001          14.499880936409721     
  0.11220000000000001          12.989864799342506     
  0.11250000000000000          11.273259411643998     
  0.11280000000000000          9.3747427120429148     
  0.11309999999999999          7.3246268889652040     
  0.11340000000000001          5.1583646318513825     
  0.11369999999999998          2.9171785064758469     
  0.11400000000000000         0.64597778050348387     
  0.11430000000000000         -1.6059890700482771     
  0.11460000000000002         -3.7887754365128599     
  0.11489999999999999         -5.8498253049353348     
  0.11520000000000001         -7.7424147469154292     
  0.11550000000000001         -9.4194610583335372     
  0.11580000000000000         -10.843370412949522     
  0.11609999999999999         -11.983977597328177     
  0.11640000000000002         -12.817277240966188     
  0.11670000000000001         -13.337263459796400     
  0.11700000000000001         -13.538967858503156     
  0.11730000000000000         -13.438494555900295     
  0.11760000000000000         -13.054930376419144     
  0.11789999999999999         -12.419229082759250     
  0.11820000000000001         -11.569651224088437     
  0.11850000000000001         -10.547140012122036     
  0.11880000000000000         -9.3975804602385686     
  0.11910000000000000         -8.1638949851924671     
  0.11940000000000002         -6.8896627917637767     
  0.11970000000000001         -5.6108572151379299     
  0.12000000000000001         -4.3599885817826713     
  0.12030000000000000         -3.1595008119045618     
  0.12060000000000000         -2.0255312625756297     
  0.12089999999999999        -0.96684633536101661     
  0.12119999999999999          1.7760839226257596E-002
  0.12150000000000001         0.93075899162280229     
  0.12180000000000001          1.7831555779691510     
  0.12210000000000000          2.5840847781350673     
  0.12239999999999999          3.3447446103739056     
  0.12270000000000002          4.0710988235516066     
  0.12300000000000001          4.7688076778158477     
  0.12330000000000001          5.4325200180382387     
  0.12360000000000000          6.0565452561090822     
  0.12390000000000000          6.6255458479340970     
  0.12419999999999999          7.1203618877156885     
  0.12450000000000001          7.5216328975690763     
  0.12480000000000001          7.8036720703724622     
  0.12509999999999999          7.9487897771393623     
  0.12540000000000001          7.9384470635698392     
  0.12570000000000003          7.7622359292184075     
  0.12600000000000000          7.4180571375995772     
  0.12630000000000002          6.9098261759544748     
  0.12659999999999999          6.2536905739500472     
  0.12690000000000001          5.4686904976835704     
  0.12719999999999998          4.5859184864415496     
  0.12750000000000000          3.6351041896250944     
  0.12780000000000002          2.6534229149323840     
  0.12809999999999999          1.6738981578332175     
  0.12840000000000001         0.72843513779944047     
  0.12869999999999998        -0.15415080504525591     
  0.12900000000000000        -0.95423931808416862     
  0.12930000000000003         -1.6541051922074526     
  0.12959999999999999         -2.2482517791137386     
  0.12990000000000002         -2.7332660316954356     
  0.13019999999999998         -3.1138275616432392     
  0.13050000000000000         -3.3995835159312273     
  0.13080000000000003         -3.6015463861118651     
  0.13109999999999999         -3.7342837947133818     
  0.13140000000000002         -3.8112748907805596     
  0.13169999999999998         -3.8457876936557431     
  0.13200000000000001         -3.8489273263737931     
  0.13229999999999997         -3.8285900386173073     
  0.13260000000000000         -3.7903147926167660     
  0.13290000000000002         -3.7356962890535739     
  0.13319999999999999         -3.6645216530821254     
  0.13350000000000001         -3.5737140785449997     
  0.13380000000000003         -3.4582355535637181     
  0.13410000000000000         -3.3142308264582292     
  0.13440000000000002         -3.1354872601335266     
  0.13469999999999999         -2.9197113697616150     
  0.13500000000000001         -2.6626584069865671     
  0.13529999999999998         -2.3665084774304499     
  0.13560000000000000         -2.0313064591041865     
  0.13590000000000002         -1.6630994607835980     
  0.13619999999999999         -1.2677410241303699     
  0.13650000000000001        -0.85331443221332870     
  0.13680000000000003        -0.43077091561980668     
  0.13710000000000000         -8.6548603830504389E-003
  0.13740000000000002         0.40044118426915443     
  0.13769999999999999         0.78826742294856678     
  0.13800000000000001          1.1444276899529300     
  0.13829999999999998          1.4619149057408647     
  0.13860000000000000          1.7345212914013097     
  0.13890000000000002          1.9582077503822246     
  0.13919999999999999          2.1319922243347453     
  0.13950000000000001          2.2553219652643488     
  0.13979999999999998          2.3322877126131356     
  0.14010000000000000          2.3662776114496369     
  0.14040000000000002          2.3638033964258862     
  0.14069999999999999          2.3317469863372855     
  0.14100000000000001          2.2765653234473708     
  0.14130000000000004          2.2064717947619807     
  0.14160000000000000          2.1262181684803196     
  0.14189999999999997          2.0407093144223953     
  0.14219999999999999          1.9529420180121098     
  0.14250000000000002          1.8615960960678657     
  0.14279999999999998          1.7671488433696392     
  0.14310000000000000          1.6642603200917858     
  0.14339999999999997          1.5486967186348897     
  0.14369999999999999          1.4153350727341674     
  0.14400000000000002          1.2576685762886874     
  0.14429999999999998          1.0736350263204240     
  0.14460000000000001         0.85902893396222391     
  0.14490000000000003         0.61489454851422409     
  0.14520000000000000         0.34535774317324774     
  0.14550000000000002          5.5220564140769951E-002
  0.14579999999999999        -0.24403926071970261     
  0.14610000000000001        -0.54351148644038605     
  0.14640000000000003        -0.82619046460576295     
  0.14670000000000000         -1.0825731312416953     
  0.14699999999999996         -1.2960338604219639     
  0.14729999999999999         -1.4578840736569232     
  0.14760000000000001         -1.5589311292683761     
  0.14789999999999998         -1.5939109832174962     
  0.14820000000000000         -1.5644239019093675     