  -1.4999999999999999E-002     0.0000000000000000     
  -1.4700000000000000E-002     0.0000000000000000     
  -1.4400000000000000E-002     0.0000000000000000     
  -1.4100000000000000E-002     0.0000000000000000     
  -1.3800000000000000E-002     0.0000000000000000     
  -1.3500000000000000E-002     0.0000000000000000     
  -1.3200000000000000E-002     0.0000000000000000     
  -1.2899999999999998E-002     0.0000000000000000     
  -1.2600000000000000E-002     0.0000000000000000     
  -1.2299999999999998E-002     0.0000000000000000     
  -1.2000000000000000E-002     0.0000000000000000     
  -1.1699999999999999E-002     0.0000000000000000     
  -1.1399999999999999E-002     0.0000000000000000     
  -1.1099999999999999E-002     0.0000000000000000     
  -1.0799999999999999E-002     0.0000000000000000     
  -1.0499999999999999E-002     0.0000000000000000     
  -1.0199999999999999E-002     0.0000000000000000     
  -9.8999999999999991E-003     0.0000000000000000     
  -9.5999999999999992E-003     0.0000000000000000     
  -9.2999999999999992E-003     0.0000000000000000     
  -8.9999999999999993E-003     3.0722164142604776E-036
  -8.6999999999999994E-003    -1.5999819147420903E-035
  -8.3999999999999995E-003    -1.6492302675209586E-035
  -8.0999999999999996E-003     1.4770608635728781E-034
  -7.7999999999999988E-003     1.4737890659996207E-034
  -7.4999999999999997E-003    -1.9407162988482590E-033
  -7.1999999999999998E-003     3.6144770734821491E-034
  -6.8999999999999981E-003     1.5086562330557655E-032
  -6.5999999999999982E-003     8.4536706739260051E-033
  -6.3000000000000000E-003    -5.6027167967940699E-032
  -6.0000000000000001E-003    -1.4073216673183468E-031
  -5.6999999999999985E-003     4.9193963381508685E-032
  -5.3999999999999986E-003     1.7953023006873008E-030
  -5.1000000000000004E-003    -7.3918136916625128E-031
  -4.7999999999999987E-003    -8.9162372896318295E-030
  -4.5000000000000005E-003     7.8304024661965934E-030
  -4.1999999999999989E-003    -1.5254691502217996E-029
  -3.8999999999999990E-003     1.2123061778411985E-028
  -3.5999999999999990E-003    -3.2413411512106063E-029
  -3.2999999999999991E-003    -7.7938418848030142E-028
  -2.9999999999999992E-003     1.5471136802820565E-027
  -2.6999999999999993E-003    -2.5380757896851528E-027
  -2.3999999999999994E-003     6.4965460236870285E-027
  -2.0999999999999977E-003    -1.9222183871342602E-027
  -1.7999999999999995E-003    -3.0525606640814533E-026
  -1.4999999999999979E-003     7.1052891664364563E-026
  -1.1999999999999997E-003    -1.4719304333472109E-025
  -8.9999999999999976E-004     3.7642370447902066E-025
  -5.9999999999999810E-004    -4.7321855828702534E-025
  -2.9999999999999992E-004    -3.4081216198549226E-025
   0.0000000000000000          3.0818022874725695E-024
   3.0000000000000165E-004    -1.0971526967553907E-023
   5.9999999999999984E-004     2.4731320610307208E-023
   9.0000000000000149E-004    -2.0627842569485435E-023
   1.2000000000000031E-003    -5.8101564221728242E-023
   1.5000000000000013E-003     2.6255347779321578E-022
   1.8000000000000030E-003    -5.2330968937955809E-022
   2.1000000000000012E-003     3.6139069883550025E-022
   2.3999999999999994E-003     1.2198208754809008E-021
   2.7000000000000010E-003    -4.5295542779292141E-021
   2.9999999999999992E-003     6.7239965658501071E-021
   3.3000000000000008E-003    -7.0005107211963987E-022
   3.6000000000000025E-003    -2.0673512659047395E-020
   3.9000000000000007E-003     5.0394939544459315E-020
   4.2000000000000023E-003    -5.0290911826836624E-020
   4.5000000000000005E-003    -3.4897770395612568E-020
   4.7999999999999987E-003     2.1206242343994017E-019
   5.1000000000000004E-003    -3.6876970920261581E-019
   5.4000000000000020E-003     2.6705425747003606E-019
   5.7000000000000037E-003     3.3189926700833615E-019
   5.9999999999999984E-003    -1.3941699489605630E-018
   6.3000000000000000E-003     2.3828519052647927E-018
   6.6000000000000017E-003    -2.1848116027459034E-018
   6.9000000000000034E-003    -9.6395710441630745E-019
   7.2000000000000015E-003     8.6727362712047519E-018
   7.5000000000000032E-003    -1.8969853795770417E-017
   7.8000000000000014E-003     2.1399124927446377E-017
   8.0999999999999996E-003     3.3086347218744130E-018
   8.4000000000000012E-003    -6.8469717416958223E-017
   8.7000000000000029E-003     1.4582988716482152E-016
   9.0000000000000011E-003    -1.3781278665017248E-016
   9.2999999999999992E-003    -7.7027999326540885E-017
   9.6000000000000009E-003     4.9763229073894361E-016
   9.8999999999999991E-003    -8.3706064036208619E-016
   1.0200000000000001E-002     5.4489398462281468E-016
   1.0500000000000002E-002     7.7675418036878063E-016
   1.0800000000000004E-002    -2.6895040953720091E-015
   1.1099999999999999E-002     3.5988734318787648E-015
   1.1400000000000000E-002    -1.4584924767506426E-015
   1.1700000000000002E-002    -4.4011987162336397E-015
   1.2000000000000004E-002     1.1227908006788632E-014
   1.2300000000000002E-002    -1.2776725427695893E-014
   1.2600000000000000E-002     3.0217285931492887E-015
   1.2900000000000002E-002     1.7641335698921388E-014
   1.3200000000000000E-002    -3.8100597241641862E-014
   1.3500000000000002E-002     3.9754190015679220E-014
   1.3800000000000003E-002    -9.2626007475597599E-015
   1.4100000000000001E-002    -4.8014300877620736E-014
   1.4400000000000000E-002     1.0675388545557136E-013
   1.4700000000000001E-002    -1.3166656665815529E-013
   1.4999999999999999E-002     8.6170226067612029E-014
   1.5300000000000001E-002     6.5271105850811659E-014
   1.5600000000000003E-002    -3.3558120322010129E-013
   1.5899999999999997E-002     6.2221790098256975E-013
   1.6199999999999999E-002    -5.8740418521343155E-013
   1.6500000000000001E-002    -2.2358142391135025E-013
   1.6800000000000002E-002     1.7746126799658110E-012
   1.7100000000000004E-002    -2.7913208727248268E-012
   1.7400000000000006E-002     1.1449074214963202E-012
   1.7700000000000000E-002     3.5053346347720672E-012
   1.8000000000000002E-002    -6.7656493408844620E-012
   1.8300000000000004E-002     2.4247984383658645E-012
   1.8600000000000005E-002     6.5541866058664707E-012
   1.8900000000000000E-002    -4.8272587466467862E-012
   1.9200000000000002E-002    -9.6355717925614698E-012
   1.9500000000000003E-002     6.8371232092274914E-012
   1.9799999999999998E-002     5.2307724930754847E-012
   2.0100000000000000E-002     4.5532682357333837E-011
   2.0400000000000001E-002     7.4528348185864281E-011
   2.0700000000000003E-002    -9.5296468516161772E-010
   2.0999999999999998E-002     1.0966770757175129E-009
   2.1299999999999999E-002     4.9085558959200195E-009
   2.1600000000000001E-002    -1.3481959027600732E-008
   2.1900000000000003E-002    -1.0650975689640260E-008
   2.2200000000000004E-002     7.3394540105813383E-008
   2.2500000000000006E-002    -1.6200720066735103E-008
   2.2800000000000001E-002    -3.1865869969124476E-007
   2.3100000000000002E-002     5.1795325904738283E-007
   2.3400000000000004E-002     4.4085753073056247E-006
   2.3699999999999999E-002     1.1469393822891275E-005
   2.4000000000000000E-002     1.9250464964257546E-005
   2.4300000000000002E-002     2.5954172924278137E-005
   2.4599999999999997E-002     3.6099523600663750E-005
   2.4900000000000005E-002     5.5937071741985694E-005
   2.5200000000000000E-002     8.4536168754125465E-005
   2.5499999999999995E-002     1.2453203713610540E-004
   2.5800000000000003E-002     1.8192609140753771E-004
   2.6099999999999998E-002     2.5707590960790479E-004
   2.6400000000000007E-002     3.7439513268814375E-004
   2.6700000000000002E-002     5.5931692282295241E-004
   2.6999999999999996E-002     7.9105176198843315E-004
   2.7300000000000005E-002     1.0706316309356588E-003
   2.7600000000000000E-002     1.4406867702261418E-003
   2.7900000000000008E-002     1.9162517388572641E-003
   2.8200000000000003E-002     2.4915200529199467E-003
   2.8499999999999998E-002     3.1659429088360738E-003
   2.8800000000000006E-002     3.9282568788509189E-003
   2.9100000000000001E-002     4.7346712661259227E-003
   2.9400000000000003E-002     5.5123970854438556E-003
   2.9700000000000004E-002     6.1648911789520099E-003
   3.0000000000000006E-002     6.5532260822066916E-003
   3.0300000000000001E-002     6.4725467306065154E-003
   3.0600000000000002E-002     5.6647705792648283E-003
   3.0900000000000004E-002     3.8236799151478091E-003
   3.1199999999999999E-002     5.9613027871292172E-004
   3.1500000000000007E-002    -4.3555301103370475E-003
   3.1800000000000002E-002    -1.1360884043193683E-002
   3.2099999999999997E-002    -2.0714743360851183E-002
   3.2400000000000005E-002    -3.2571286493419428E-002
   3.2700000000000000E-002    -4.6889965496562158E-002
   3.3000000000000002E-002    -6.3361343107817186E-002
   3.3300000000000003E-002    -8.1302710859524716E-002
   3.3599999999999998E-002    -9.9629375092149544E-002
   3.3900000000000000E-002   -0.11683790129639428     
   3.4200000000000001E-002   -0.13091091996876947     
   3.4500000000000003E-002   -0.13937335627327238     
   3.4799999999999998E-002   -0.13940851415902078     
   3.5099999999999999E-002   -0.12801110562735052     
   3.5400000000000001E-002   -0.10215137953862569     
   3.5699999999999996E-002    -5.9056812717963605E-002
   3.6000000000000004E-002     3.4652508007805335E-003
   3.6299999999999999E-002     8.6793819090466365E-002
   3.6600000000000008E-002    0.19104727891913062     
   3.6900000000000002E-002    0.31481563571233773     
   3.7199999999999997E-002    0.45504705458613837     
   3.7500000000000006E-002    0.60686975894056183     
   3.7800000000000000E-002    0.76361278113707476     
   3.8100000000000009E-002    0.91701285781529207     
   3.8400000000000004E-002     1.0575003434747825     
   3.8699999999999998E-002     1.1746472165945212     
   3.9000000000000007E-002     1.2577426768881026     
   3.9300000000000002E-002     1.2965847917284816     
   3.9600000000000003E-002     1.2821217710019714     
   3.9900000000000005E-002     1.2071919284285650     
   4.0200000000000000E-002     1.0672357770986305     
   4.0500000000000001E-002    0.86079400085963820     
   4.0800000000000003E-002    0.58991493821795282     
   4.1100000000000005E-002    0.26047188435981999     
   4.1399999999999999E-002   -0.11803394588367594     
   4.1700000000000008E-002   -0.53258678824202299     
   4.2000000000000003E-002   -0.96735956961003400     
   4.2299999999999997E-002    -1.4043811733154332     
   4.2600000000000006E-002    -1.8243036311074641     
   4.2900000000000001E-002    -2.2075571269750460     
   4.3200000000000002E-002    -2.5353608196861050     
   4.3500000000000004E-002    -2.7907659137149974     
   4.3799999999999999E-002    -2.9595953346206327     
   4.4100000000000000E-002    -3.0314196930361916     
   4.4400000000000002E-002    -2.9999982359174879     
   4.4700000000000004E-002    -2.8638644916361824     
   4.4999999999999998E-002    -2.6262058532111014     
   4.5300000000000000E-002    -2.2950724171907497     
   4.5600000000000002E-002    -1.8827236850291644     
   4.5899999999999996E-002    -1.4051437443503043     
   4.6200000000000005E-002   -0.88134711602635729     
   4.6500000000000000E-002   -0.33235004702782378     
   4.6799999999999994E-002    0.21984869696957920     
   4.7100000000000003E-002    0.75326038888205527     
   4.7399999999999998E-002     1.2472442727649462     
   4.7700000000000006E-002     1.6834339644630854     
   4.8000000000000001E-002     2.0466037601099605     
   4.8300000000000010E-002     2.3255678819884160     
   4.8600000000000004E-002     2.5137511960809875     
   4.8899999999999999E-002     2.6095313810035630     
   4.9200000000000008E-002     2.6163721672700584     
   4.9500000000000002E-002     2.5425246216572934     
   4.9800000000000011E-002     2.4001107968895199     
   5.0100000000000006E-002     2.2043913267618596     
   5.0400000000000000E-002     1.9724332690607786     
   5.0700000000000009E-002     1.7215344284345915     
   5.1000000000000004E-002     1.4683744991626622     
   5.1299999999999998E-002     1.2270290604358829     
   5.1600000000000007E-002     1.0079550255052765     
   5.1900000000000002E-002    0.81773821417063730     
   5.2200000000000010E-002    0.65782410792554891     
   5.2500000000000005E-002    0.52544169134519125     
   5.2800000000000000E-002    0.41406379386839498     
   5.3099999999999994E-002    0.31397794918558808     
   5.3400000000000003E-002    0.21427267526346910     
   5.3699999999999998E-002    0.10409331855676343     
   5.4000000000000006E-002    -2.6498848609675607E-002
   5.4300000000000001E-002   -0.18379815302337477     
   5.4599999999999996E-002   -0.37105900839345290     
   5.4900000000000004E-002   -0.58671765894769123     
   5.5199999999999999E-002   -0.82507142188243698     
   5.5499999999999994E-002    -1.0765756903560735     
   5.5800000000000002E-002    -1.3284328456170409     
   5.6099999999999997E-002    -1.5659585888512753     
   5.6400000000000006E-002    -1.7735914551484822     
   5.6700000000000000E-002    -1.9371594702520207     
   5.6999999999999995E-002    -2.0442869091334286     
   5.7300000000000004E-002    -2.0863819756561983     
   5.7599999999999998E-002    -2.0591206232546893     
   5.7900000000000007E-002    -1.9624072023433383     
   5.8200000000000002E-002    -1.8010202665159347     
   5.8499999999999996E-002    -1.5844389967401105     
   5.8800000000000005E-002    -1.3258946253402031     
   5.9100000000000000E-002    -1.0415270581794722     
   5.9400000000000008E-002   -0.74941902699597329     
   5.9700000000000003E-002   -0.46792401454200505     
   6.0000000000000012E-002   -0.21457530607872088     
   6.0300000000000006E-002    -4.7975378071373753E-003
   6.0600000000000001E-002    0.14971984108470837     
   6.0900000000000010E-002    0.24146941842234970     
   6.1200000000000004E-002    0.26817835652149291     
   6.1500000000000013E-002    0.23418862956383929     
   6.1800000000000008E-002    0.14900207085286540     
   6.2100000000000002E-002     2.8542512440419138E-002
   6.2399999999999997E-002   -0.10647100575584056     
   6.2700000000000006E-002   -0.23165786674640065     
   6.3000000000000000E-002   -0.32051765947771604     
   6.3300000000000009E-002   -0.34659938283916819     
   6.3600000000000004E-002   -0.28522573979034593     
   6.3899999999999998E-002   -0.11694025047451656     
   6.4199999999999993E-002    0.17147177626108812     
   6.4500000000000002E-002    0.58395364589623500     
   6.4800000000000010E-002     1.1140023106029635     
   6.5100000000000005E-002     1.7443057968004250     
   6.5400000000000000E-002     2.4465211260057265     
   6.5700000000000008E-002     3.1821519189758627     
   6.5999999999999989E-002     3.9049644658443587     
   6.6299999999999998E-002     4.5637209601342210     
   6.6600000000000006E-002     5.1054025835275789     
   6.6900000000000001E-002     5.4800013466167687     
   6.7199999999999996E-002     5.6436478822201881     
   6.7500000000000004E-002     5.5633040344557871     
   6.7800000000000013E-002     5.2193041143561301     
   6.8099999999999994E-002     4.6080559836969588     
   6.8400000000000002E-002     3.7428671157246614     
   6.8700000000000011E-002     2.6535079627270037     
   6.8999999999999992E-002     1.3850535448634975     
   6.9300000000000000E-002    -4.8700011652440534E-003
   6.9600000000000009E-002    -1.4509824587980935     
   6.9900000000000004E-002    -2.8828784374957244     
   7.0199999999999999E-002    -4.2309392953643048     
   7.0500000000000007E-002    -5.4301941517314498     
   7.0800000000000016E-002    -6.4242243188897667     
   7.1099999999999997E-002    -7.1683612420874860     
   7.1400000000000005E-002    -7.6323833693973846     
   7.1700000000000000E-002    -7.8003936208392251     
   7.1999999999999995E-002    -7.6727169813461806     
   7.2300000000000003E-002    -7.2628964471282282     
   7.2600000000000012E-002    -6.5980553158146265     
   7.2900000000000006E-002    -5.7157301494943766     
   7.3200000000000001E-002    -4.6619442266224684     
   7.3499999999999996E-002    -3.4887384774792256     
   7.3800000000000004E-002    -2.2514807668085117     
   7.4099999999999999E-002    -1.0061482116148348     
   7.4400000000000008E-002    0.19285599953858013     
   7.4700000000000003E-002     1.2949600644791057     
   7.5000000000000011E-002     2.2558847027389444     
   7.5299999999999992E-002     3.0388123290446645     
   7.5600000000000001E-002     3.6166841767770901     
   7.5900000000000009E-002     3.9733292460040630     
   7.6200000000000004E-002     4.1048617794364901     
   7.6499999999999999E-002     4.0199637742467820     
   7.6800000000000007E-002     3.7399204186385671     
   7.7099999999999988E-002     3.2973600907490441     
   7.7399999999999997E-002     2.7349026342848957     
   7.7700000000000005E-002     2.1030833157904611     
   7.8000000000000014E-002     1.4570084341879324     
   7.8299999999999995E-002    0.85365595067241840     
   7.8600000000000003E-002    0.34773456762629895     
   7.8900000000000012E-002    -1.2497387282895012E-002
   7.9199999999999993E-002   -0.18868355878287801     
   7.9500000000000001E-002   -0.15527985763089835     
   7.9800000000000010E-002     9.7412342174908073E-002
   8.0100000000000018E-002    0.56321657194118036     
   8.0399999999999999E-002     1.2182838664141156     
   8.0700000000000008E-002     2.0231604418601408     
   8.1000000000000003E-002     2.9242669447187382     
   8.1299999999999997E-002     3.8567853500205240     
   8.1600000000000006E-002     4.7495318306619652     
   8.1900000000000014E-002     5.5295140122908801     
   8.2199999999999995E-002     6.1276837925676002     
   8.2500000000000004E-002     6.4835699588668705     
   8.2799999999999999E-002     6.5500933996722885     
   8.3100000000000007E-002     6.2972161884231550     
   8.3400000000000002E-002     5.7155778818246361     
   8.3700000000000011E-002     4.8167685097283837     
   8.4000000000000005E-002     3.6345957286469144     
   8.4300000000000000E-002     2.2225711163089645     
   8.4599999999999995E-002    0.65024207184577087     
   8.4900000000000003E-002    -1.0017196308043035     
   8.5199999999999998E-002    -2.6464670269454222     
   8.5500000000000007E-002    -4.1987436151132531     
   8.5800000000000001E-002    -5.5808620321974161     
   8.6100000000000010E-002    -6.7289267992195052     
   8.6399999999999991E-002    -7.5983647746949750     
   8.6699999999999999E-002    -8.1672700398357012     
   8.7000000000000008E-002    -8.4387361037868267     
   8.7300000000000003E-002    -8.4396030941657223     
   8.7599999999999997E-002    -8.2173457212653496     
   8.7900000000000006E-002    -7.8355508733672750     
   8.8200000000000014E-002    -7.3654371815254454     
   8.8499999999999995E-002    -6.8791516742911458     
   8.8800000000000004E-002    -6.4393157714435709     
   8.9100000000000013E-002    -6.0917312581920813     
   8.9399999999999993E-002    -5.8588215709146905     
   8.9700000000000002E-002    -5.7342697533559148     
   9.0000000000000011E-002    -5.6825211204832620     
   9.0299999999999991E-002    -5.6417749642929644     
   9.0600000000000000E-002    -5.5291860745682770     
   9.0900000000000009E-002    -5.2501408410663526     
   9.1200000000000017E-002    -4.7101343267003548     
   9.1499999999999998E-002    -3.8273246090400130     
   9.1800000000000007E-002    -2.5452328541458149     
   9.2100000000000001E-002   -0.84502608508940691     
   9.2399999999999996E-002     1.2480098592956284     
   9.2700000000000005E-002     3.6606380903715063     
   9.3000000000000013E-002     6.2711906574781340     
   9.3300000000000008E-002     8.9171716989104155     
   9.3600000000000003E-002     11.404681935373539     
   9.3899999999999997E-002     13.525017323881867     
   9.4200000000000006E-002     15.070972753138616     
   9.4500000000000001E-002     15.857666152478952     
   9.4800000000000009E-002     15.741085987655900     
   9.5100000000000004E-002     14.632972514488543     
   9.5399999999999999E-002     12.514595287663557     
   9.5699999999999993E-002     9.4434374270880035     
   9.6000000000000002E-002     5.5546481124503302     
   9.6300000000000011E-002     1.0569231284363045     
   9.6600000000000005E-002    -3.7797031495489524     
   9.6900000000000000E-002    -8.6404075837760193     
   9.7200000000000009E-002    -13.187431343043931     
   9.7499999999999989E-002    -17.084122805602359     
   9.7799999999999998E-002    -20.020780587620692     
   9.8100000000000007E-002    -21.737844821730267     
   9.8400000000000015E-002    -22.047765914844916     
   9.8699999999999996E-002    -20.850548840120972     
   9.9000000000000005E-002    -18.146023312993282     
   9.9300000000000013E-002    -14.035320826177003     
   9.9599999999999994E-002    -8.7188625329318299     
   9.9900000000000003E-002    -2.4814442107440993     
  0.10020000000000001          4.3242825993078515     
  0.10049999999999999          11.301682655545322     
  0.10080000000000000          18.037861788046204     
  0.10110000000000001          24.130685474543625     
  0.10140000000000000          29.215191463130019     
  0.10170000000000000          32.991851700331132     
  0.10200000000000001          35.240882465957050     
  0.10230000000000002          35.839961493109534     
  0.10260000000000000          34.766198962220365     
  0.10290000000000001          32.095850706951332     
  0.10320000000000000          27.996131211341613     
  0.10350000000000001          22.709294316700184     
  0.10380000000000000          16.532876826348890     
  0.10410000000000001          9.7974449524261047     
  0.10440000000000001          2.8415712130431707     
  0.10470000000000000         -4.0104343235862041     
  0.10500000000000000         -10.466460517383881     
  0.10530000000000000         -16.284073940012281     
  0.10560000000000000         -21.279391882191110     
  0.10590000000000001         -25.333223998605074     
  0.10620000000000000         -28.388746838434422     
  0.10650000000000001         -30.447530660384420     
  0.10679999999999999         -31.557263881101520     
  0.10710000000000000         -31.800125185958819     
  0.10740000000000001         -31.280451414165032     
  0.10770000000000000         -30.111619891298627     
  0.10800000000000000         -28.407000069291875     
  0.10830000000000001         -26.270394102020340     
  0.10859999999999999         -23.792208348024516     
  0.10890000000000000         -21.044567109443328     
  0.10920000000000001         -18.083953272078038     
  0.10950000000000001         -14.953662466930989     
  0.10979999999999999         -11.688716452651056     
  0.11009999999999999         -8.3199459968229288     
  0.11040000000000001         -4.8795795775925654     
  0.11070000000000001         -1.4033039791301065     
  0.11100000000000000          2.0668664492656301     
  0.11130000000000000          5.4820227239347510     
  0.11160000000000002          8.7845727097990700     
  0.11190000000000001          11.912597618672400     
  0.11220000000000001          14.799342017404795     
  0.11250000000000000          17.379777787912829     
  0.11280000000000000          19.592295001806033     
  0.11309999999999999          21.381699885711537     
  0.11340000000000001          22.703675759646931     
  0.11369999999999998          23.524392181905334     
  0.11400000000000000          23.826503195448549     
  0.11430000000000000          23.607500010489257     
  0.11460000000000002          22.881947145824249     
  0.11489999999999999          21.680484968243135     
  0.11520000000000001          20.047319080576550     
  0.11550000000000001          18.039722221579492     
  0.11580000000000000          15.725982173192094     
  0.11609999999999999          13.181431116972631     
  0.11640000000000002          10.486629993154345     
  0.11670000000000001          7.7230885556297970     
  0.11700000000000001          4.9690123169427789     
  0.11730000000000000          2.2981605423207165     
  0.11760000000000000        -0.22553093010309855     
  0.11789999999999999         -2.5474076373535799     
  0.11820000000000001         -4.6252923035549314     
  0.11850000000000001         -6.4302464409352549     
  0.11880000000000000         -7.9466210398493349     
  0.11910000000000000         -9.1709414872123389     
  0.11940000000000002         -10.113599670082788     
  0.11970000000000001         -10.792707998169789     
  0.12000000000000001         -11.235649662127374     
  0.12030000000000000         -11.474348788030268     
  0.12060000000000000         -11.542803565251452     
  0.12089999999999999         -11.475466001828662     
  0.12119999999999999         -11.302307358082393     
  0.12150000000000001         -11.048727973435312     
  0.12180000000000001         -10.733309471948001     
  0.12210000000000000         -10.365906755457843     
  0.12239999999999999         -9.9481340788991197     
  0.12270000000000002         -9.4743780698247875     
  0.12300000000000001         -8.9331472370183569     
  0.12330000000000001         -8.3102472572831250     
  0.12360000000000000         -7.5905613255345301     
  0.12390000000000000         -6.7609409380505898     
  0.12419999999999999         -5.8136056675941532     
  0.12450000000000001         -4.7467726918578084     
  0.12480000000000001         -3.5679205999707087     
  0.12509999999999999         -2.2956896763393604     
  0.12540000000000001        -0.95679327981994966     
  0.12570000000000003         0.41134303779986348     
  0.12600000000000000          1.7672031414378586     
  0.12630000000000002          3.0644198806627108     
  0.12659999999999999          4.2570168561760617     
  0.12690000000000001          5.3010181610531877     
  0.12719999999999998          6.1595356063869211     
  0.12750000000000000          6.8030579608143622     
  0.12780000000000002          7.2160466424337670     
  0.12809999999999999          7.3933264453352550     
  0.12840000000000001          7.3448600895576037     
  0.12869999999999998          7.0905046632223998     
  0.12900000000000000          6.6614684321610165     
  0.12930000000000003          6.0967125951980314     
  0.12959999999999999          5.4389472583711509     
  0.12990000000000002          4.7328766808568226     
  0.13019999999999998          4.0210437655397993     
  0.13050000000000000          3.3397881596077652     
  0.13080000000000003          2.7194226464717501     
  0.13109999999999999          2.1811180474113732     
  0.13140000000000002          1.7374360222215977     
  0.13169999999999998          1.3915207356270840     
  0.13200000000000001          1.1374466183675809     
  0.13229999999999997         0.96120762967098883     
  0.13260000000000000         0.84599525718310264     
  0.13290000000000002         0.76946322415319135     
  0.13319999999999999         0.71051358386708507     
  0.13350000000000001         0.64828244232331877     
  0.13380000000000003         0.56249493270640494     
  0.13410000000000000         0.43750713334382318     
  0.13440000000000002         0.26202653114085511     
  0.13469999999999999          3.0842110119307903E-002
  0.13500000000000001        -0.25399011736932209     
  0.13529999999999998        -0.58488868665031135     
  0.13560000000000000        -0.94991771600043062     
  0.13590000000000002         -1.3335225044338628     
  0.13619999999999999         -1.7180415333385715     
  0.13650000000000001         -2.0834113162280876     
  0.13680000000000003         -2.4098328003818161     
  0.13710000000000000         -2.6806302034075822     
  0.13740000000000002         -2.8823340421158905     
  0.13769999999999999         -3.0094713014457666     
  0.13800000000000001         -3.0612665024494667     
  0.13829999999999998         -3.0424015160152704     
  0.13860000000000000         -2.9627612297920041     
  0.13890000000000002         -2.8345190425385756     
  0.13919999999999999         -2.6730686011792222     
  0.13950000000000001         -2.4939287922189872     
  0.13979999999999998         -2.3111220514072679     
  0.14010000000000000         -2.1340193227429323     
  0.14040000000000002         -1.9685542368773783     
  0.14069999999999999         -1.8140947124565037     
  0.14100000000000001         -1.6669141087140031     
  0.14130000000000004         -1.5188751375260274     
  0.14160000000000000         -1.3590502764575103     
  0.14189999999999997         -1.1757734222557921     
  0.14219999999999999        -0.95651157633451511     
  0.14250000000000002        -0.69353756780686371     
  0.14279999999999998        -0.38275136656355402     
  0.14310000000000000         -2.5237530521017126E-002
  0.14339999999999997         0.37143722101636523     
  0.14369999999999999         0.79720371140999036     
  0.14400000000000002          1.2374512793070067     
  0.14429999999999998          1.6732034466320280     
  0.14460000000000001          2.0822105234507502     
  0.14490000000000003          2.4418981546287286     
  0.14520000000000000          2.7307964932421411     
  0.14550000000000002          2.9328710740957806     
  0.14579999999999999          3.0370220468903852     
  0.14610000000000001          3.0392771185184446     
  0.14640000000000003          2.9400432810803299     
  0.14670000000000000          2.7450207912990487     
  0.14699999999999996          2.4674946150945973     
  0.14729999999999999          2.1243768416235502     
  0.14760000000000001          1.7399981437839585     
  0.14789999999999998          1.3403500902914385     
  0.14820000000000000         0.94955860099223366     