  -1.4999999999999999E-002     0.0000000000000000     
  -1.4700000000000000E-002     0.0000000000000000     
  -1.4400000000000000E-002     0.0000000000000000     
  -1.4100000000000000E-002     0.0000000000000000     
  -1.3800000000000000E-002     0.0000000000000000     
  -1.3500000000000000E-002     0.0000000000000000     
  -1.3200000000000000E-002     0.0000000000000000     
  -1.2899999999999998E-002     0.0000000000000000     
  -1.2600000000000000E-002     0.0000000000000000     
  -1.2299999999999998E-002     0.0000000000000000     
  -1.2000000000000000E-002     0.0000000000000000     
  -1.1699999999999999E-002     0.0000000000000000     
  -1.1399999999999999E-002     0.0000000000000000     
  -1.1099999999999999E-002     0.0000000000000000     
  -1.0799999999999999E-002     0.0000000000000000     
  -1.0499999999999999E-002     0.0000000000000000     
  -1.0199999999999999E-002     0.0000000000000000     
  -9.8999999999999991E-003     0.0000000000000000     
  -9.5999999999999992E-003     0.0000000000000000     
  -9.2999999999999992E-003     0.0000000000000000     
  -8.9999999999999993E-003     0.0000000000000000     
  -8.6999999999999994E-003     0.0000000000000000     
  -8.3999999999999995E-003     0.0000000000000000     
  -8.0999999999999996E-003     0.0000000000000000     
  -7.7999999999999988E-003     0.0000000000000000     
  -7.4999999999999997E-003     0.0000000000000000     
  -7.1999999999999998E-003     0.0000000000000000     
  -6.8999999999999981E-003     0.0000000000000000     
  -6.5999999999999982E-003     0.0000000000000000     
  -6.3000000000000000E-003     0.0000000000000000     
  -6.0000000000000001E-003     0.0000000000000000     
  -5.6999999999999985E-003     0.0000000000000000     
  -5.3999999999999986E-003     0.0000000000000000     
  -5.1000000000000004E-003     0.0000000000000000     
  -4.7999999999999987E-003     0.0000000000000000     
  -4.5000000000000005E-003     0.0000000000000000     
  -4.1999999999999989E-003     0.0000000000000000     
  -3.8999999999999990E-003     0.0000000000000000     
  -3.5999999999999990E-003     0.0000000000000000     
  -3.2999999999999991E-003     0.0000000000000000     
  -2.9999999999999992E-003     0.0000000000000000     
  -2.6999999999999993E-003     0.0000000000000000     
  -2.3999999999999994E-003     0.0000000000000000     
  -2.0999999999999977E-003     0.0000000000000000     
  -1.7999999999999995E-003     0.0000000000000000     
  -1.4999999999999979E-003     0.0000000000000000     
  -1.1999999999999997E-003     0.0000000000000000     
  -8.9999999999999976E-004     0.0000000000000000     
  -5.9999999999999810E-004     0.0000000000000000     
  -2.9999999999999992E-004     0.0000000000000000     
   0.0000000000000000          0.0000000000000000     
   3.0000000000000165E-004     0.0000000000000000     
   5.9999999999999984E-004     0.0000000000000000     
   9.0000000000000149E-004     0.0000000000000000     
   1.2000000000000031E-003     0.0000000000000000     
   1.5000000000000013E-003     0.0000000000000000     
   1.8000000000000030E-003     0.0000000000000000     
   2.1000000000000012E-003     0.0000000000000000     
   2.3999999999999994E-003     0.0000000000000000     
   2.7000000000000010E-003     0.0000000000000000     
   2.9999999999999992E-003     0.0000000000000000     
   3.3000000000000008E-003     0.0000000000000000     
   3.6000000000000025E-003     0.0000000000000000     
   3.9000000000000007E-003     0.0000000000000000     
   4.2000000000000023E-003     0.0000000000000000     
   4.5000000000000005E-003     0.0000000000000000     
   4.7999999999999987E-003     0.0000000000000000     
   5.1000000000000004E-003     0.0000000000000000     
   5.4000000000000020E-003     0.0000000000000000     
   5.7000000000000037E-003     0.0000000000000000     
   5.9999999999999984E-003     0.0000000000000000     
   6.3000000000000000E-003     0.0000000000000000     
   6.6000000000000017E-003     0.0000000000000000     
   6.9000000000000034E-003     0.0000000000000000     
   7.2000000000000015E-003     0.0000000000000000     
   7.5000000000000032E-003     0.0000000000000000     
   7.8000000000000014E-003     0.0000000000000000     
   8.0999999999999996E-003     0.0000000000000000     
   8.4000000000000012E-003     0.0000000000000000     
   8.7000000000000029E-003     0.0000000000000000     
   9.0000000000000011E-003     0.0000000000000000     
   9.2999999999999992E-003     0.0000000000000000     
   9.6000000000000009E-003     0.0000000000000000     
   9.8999999999999991E-003     0.0000000000000000     
   1.0200000000000001E-002     0.0000000000000000     
   1.0500000000000002E-002     0.0000000000000000     
   1.0800000000000004E-002     0.0000000000000000     
   1.1099999999999999E-002     0.0000000000000000     
   1.1400000000000000E-002     0.0000000000000000     
   1.1700000000000002E-002     0.0000000000000000     
   1.2000000000000004E-002     0.0000000000000000     
   1.2300000000000002E-002     0.0000000000000000     
   1.2600000000000000E-002     0.0000000000000000     
   1.2900000000000002E-002     0.0000000000000000     
   1.3200000000000000E-002     0.0000000000000000     
   1.3500000000000002E-002     0.0000000000000000     
   1.3800000000000003E-002     0.0000000000000000     
   1.4100000000000001E-002     0.0000000000000000     
   1.4400000000000000E-002     0.0000000000000000     
   1.4700000000000001E-002     0.0000000000000000     
   1.4999999999999999E-002     0.0000000000000000     
   1.5300000000000001E-002     0.0000000000000000     
   1.5600000000000003E-002     0.0000000000000000     
   1.5899999999999997E-002     0.0000000000000000     
   1.6199999999999999E-002     0.0000000000000000     
   1.6500000000000001E-002     0.0000000000000000     
   1.6800000000000002E-002     0.0000000000000000     
   1.7100000000000004E-002     0.0000000000000000     
   1.7400000000000006E-002     0.0000000000000000     
   1.7700000000000000E-002     0.0000000000000000     
   1.8000000000000002E-002     0.0000000000000000     
   1.8300000000000004E-002     0.0000000000000000     
   1.8600000000000005E-002     0.0000000000000000     
   1.8900000000000000E-002     0.0000000000000000     
   1.9200000000000002E-002     0.0000000000000000     
   1.9500000000000003E-002     0.0000000000000000     
   1.9799999999999998E-002     0.0000000000000000     
   2.0100000000000000E-002     0.0000000000000000     
   2.0400000000000001E-002     0.0000000000000000     
   2.0700000000000003E-002     0.0000000000000000     
   2.0999999999999998E-002     0.0000000000000000     
   2.1299999999999999E-002     0.0000000000000000     
   2.1600000000000001E-002     0.0000000000000000     
   2.1900000000000003E-002     0.0000000000000000     
   2.2200000000000004E-002     0.0000000000000000     
   2.2500000000000006E-002     0.0000000000000000     
   2.2800000000000001E-002     0.0000000000000000     
   2.3100000000000002E-002     0.0000000000000000     
   2.3400000000000004E-002     0.0000000000000000     
   2.3699999999999999E-002     0.0000000000000000     
   2.4000000000000000E-002     0.0000000000000000     
   2.4300000000000002E-002     0.0000000000000000     
   2.4599999999999997E-002     0.0000000000000000     
   2.4900000000000005E-002     0.0000000000000000     
   2.5200000000000000E-002     0.0000000000000000     
   2.5499999999999995E-002     0.0000000000000000     
   2.5800000000000003E-002     0.0000000000000000     
   2.6099999999999998E-002     0.0000000000000000     
   2.6400000000000007E-002     0.0000000000000000     
   2.6700000000000002E-002     0.0000000000000000     
   2.6999999999999996E-002     0.0000000000000000     
   2.7300000000000005E-002     0.0000000000000000     
   2.7600000000000000E-002     0.0000000000000000     
   2.7900000000000008E-002     0.0000000000000000     
   2.8200000000000003E-002     0.0000000000000000     
   2.8499999999999998E-002     0.0000000000000000     
   2.8800000000000006E-002     0.0000000000000000     
   2.9100000000000001E-002     0.0000000000000000     
   2.9400000000000003E-002     0.0000000000000000     
   2.9700000000000004E-002     0.0000000000000000     
   3.0000000000000006E-002     0.0000000000000000     
   3.0300000000000001E-002     0.0000000000000000     
   3.0600000000000002E-002     0.0000000000000000     
   3.0900000000000004E-002     0.0000000000000000     
   3.1199999999999999E-002     0.0000000000000000     
   3.1500000000000007E-002     0.0000000000000000     
   3.1800000000000002E-002     0.0000000000000000     
   3.2099999999999997E-002     0.0000000000000000     
   3.2400000000000005E-002     0.0000000000000000     
   3.2700000000000000E-002     0.0000000000000000     
   3.3000000000000002E-002     0.0000000000000000     
   3.3300000000000003E-002     0.0000000000000000     
   3.3599999999999998E-002     0.0000000000000000     
   3.3900000000000000E-002     0.0000000000000000     
   3.4200000000000001E-002     0.0000000000000000     
   3.4500000000000003E-002     0.0000000000000000     
   3.4799999999999998E-002     0.0000000000000000     
   3.5099999999999999E-002     0.0000000000000000     
   3.5400000000000001E-002     0.0000000000000000     
   3.5699999999999996E-002     0.0000000000000000     
   3.6000000000000004E-002     0.0000000000000000     
   3.6299999999999999E-002     0.0000000000000000     
   3.6600000000000008E-002     0.0000000000000000     
   3.6900000000000002E-002     0.0000000000000000     
   3.7199999999999997E-002     0.0000000000000000     
   3.7500000000000006E-002     0.0000000000000000     
   3.7800000000000000E-002     0.0000000000000000     
   3.8100000000000009E-002     4.5267042256198441E-042
   3.8400000000000004E-002    -1.6756949432158311E-040
   3.8699999999999998E-002    -4.0807367071655840E-038
   3.9000000000000007E-002    -1.1111942413118704E-036
   3.9300000000000002E-002     6.1888604501859724E-036
   3.9600000000000003E-002    -1.9778060727826146E-035
   3.9900000000000005E-002     3.9805357508955976E-035
   4.0200000000000000E-002    -2.0196391539160977E-034
   4.0500000000000001E-002     3.8518309232692758E-034
   4.0800000000000003E-002     4.9075133642501144E-034
   4.1100000000000005E-002     1.5226672117311217E-034
   4.1399999999999999E-002     8.3465784937781926E-034
   4.1700000000000008E-002    -9.2577714937103641E-033
   4.2000000000000003E-002     2.8576331315513966E-032
   4.2299999999999997E-002    -1.6898558780041989E-032
   4.2600000000000006E-002    -2.3810081332364733E-031
   4.2900000000000001E-002     1.4447713861299899E-030
   4.3200000000000002E-002    -5.4186730443182712E-030
   4.3500000000000004E-002     1.5426376467105297E-029
   4.3799999999999999E-002    -3.3594880785500322E-029
   4.4100000000000000E-002     4.7180967628272916E-029
   4.4400000000000002E-002     1.4487362494571135E-029
   4.4700000000000004E-002    -3.7914007006272139E-028
   4.4999999999999998E-002     1.5911364063843389E-027
   4.5300000000000000E-002    -4.5995356337773202E-027
   4.5600000000000002E-002     1.0226308334678432E-026
   4.5899999999999996E-002    -1.6561812958807344E-026
   4.6200000000000005E-002     1.1504202948475512E-026
   4.6500000000000000E-002     4.2759114113646557E-026
   4.6799999999999994E-002    -2.3108198172317684E-025
   4.7100000000000003E-002     6.8637908397409481E-025
   4.7399999999999998E-002    -1.4779971293332736E-024
   4.7700000000000006E-002     2.1555631425115326E-024
   4.8000000000000001E-002    -4.9057874346362758E-025
   4.8300000000000010E-002    -1.0319449798019045E-023
   4.8600000000000004E-002     4.7135355748706290E-023
   4.8899999999999999E-002    -1.4823683255810067E-022
   4.9200000000000008E-002     4.0571482223695397E-022
   4.9500000000000002E-002    -1.0897872648871751E-021
   4.9800000000000011E-002     3.1523008170574748E-021
   5.0100000000000006E-002    -1.0138774992328399E-020
   5.0400000000000000E-002     3.4861934024062491E-020
   5.0700000000000009E-002    -1.2088346966120577E-019
   5.1000000000000004E-002     4.0614583717701778E-019
   5.1299999999999998E-002    -1.2923594075039897E-018
   5.1600000000000007E-002     3.8198488621278424E-018
   5.1900000000000002E-002    -1.0161643558478009E-017
   5.2200000000000010E-002     2.2571566044824992E-017
   5.2500000000000005E-002    -3.1521939846739814E-017
   5.2800000000000000E-002    -4.4255418452740536E-017
   5.3099999999999994E-002     5.8390063503133401E-016
   5.3400000000000003E-002    -2.9337024567053677E-015
   5.3699999999999998E-002     1.0821658077680849E-014
   5.4000000000000006E-002    -3.1292225949147276E-014
   5.4300000000000001E-002     6.5652969070597187E-014
   5.4599999999999996E-002    -5.4289549388611500E-014
   5.4900000000000004E-002    -3.0872254635789961E-013
   5.5199999999999999E-002     1.9382634600184091E-012
   5.5499999999999994E-002    -6.3015111440274863E-012
   5.5800000000000002E-002     1.1857102955008512E-011
   5.6099999999999997E-002     4.3611148306942868E-013
   5.6400000000000006E-002    -9.3747290965745914E-011
   5.6700000000000000E-002     3.5007961160526476E-010
   5.6999999999999995E-002    -5.4895332503101915E-010
   5.7300000000000004E-002    -7.0047728703522707E-010
   5.7599999999999998E-002     5.9803353582550208E-009
   5.7900000000000007E-002    -1.1799661632556258E-008
   5.8200000000000002E-002    -1.0882628285367649E-008
   5.8499999999999996E-002     9.7541925810840904E-008
   5.8800000000000005E-002    -1.1950814004627015E-007
   5.9100000000000000E-002    -4.7741629132378574E-007
   5.9400000000000008E-002     1.5721222666317884E-006
   5.9700000000000003E-002     6.4499340618389468E-006
   6.0000000000000012E-002     9.2812551558825791E-006
   6.0300000000000006E-002     8.9259668424545250E-006
   6.0600000000000001E-002     1.0871752393219767E-005
   6.0900000000000010E-002     1.6723267347576690E-005
   6.1200000000000004E-002     2.4643729625496927E-005
   6.1500000000000013E-002     3.7035939046373850E-005
   6.1800000000000008E-002     5.7107350642470823E-005
   6.2100000000000002E-002     8.4596570530200545E-005
   6.2399999999999997E-002     1.1953754112853116E-004
   6.2700000000000006E-002     1.6611155555771025E-004
   6.3000000000000000E-002     2.2876002677244103E-004
   6.3300000000000009E-002     3.0812113805832260E-004
   6.3600000000000004E-002     4.0440704206513688E-004
   6.3899999999999998E-002     5.1656891857586632E-004
   6.4199999999999993E-002     6.3988059868454671E-004
   6.4500000000000002E-002     7.6852977217988709E-004
   6.4800000000000010E-002     8.9054849152736385E-004
   6.5100000000000005E-002     9.8152597310813164E-004
   6.5400000000000000E-002     1.0067331186802678E-003
   6.5700000000000008E-002     9.2194616574985187E-004
   6.5999999999999989E-002     6.7223153778039099E-004
   6.6299999999999998E-002     1.8864924405328655E-004
   6.6600000000000006E-002    -6.1402387388487419E-004
   6.6900000000000001E-002    -1.8243927492882887E-003
   6.7199999999999996E-002    -3.5219296209242777E-003
   6.7500000000000004E-002    -5.7782194732926770E-003
   6.7800000000000013E-002    -8.6456070107022234E-003
   6.8099999999999994E-002    -1.2132373071139908E-002
   6.8400000000000002E-002    -1.6188409253229695E-002
   6.8700000000000011E-002    -2.0691553376364986E-002
   6.8999999999999992E-002    -2.5421573696674828E-002
   6.9300000000000000E-002    -3.0049692383884885E-002
   6.9600000000000009E-002    -3.4155864375391184E-002
   6.9900000000000004E-002    -3.7237882011445192E-002
   7.0199999999999999E-002    -3.8715003620183271E-002
   7.0500000000000007E-002    -3.7973172626721105E-002
   7.0800000000000016E-002    -3.4431080121446786E-002
   7.1099999999999997E-002    -2.7599230140256607E-002
   7.1400000000000005E-002    -1.7143961837176640E-002
   7.1700000000000000E-002    -2.9664722719417317E-003
   7.1999999999999995E-002     1.4729730199659528E-002
   7.2300000000000003E-002     3.5400977589523111E-002
   7.2600000000000012E-002     5.8143739277856307E-002
   7.2900000000000006E-002     8.1709240170175931E-002
   7.3200000000000001E-002    0.10455833557404634     
   7.3499999999999996E-002    0.12495047894054451     
   7.3800000000000004E-002    0.14108723416819968     
   7.4099999999999999E-002    0.15126588702829147     
   7.4400000000000008E-002    0.15404531878375227     
   7.4700000000000003E-002    0.14841903208092899     
   7.5000000000000011E-002    0.13396754595652380     
   7.5299999999999992E-002    0.11098554790331230     
   7.5600000000000001E-002     8.0520044726470189E-002
   7.5900000000000009E-002     4.4353626650865549E-002
   7.6200000000000004E-002     4.9375151357716144E-003
   7.6499999999999999E-002    -3.4762900747610598E-002
   7.6800000000000007E-002    -7.1503826254692121E-002
   7.7099999999999988E-002   -0.10202183238576161     
   7.7399999999999997E-002   -0.12332698737579104     
   7.7700000000000005E-002   -0.13300760293137576     
   7.8000000000000014E-002   -0.12949452824548333     
   7.8299999999999995E-002   -0.11227007310069143     
   7.8600000000000003E-002    -8.2008103941343669E-002
   7.8900000000000012E-002    -4.0618035955797820E-002
   7.9199999999999993E-002     8.8457380968130165E-003
   7.9500000000000001E-002     6.2388937076141959E-002
   7.9800000000000010E-002    0.11535155861958435     
   8.0100000000000018E-002    0.16275041480642671     
   8.0399999999999999E-002    0.19976756603308646     
   8.0700000000000008E-002    0.22219566420156231     
   8.1000000000000003E-002    0.22680439243035994     
   8.1299999999999997E-002    0.21173860243673429     
   8.1600000000000006E-002    0.17677440465177574     
   8.1900000000000014E-002    0.12337469360931377     
   8.2199999999999995E-002     5.4637835653824671E-002
   8.2500000000000004E-002    -2.4848707120146953E-002
   8.2799999999999999E-002   -0.10938281365582947     
   8.3100000000000007E-002   -0.19269969777708085     
   8.3400000000000002E-002   -0.26842766220777298     
   8.3700000000000011E-002   -0.33065149126134830     
   8.4000000000000005E-002   -0.37452389581100975     
   8.4300000000000000E-002   -0.39665237589956348     
   8.4599999999999995E-002   -0.39536271607769041     
   8.4900000000000003E-002   -0.37093681604877526     
   8.5199999999999998E-002   -0.32553178644370095     
   8.5500000000000007E-002   -0.26290264830272636     
   8.5800000000000001E-002   -0.18819769358877508     
   8.6100000000000010E-002   -0.10746227603023419     
   8.6399999999999991E-002    -2.6979741863616229E-002
   8.6699999999999999E-002     4.7102769135449606E-002
   8.7000000000000008E-002    0.10922799249003252     
   8.7300000000000003E-002    0.15493624297163089     
   8.7599999999999997E-002    0.18113011370480658     
   8.7900000000000006E-002    0.18617872921057749     
   8.8200000000000014E-002    0.16990773052688371     
   8.8499999999999995E-002    0.13361749119578187     
   8.8800000000000004E-002     7.9904040208894841E-002
   8.9100000000000013E-002     1.2272605744362931E-002
   8.9399999999999993E-002    -6.4932698836627681E-002
   8.9700000000000002E-002   -0.14691472154900131     
   9.0000000000000011E-002   -0.22883026116282840     
   9.0299999999999991E-002   -0.30573397083924270     
   9.0600000000000000E-002   -0.37293261836848868     
   9.0900000000000009E-002   -0.42632466632820515     
   9.1200000000000017E-002   -0.46232671668214398     
   9.1499999999999998E-002   -0.47804628655805126     
   9.1800000000000007E-002   -0.47147063411642853     
   9.2100000000000001E-002   -0.44157525042022183     
   9.2399999999999996E-002   -0.38823167434618533     
   9.2700000000000005E-002   -0.31238732209069442     
   9.3000000000000013E-002   -0.21616739379792382     
   9.3300000000000008E-002   -0.10261141237669805     
   9.3600000000000003E-002     2.4287829525326786E-002
   9.3899999999999997E-002    0.15960964399703353     
   9.4200000000000006E-002    0.29789005650741041     
   9.4500000000000001E-002    0.43327358451566883     
   9.4800000000000009E-002    0.55982903411191565     
   9.5100000000000004E-002    0.67183736336110789     
   9.5399999999999999E-002    0.76421215077934601     
   9.5699999999999993E-002    0.83265385182539808     
   9.6000000000000002E-002    0.87410829048480387     
   9.6300000000000011E-002    0.88699984079624250     
   9.6600000000000005E-002    0.87104437751178665     
   9.6900000000000000E-002    0.82758896414543726     
   9.7200000000000009E-002    0.75953051961766871     
   9.7499999999999989E-002    0.67093374394855654     
   9.7799999999999998E-002    0.56680353952097096     
   9.8100000000000007E-002    0.45279606246695969     
   9.8400000000000015E-002    0.33492880907645772     
   9.8699999999999996E-002    0.21890717057691034     
   9.9000000000000005E-002    0.10978764740780378     
   9.9300000000000013E-002     1.1929088201242641E-002
   9.9599999999999994E-002    -7.1468945888616159E-002
   9.9900000000000003E-002   -0.13863171928348444     
  0.10020000000000001        -0.18902184994026425     
  0.10049999999999999        -0.22308359488492760     
  0.10080000000000000        -0.24249969849661562     
  0.10110000000000001        -0.24980741582491695     
  0.10140000000000000        -0.24782745536210504     
  0.10170000000000000        -0.23960564552099439     
  0.10200000000000001        -0.22833403602729796     
  0.10230000000000002        -0.21687477837742117     
  0.10260000000000000        -0.20749961206575601     
  0.10290000000000001        -0.20223306667852620     
  0.10320000000000000        -0.20265670801538993     
  0.10350000000000001        -0.20960534473829118     
  0.10380000000000000        -0.22376453752147560     
  0.10410000000000001        -0.24554102385341015     
  0.10440000000000001        -0.27493478602543409     
  0.10470000000000000        -0.31179176291446153     
  0.10500000000000000        -0.35582877529197021     
  0.10530000000000000        -0.40651536361998980     
  0.10560000000000000        -0.46293920822709655     
  0.10590000000000001        -0.52392275444429970     
  0.10620000000000000        -0.58792181870197391     
  0.10650000000000001        -0.65279718869869607     
  0.10679999999999999        -0.71595580278649107     
  0.10710000000000000        -0.77437768861827305     
  0.10740000000000001        -0.82462129204341128     
  0.10770000000000000        -0.86287975839641151     
  0.10800000000000000        -0.88524329235992549     
  0.10830000000000001        -0.88784255175167148     
  0.10859999999999999        -0.86708993051088901     
  0.10890000000000000        -0.81988526525141114     
  0.10920000000000001        -0.74390378643810506     
  0.10950000000000001        -0.63787840900746573     
  0.10979999999999999        -0.50164325152814149     
  0.11009999999999999        -0.33666036143693567     
  0.11040000000000001        -0.14602674924717302     
  0.11070000000000001          6.5712305002370811E-002
  0.11100000000000000         0.29217419967454494     
  0.11130000000000000         0.52538987482486477     
  0.11160000000000002         0.75635751824262565     
  0.11190000000000001         0.97519283329643791     
  0.11220000000000001          1.1716698471735876     
  0.11250000000000000          1.3360708469585818     
  0.11280000000000000          1.4597436537184376     
  0.11309999999999999          1.5357959008590210     
  0.11340000000000001          1.5597452314093794     
  0.11369999999999998          1.5300062132073977     
  0.11400000000000000          1.4481820426000380     
  0.11430000000000000          1.3188610827508085     
  0.11460000000000002          1.1494931952788423     
  0.11489999999999999         0.94993687571436225     
  0.11520000000000001         0.73144221402040965     
  0.11550000000000001         0.50582139263489490     
  0.11580000000000000         0.28470489780032548     
  0.11609999999999999          7.8350114927503947E-002
  0.11640000000000002        -0.10504720124105441     
  0.11670000000000001        -0.25980180299231642     
  0.11700000000000001        -0.38289110547740346     
  0.11730000000000000        -0.47403911749500272     
  0.11760000000000000        -0.53540238507667492     
  0.11789999999999999        -0.57075175296997083     
  0.11820000000000001        -0.58476636747660959     
  0.11850000000000001        -0.58256050042651286     
  0.11880000000000000        -0.56863090926450011     
  0.11910000000000000        -0.54640875022769286     
  0.11940000000000002        -0.51798272441995374     
  0.11970000000000001        -0.48381650889539807     
  0.12000000000000001        -0.44315771271291704     
  0.12030000000000000        -0.39438611232390558     
  0.12060000000000000        -0.33517339118300682     
  0.12089999999999999        -0.26359665448698349     
  0.12119999999999999        -0.17859001114694495     
  0.12150000000000001         -8.0007106139742573E-002
  0.12180000000000001          3.0462099929597312E-002
  0.12210000000000000         0.14949058062376316     
  0.12239999999999999         0.27249250014078158     
  0.12270000000000002         0.39341000071152954     
  0.12300000000000001         0.50565203423382121     
  0.12330000000000001         0.60260687190543183     
  0.12360000000000000         0.67815404253053280     
  0.12390000000000000         0.72740897894414558     
  0.12419999999999999         0.74690688432610119     
  0.12450000000000001         0.73525061849203643     
  0.12480000000000001         0.69278685894042003     
  0.12509999999999999         0.62159040058921433     
  0.12540000000000001         0.52550562972792147     
  0.12570000000000003         0.40897618228548277     
  0.12600000000000000         0.27717002147803255     
  0.12630000000000002         0.13538575016415669     
  0.12659999999999999         -1.1869624904366757E-002
  0.12690000000000001        -0.16076915265584760     
  0.12719999999999998        -0.30832398957707358     
  0.12750000000000000        -0.45250754583191477     
  0.12780000000000002        -0.59239473754245719     
  0.12809999999999999        -0.72732866130549878     
  0.12840000000000001        -0.85658108433081548     
  0.12869999999999998        -0.97955310574069498     
  0.12900000000000000         -1.0947790642459754     
  0.12930000000000003         -1.1997543068879093     
  0.12959999999999999         -1.2910474307347370     
  0.12990000000000002         -1.3640997105275321     
  0.13019999999999998         -1.4136307293598480     
  0.13050000000000000         -1.4337460380646254     
  0.13080000000000003         -1.4187386764861705     
  0.13109999999999999         -1.3636615588007923     
  0.13140000000000002         -1.2645623194411526     
  0.13169999999999998         -1.1194575080384697     
  0.13200000000000001        -0.92871796073118507     
  0.13229999999999997        -0.69512373902324331     
  0.13260000000000000        -0.42414957694476529     
  0.13290000000000002        -0.12379632226830437     
  0.13319999999999999         0.19574059617810630     
  0.13350000000000001         0.52266392373587356     
  0.13380000000000003         0.84410544282068356     
  0.13410000000000000          1.1469133557116820     
  0.13440000000000002          1.4184902729075675     
  0.13469999999999999          1.6472361274585026     
  0.13500000000000001          1.8234424511319913     
  0.13529999999999998          1.9396337653051088     
  0.13560000000000000          1.9907599345352121     
  0.13590000000000002          1.9747073896983247     
  0.13619999999999999          1.8920462954792465     
  0.13650000000000001          1.7456819882400234     
  0.13680000000000003          1.5412755576947084     
  0.13710000000000000          1.2866543419769503     
  0.13740000000000002         0.99135389338161106     
  0.13769999999999999         0.66646976525489721     
  0.13800000000000001         0.32462817238528502     
  0.13829999999999998         -2.0805757536235786E-002
  0.13860000000000000        -0.35615468413009022     
  0.13890000000000002        -0.66749994652304812     
  0.13919999999999999        -0.94126193579664319     
  0.13950000000000001         -1.1654710942351729     
  0.13979999999999998         -1.3298061089308899     
  0.14010000000000000         -1.4264884629110366     
  0.14040000000000002         -1.4509248455034631     
  0.14069999999999999         -1.4026367972785201     
  0.14100000000000001         -1.2851343288843640     
  0.14130000000000004         -1.1059206158017654     
  0.14160000000000000        -0.87683302711832956     
  0.14189999999999997        -0.61306047333157243     
  0.14219999999999999        -0.33204085692340157     
  0.14250000000000002         -5.2677525059751179E-002
  0.14279999999999998         0.20630298706176450     
  0.14310000000000000         0.42762375851781098     
  0.14339999999999997         0.59703707110829396     
  0.14369999999999999         0.70433576437798906     
  0.14400000000000002         0.74391272945271236     
  0.14429999999999998         0.71555967016497113     
  0.14460000000000001         0.62422739868482235     
  0.14490000000000003         0.47920036901239649     
  0.14520000000000000         0.29346114335275053     
  0.14550000000000002          8.2559836478416554E-002
  0.14579999999999999        -0.13715025194460762     
  0.14610000000000001        -0.34973585841362803     
  0.14640000000000003        -0.54067695105286417     
  0.14670000000000000        -0.69823281670270188     
  0.14699999999999996        -0.81407472352825860     
  0.14729999999999999        -0.88306077292002616     
  0.14760000000000001        -0.90361532788746701     
  0.14789999999999998        -0.87733071906933424     
  0.14820000000000000        -0.80804879925802964     