  -1.4999999999999999E-002     0.0000000000000000     
  -1.4700000000000000E-002     0.0000000000000000     
  -1.4400000000000000E-002     0.0000000000000000     
  -1.4100000000000000E-002     0.0000000000000000     
  -1.3800000000000000E-002     0.0000000000000000     
  -1.3500000000000000E-002     0.0000000000000000     
  -1.3200000000000000E-002     0.0000000000000000     
  -1.2899999999999998E-002     0.0000000000000000     
  -1.2600000000000000E-002     0.0000000000000000     
  -1.2299999999999998E-002     0.0000000000000000     
  -1.2000000000000000E-002     0.0000000000000000     
  -1.1699999999999999E-002     0.0000000000000000     
  -1.1399999999999999E-002     0.0000000000000000     
  -1.1099999999999999E-002     0.0000000000000000     
  -1.0799999999999999E-002     0.0000000000000000     
  -1.0499999999999999E-002     0.0000000000000000     
  -1.0199999999999999E-002     0.0000000000000000     
  -9.8999999999999991E-003     0.0000000000000000     
  -9.5999999999999992E-003     0.0000000000000000     
  -9.2999999999999992E-003     0.0000000000000000     
  -8.9999999999999993E-003     0.0000000000000000     
  -8.6999999999999994E-003     0.0000000000000000     
  -8.3999999999999995E-003     0.0000000000000000     
  -8.0999999999999996E-003     0.0000000000000000     
  -7.7999999999999988E-003     0.0000000000000000     
  -7.4999999999999997E-003     0.0000000000000000     
  -7.1999999999999998E-003     0.0000000000000000     
  -6.8999999999999981E-003     0.0000000000000000     
  -6.5999999999999982E-003     0.0000000000000000     
  -6.3000000000000000E-003     0.0000000000000000     
  -6.0000000000000001E-003     0.0000000000000000     
  -5.6999999999999985E-003     0.0000000000000000     
  -5.3999999999999986E-003     0.0000000000000000     
  -5.1000000000000004E-003     0.0000000000000000     
  -4.7999999999999987E-003     0.0000000000000000     
  -4.5000000000000005E-003     0.0000000000000000     
  -4.1999999999999989E-003     0.0000000000000000     
  -3.8999999999999990E-003     0.0000000000000000     
  -3.5999999999999990E-003     0.0000000000000000     
  -3.2999999999999991E-003     0.0000000000000000     
  -2.9999999999999992E-003     0.0000000000000000     
  -2.6999999999999993E-003     0.0000000000000000     
  -2.3999999999999994E-003     0.0000000000000000     
  -2.0999999999999977E-003     0.0000000000000000     
  -1.7999999999999995E-003     0.0000000000000000     
  -1.4999999999999979E-003     0.0000000000000000     
  -1.1999999999999997E-003     0.0000000000000000     
  -8.9999999999999976E-004     0.0000000000000000     
  -5.9999999999999810E-004     0.0000000000000000     
  -2.9999999999999992E-004     0.0000000000000000     
   0.0000000000000000          0.0000000000000000     
   3.0000000000000165E-004     0.0000000000000000     
   5.9999999999999984E-004     0.0000000000000000     
   9.0000000000000149E-004     0.0000000000000000     
   1.2000000000000031E-003     0.0000000000000000     
   1.5000000000000013E-003     0.0000000000000000     
   1.8000000000000030E-003     0.0000000000000000     
   2.1000000000000012E-003     0.0000000000000000     
   2.3999999999999994E-003     0.0000000000000000     
   2.7000000000000010E-003     0.0000000000000000     
   2.9999999999999992E-003     0.0000000000000000     
   3.3000000000000008E-003     0.0000000000000000     
   3.6000000000000025E-003     0.0000000000000000     
   3.9000000000000007E-003     0.0000000000000000     
   4.2000000000000023E-003     0.0000000000000000     
   4.5000000000000005E-003     0.0000000000000000     
   4.7999999999999987E-003     0.0000000000000000     
   5.1000000000000004E-003     0.0000000000000000     
   5.4000000000000020E-003     0.0000000000000000     
   5.7000000000000037E-003     0.0000000000000000     
   5.9999999999999984E-003     0.0000000000000000     
   6.3000000000000000E-003     0.0000000000000000     
   6.6000000000000017E-003     0.0000000000000000     
   6.9000000000000034E-003     0.0000000000000000     
   7.2000000000000015E-003     0.0000000000000000     
   7.5000000000000032E-003     0.0000000000000000     
   7.8000000000000014E-003     0.0000000000000000     
   8.0999999999999996E-003     0.0000000000000000     
   8.4000000000000012E-003     0.0000000000000000     
   8.7000000000000029E-003     0.0000000000000000     
   9.0000000000000011E-003     0.0000000000000000     
   9.2999999999999992E-003     0.0000000000000000     
   9.6000000000000009E-003     0.0000000000000000     
   9.8999999999999991E-003     0.0000000000000000     
   1.0200000000000001E-002     0.0000000000000000     
   1.0500000000000002E-002     0.0000000000000000     
   1.0800000000000004E-002     0.0000000000000000     
   1.1099999999999999E-002     0.0000000000000000     
   1.1400000000000000E-002     0.0000000000000000     
   1.1700000000000002E-002     0.0000000000000000     
   1.2000000000000004E-002     0.0000000000000000     
   1.2300000000000002E-002     0.0000000000000000     
   1.2600000000000000E-002     0.0000000000000000     
   1.2900000000000002E-002     0.0000000000000000     
   1.3200000000000000E-002     0.0000000000000000     
   1.3500000000000002E-002     0.0000000000000000     
   1.3800000000000003E-002     0.0000000000000000     
   1.4100000000000001E-002     0.0000000000000000     
   1.4400000000000000E-002     0.0000000000000000     
   1.4700000000000001E-002     0.0000000000000000     
   1.4999999999999999E-002     0.0000000000000000     
   1.5300000000000001E-002     0.0000000000000000     
   1.5600000000000003E-002     0.0000000000000000     
   1.5899999999999997E-002     0.0000000000000000     
   1.6199999999999999E-002     0.0000000000000000     
   1.6500000000000001E-002     0.0000000000000000     
   1.6800000000000002E-002     0.0000000000000000     
   1.7100000000000004E-002     0.0000000000000000     
   1.7400000000000006E-002     0.0000000000000000     
   1.7700000000000000E-002     0.0000000000000000     
   1.8000000000000002E-002     0.0000000000000000     
   1.8300000000000004E-002     0.0000000000000000     
   1.8600000000000005E-002     0.0000000000000000     
   1.8900000000000000E-002     0.0000000000000000     
   1.9200000000000002E-002     0.0000000000000000     
   1.9500000000000003E-002     0.0000000000000000     
   1.9799999999999998E-002     0.0000000000000000     
   2.0100000000000000E-002     0.0000000000000000     
   2.0400000000000001E-002     0.0000000000000000     
   2.0700000000000003E-002     0.0000000000000000     
   2.0999999999999998E-002     0.0000000000000000     
   2.1299999999999999E-002     0.0000000000000000     
   2.1600000000000001E-002     0.0000000000000000     
   2.1900000000000003E-002     0.0000000000000000     
   2.2200000000000004E-002     0.0000000000000000     
   2.2500000000000006E-002     0.0000000000000000     
   2.2800000000000001E-002     0.0000000000000000     
   2.3100000000000002E-002     0.0000000000000000     
   2.3400000000000004E-002     0.0000000000000000     
   2.3699999999999999E-002     0.0000000000000000     
   2.4000000000000000E-002     0.0000000000000000     
   2.4300000000000002E-002     0.0000000000000000     
   2.4599999999999997E-002     0.0000000000000000     
   2.4900000000000005E-002     0.0000000000000000     
   2.5200000000000000E-002     0.0000000000000000     
   2.5499999999999995E-002     0.0000000000000000     
   2.5800000000000003E-002     0.0000000000000000     
   2.6099999999999998E-002     0.0000000000000000     
   2.6400000000000007E-002     0.0000000000000000     
   2.6700000000000002E-002     0.0000000000000000     
   2.6999999999999996E-002     0.0000000000000000     
   2.7300000000000005E-002     0.0000000000000000     
   2.7600000000000000E-002     0.0000000000000000     
   2.7900000000000008E-002     0.0000000000000000     
   2.8200000000000003E-002     0.0000000000000000     
   2.8499999999999998E-002     0.0000000000000000     
   2.8800000000000006E-002     0.0000000000000000     
   2.9100000000000001E-002     0.0000000000000000     
   2.9400000000000003E-002     0.0000000000000000     
   2.9700000000000004E-002     0.0000000000000000     
   3.0000000000000006E-002     0.0000000000000000     
   3.0300000000000001E-002     0.0000000000000000     
   3.0600000000000002E-002     0.0000000000000000     
   3.0900000000000004E-002     0.0000000000000000     
   3.1199999999999999E-002     0.0000000000000000     
   3.1500000000000007E-002     0.0000000000000000     
   3.1800000000000002E-002     0.0000000000000000     
   3.2099999999999997E-002     0.0000000000000000     
   3.2400000000000005E-002     0.0000000000000000     
   3.2700000000000000E-002     0.0000000000000000     
   3.3000000000000002E-002     0.0000000000000000     
   3.3300000000000003E-002     0.0000000000000000     
   3.3599999999999998E-002     0.0000000000000000     
   3.3900000000000000E-002     0.0000000000000000     
   3.4200000000000001E-002     0.0000000000000000     
   3.4500000000000003E-002     0.0000000000000000     
   3.4799999999999998E-002     0.0000000000000000     
   3.5099999999999999E-002     0.0000000000000000     
   3.5400000000000001E-002     0.0000000000000000     
   3.5699999999999996E-002     3.0210478480929733E-044
   3.6000000000000004E-002     1.0266553711140966E-037
   3.6299999999999999E-002    -9.3460662407707349E-036
   3.6600000000000008E-002     3.9015521409006619E-035
   3.6900000000000002E-002    -2.1050681453053433E-034
   3.7199999999999997E-002     6.1989968596324972E-034
   3.7500000000000006E-002    -1.2768686884562745E-033
   3.7800000000000000E-002     5.8994776560387230E-033
   3.8100000000000009E-002    -3.2666173521184934E-032
   3.8400000000000004E-002     1.4445491153864494E-031
   3.8699999999999998E-002    -5.1846680430214350E-031
   3.9000000000000007E-002     1.5770372998654455E-030
   3.9300000000000002E-002    -4.1273151959309913E-030
   3.9600000000000003E-002     9.0864858767727694E-030
   3.9900000000000005E-002    -1.5231772221260543E-029
   4.0200000000000000E-002     1.0671569820914706E-029
   4.0500000000000001E-002     5.0879135211871367E-029
   4.0800000000000003E-002    -3.0069200255550298E-028
   4.1100000000000005E-002     1.0273834332967039E-027
   4.1399999999999999E-002    -2.6802638293169165E-027
   4.1700000000000008E-002     5.4647508960055696E-027
   4.2000000000000003E-002    -7.6957857486143848E-027
   4.2299999999999997E-002     1.5272859342121564E-027
   4.2600000000000006E-002     3.4754887839034703E-026
   4.2900000000000001E-002    -1.4377955234161279E-025
   4.3200000000000002E-002     3.7667516617826974E-025
   4.3500000000000004E-002    -7.1494560055428948E-025
   4.3799999999999999E-002     8.5634753147912147E-025
   4.4100000000000000E-002     1.5964904804246425E-025
   4.4400000000000002E-002    -4.2564141310434457E-024
   4.4700000000000004E-002     1.3721177658972712E-023
   4.4999999999999998E-002    -2.8091456995360103E-023
   4.5300000000000000E-002     3.7058175077869528E-023
   4.5600000000000002E-002    -1.1404178701048115E-023
   4.5899999999999996E-002    -9.6774961278875697E-023
   4.6200000000000005E-002     3.2127638978423214E-022
   4.6500000000000000E-002    -5.9456343416006943E-022
   4.6799999999999994E-002     6.2648546837586532E-022
   4.7100000000000003E-002     1.5161533991062087E-022
   4.7399999999999998E-002    -2.4911572466741043E-021
   4.7700000000000006E-002     7.3591762891524127E-021
   4.8000000000000001E-002    -1.6949055107158511E-020
   4.8300000000000010E-002     3.6195968783555722E-020
   4.8600000000000004E-002    -6.6398933390586971E-020
   4.8899999999999999E-002     6.8931741880602686E-020
   4.9200000000000008E-002     1.1035743204392849E-019
   4.9500000000000002E-002    -7.6231237810055385E-019
   4.9800000000000011E-002     2.1171096004340920E-018
   5.0100000000000006E-002    -4.7808394739663290E-018
   5.0400000000000000E-002     1.6476087582814486E-017
   5.0700000000000009E-002    -8.0615813386441415E-017
   5.1000000000000004E-002     3.4178643094321508E-016
   5.1299999999999998E-002    -1.0936382033031538E-015
   5.1600000000000007E-002     2.5225260957651335E-015
   5.1900000000000002E-002    -3.5023009438433121E-015
   5.2200000000000010E-002    -1.1543170808052139E-015
   5.2500000000000005E-002     2.4027334699836785E-014
   5.2800000000000000E-002    -8.4944691560200456E-014
   5.3099999999999994E-002     2.0383039333622527E-013
   5.3400000000000003E-002    -3.9939021322947349E-013
   5.3699999999999998E-002     7.3565556782349792E-013
   5.4000000000000006E-002    -1.3710001280709011E-012
   5.4300000000000001E-002     1.8049663226593263E-012
   5.4599999999999996E-002     3.9601779828691673E-012
   5.4900000000000004E-002    -4.1706097375868970E-011
   5.5199999999999999E-002     1.6625711493531385E-010
   5.5499999999999994E-002    -3.5148342199530703E-010
   5.5800000000000002E-002     3.9956411581660449E-012
   5.6099999999999997E-002     2.6231728292949271E-009
   5.6400000000000006E-002    -7.8938741379758874E-009
   5.6700000000000000E-002     3.2788259713114924E-009
   5.6999999999999995E-002     3.9652240298071153E-008
   5.7300000000000004E-002    -9.3682741668496103E-008
   5.7599999999999998E-002    -1.0008395732379656E-007
   5.7900000000000007E-002     7.2451798864005149E-007
   5.8200000000000002E-002     1.7164637548587932E-006
   5.8499999999999996E-002     1.8748294540428558E-006
   5.8800000000000005E-002     1.8431529089152418E-006
   5.9100000000000000E-002     2.3180257673473882E-006
   5.9400000000000008E-002     3.5254973745143383E-006
   5.9700000000000003E-002     5.6510276084209533E-006
   6.0000000000000012E-002     8.5490619613345166E-006
   6.0300000000000006E-002     1.2891745093596884E-005
   6.0600000000000001E-002     1.9814182771951084E-005
   6.0900000000000010E-002     2.9836787887849777E-005
   6.1200000000000004E-002     4.2166753993506332E-005
   6.1500000000000013E-002     5.6066496910377905E-005
   6.1800000000000008E-002     7.3785383439436722E-005
   6.2100000000000002E-002     9.7300982388415374E-005
   6.2399999999999997E-002     1.2626351545345959E-004
   6.2700000000000006E-002     1.6034897788895790E-004
   6.3000000000000000E-002     1.9855401508467893E-004
   6.3300000000000009E-002     2.3967633222656153E-004
   6.3600000000000004E-002     2.8126496485335854E-004
   6.3899999999999998E-002     3.1719169319904112E-004
   6.4199999999999993E-002     3.3987620592854562E-004
   6.4500000000000002E-002     3.4177621610185057E-004
   6.4800000000000010E-002     3.1436374686597457E-004
   6.5100000000000005E-002     2.4733915576811462E-004
   6.5400000000000000E-002     1.2730644405653603E-004
   6.5700000000000008E-002    -6.0781971780241725E-005
   6.5999999999999989E-002    -3.2815909307085670E-004
   6.6299999999999998E-002    -6.8159243321752453E-004
   6.6600000000000006E-002    -1.1262980089705482E-003
   6.6900000000000001E-002    -1.6623621984327417E-003
   6.7199999999999996E-002    -2.2788848589970034E-003
   6.7500000000000004E-002    -2.9564420912148452E-003
   6.7800000000000013E-002    -3.6723563032557294E-003
   6.8099999999999994E-002    -4.3953241113041932E-003
   6.8400000000000002E-002    -5.0827975744975320E-003
   6.8700000000000011E-002    -5.6909540051114302E-003
   6.8999999999999992E-002    -6.1806215098889937E-003
   6.9300000000000000E-002    -6.5198794736644351E-003
   6.9600000000000009E-002    -6.6845973305428696E-003
   6.9900000000000004E-002    -6.6589221119170384E-003
   7.0199999999999999E-002    -6.4431728006329268E-003
   7.0500000000000007E-002    -6.0516261109956442E-003
   7.0800000000000016E-002    -5.5005769323740366E-003
   7.1099999999999997E-002    -4.8124314940661281E-003
   7.1400000000000005E-002    -4.0026916593248760E-003
   7.1700000000000000E-002    -3.0744873685385407E-003
   7.1999999999999995E-002    -2.0132075598648571E-003
   7.2300000000000003E-002    -7.8600022572292171E-004
   7.2600000000000012E-002     6.7371292238788279E-004
   7.2900000000000006E-002     2.4422041894020300E-003
   7.3200000000000001E-002     4.5723104292282844E-003
   7.3499999999999996E-002     7.0921123732407693E-003
   7.3800000000000004E-002     9.9791120613445163E-003
   7.4099999999999999E-002     1.3133780438123452E-002
   7.4400000000000008E-002     1.6345068614176381E-002
   7.4700000000000003E-002     1.9280830604405913E-002
   7.5000000000000011E-002     2.1471810161104693E-002
   7.5299999999999992E-002     2.2343105526409987E-002
   7.5600000000000001E-002     2.1232706467474549E-002
   7.5900000000000009E-002     1.7436292758242568E-002
   7.6200000000000004E-002     1.0297874243379182E-002
   7.6499999999999999E-002    -7.2737708467529821E-004
   7.6800000000000007E-002    -1.5994666119467500E-002
   7.7099999999999988E-002    -3.5558344547510230E-002
   7.7399999999999997E-002    -5.9136967992507054E-002
   7.7700000000000005E-002    -8.6055411327536732E-002
   7.8000000000000014E-002   -0.11523464411085939     
   7.8299999999999995E-002   -0.14523937889641769     
   7.8600000000000003E-002   -0.17434900823941038     
   7.8900000000000012E-002   -0.20063242342187920     
   7.9199999999999993E-002   -0.22214929938642117     
   7.9500000000000001E-002   -0.23705393343847833     
   7.9800000000000010E-002   -0.24380728884237443     
   8.0100000000000018E-002   -0.24129073536015583     
   8.0399999999999999E-002   -0.22890789870477124     
   8.0700000000000008E-002   -0.20671267644201424     
   8.1000000000000003E-002   -0.17534812827125054     
   8.1299999999999997E-002   -0.13608885500224083     
   8.1600000000000006E-002    -9.0661856677016761E-002
   8.1900000000000014E-002    -4.1189535734866889E-002
   8.2199999999999995E-002     1.0015263011599558E-002
   8.2500000000000004E-002     6.0564548178474675E-002
   8.2799999999999999E-002    0.10822262945148553     
   8.3100000000000007E-002    0.15098115614178276     
   8.3400000000000002E-002    0.18713061478837700     
   8.3700000000000011E-002    0.21541279602999469     
   8.4000000000000005E-002    0.23490837269221637     
   8.4300000000000000E-002    0.24521112433326081     
   8.4599999999999995E-002    0.24620105192814637     
   8.4900000000000003E-002    0.23826063863352867     
   8.5199999999999998E-002    0.22208947916754557     
   8.5500000000000007E-002    0.19879331434295502     
   8.5800000000000001E-002    0.16987130543887463     
   8.6100000000000010E-002    0.13719392081709261     
   8.6399999999999991E-002    0.10306497705904921     
   8.6699999999999999E-002     7.0014825536215131E-002
   8.7000000000000008E-002     4.0881385126842064E-002
   8.7300000000000003E-002     1.8452432217706545E-002
   8.7599999999999997E-002     5.4456346769266931E-003
   8.7900000000000006E-002     4.0795514602430943E-003
   8.8200000000000014E-002     1.5873319237914390E-002
   8.8499999999999995E-002     4.1426030332411927E-002
   8.8800000000000004E-002     8.0172036564397253E-002
   8.9100000000000013E-002    0.13029765416889172     
   8.9399999999999993E-002    0.18873966984965412     
   8.9700000000000002E-002    0.25139869942534937     
   9.0000000000000011E-002    0.31326877194852010     
   9.0299999999999991E-002    0.36904280882055085     
   9.0600000000000000E-002    0.41334283157642093     
   9.0900000000000009E-002    0.44144213205907418     
   9.1200000000000017E-002    0.44956049404622694     
   9.1499999999999998E-002    0.43531036394006822     
   9.1800000000000007E-002    0.39797705225435287     
   9.2100000000000001E-002    0.33859747117868089     
   9.2399999999999996E-002    0.25994878015218914     
   9.2700000000000005E-002    0.16612398562235187     
   9.3000000000000013E-002     6.2459648235531212E-002
   9.3300000000000008E-002    -4.5182532102664076E-002
   9.3600000000000003E-002   -0.15082972258994107     
   9.3899999999999997E-002   -0.24883001674816510     
   9.4200000000000006E-002   -0.33436300040870698     
   9.4500000000000001E-002   -0.40374433143395233     
   9.4800000000000009E-002   -0.45455950002024131     
   9.5100000000000004E-002   -0.48573669535452280     
   9.5399999999999999E-002   -0.49733549227265411     
   9.5699999999999993E-002   -0.49052116169029925     
   9.6000000000000002E-002   -0.46704608018638516     
   9.6300000000000011E-002   -0.42907428398678960     
   9.6600000000000005E-002   -0.37884026190566439     
   9.6900000000000000E-002   -0.31833862393357748     
   9.7200000000000009E-002   -0.24924257683394976     
   9.7499999999999989E-002   -0.17295433486168954     
   9.7799999999999998E-002    -9.0506563440352530E-002
   9.8100000000000007E-002    -2.8367319272353522E-003
   9.8400000000000015E-002     8.8931358777361344E-002
   9.8699999999999996E-002    0.18324201244866156     
   9.9000000000000005E-002    0.27788240655413832     
   9.9300000000000013E-002    0.36986951479038732     
   9.9599999999999994E-002    0.45521407245720780     
   9.9900000000000003E-002    0.52938922590311877     
  0.10020000000000001         0.58709600256298977     
  0.10049999999999999         0.62315913951730750     
  0.10080000000000000         0.63266488917156982     
  0.10110000000000001         0.61174371768476865     
  0.10140000000000000         0.55812975441708701     
  0.10170000000000000         0.47139405442161181     
  0.10200000000000001         0.35361378011784256     
  0.10230000000000002         0.20915313912070127     
  0.10260000000000000          4.4792618370979087E-002
  0.10290000000000001        -0.13083929776992917     
  0.10320000000000000        -0.30783607459896817     
  0.10350000000000001        -0.47564533125402209     
  0.10380000000000000        -0.62417886183379134     
  0.10410000000000001        -0.74437222974443173     
  0.10440000000000001        -0.82939194100241664     
  0.10470000000000000        -0.87482135068002331     
  0.10500000000000000        -0.87932370541288940     
  0.10530000000000000        -0.84467140903358873     
  0.10560000000000000        -0.77543893956284538     
  0.10590000000000001        -0.67859753749476270     
  0.10620000000000000        -0.56289358903750653     
  0.10650000000000001        -0.43779392168256326     
  0.10679999999999999        -0.31285277327284833     
  0.10710000000000000        -0.19665781763396395     
  0.10740000000000001         -9.6308773101368733E-002
  0.10770000000000000         -1.6729238832169695E-002
  0.10800000000000000          3.9512772949574317E-002
  0.10830000000000001          7.2086760043556158E-002
  0.10859999999999999          8.3048730886289279E-002
  0.10890000000000000          7.5953897941510112E-002
  0.10920000000000001          5.5512060405133755E-002
  0.10950000000000001          2.7260467927253274E-002
  0.10979999999999999         -3.6268341577697216E-003
  0.11009999999999999         -3.2308168978784219E-002
  0.11040000000000001         -5.4855145458796148E-002
  0.11070000000000001         -6.8675833488968635E-002
  0.11100000000000000         -7.2254513009612123E-002
  0.11130000000000000         -6.5239538916017678E-002
  0.11160000000000002         -4.8446235805411138E-002
  0.11190000000000001         -2.3168834849863283E-002
  0.11220000000000001          8.4402281997703402E-003
  0.11250000000000000          4.4412092686788723E-002
  0.11280000000000000          8.2266188021793127E-002
  0.11309999999999999         0.11994043754887262     
  0.11340000000000001         0.15546307845134538     
  0.11369999999999998         0.18702797087956888     
  0.11400000000000000         0.21322512223987311     
  0.11430000000000000         0.23275489798349949     
  0.11460000000000002         0.24479552921430009     
  0.11489999999999999         0.24863126829806148     
  0.11520000000000001         0.24410578747216649     
  0.11550000000000001         0.23126101855250475     
  0.11580000000000000         0.21083798151867766     
  0.11609999999999999         0.18345453790810923     
  0.11640000000000002         0.15062227652334695     
  0.11670000000000001         0.11377781048356200     
  0.11700000000000001          7.4607228503273337E-002
  0.11730000000000000          3.4534410609607880E-002
  0.11760000000000000         -4.8847833252566829E-003
  0.11789999999999999         -4.2690610728004542E-002
  0.11820000000000001         -7.8358778336312593E-002
  0.11850000000000001        -0.11148723420473262     
  0.11880000000000000        -0.14251338362145829     
  0.11910000000000000        -0.17155685285691760     
  0.11940000000000002        -0.19915950045941691     
  0.11970000000000001        -0.22525070956335086     
  0.12000000000000001        -0.24941981868134006     
  0.12030000000000000        -0.27074319408977787     
  0.12060000000000000        -0.28694124065451188     
  0.12089999999999999        -0.29556258294507692     
  0.12119999999999999        -0.29300578846194869     
  0.12150000000000001        -0.27554213939680144     
  0.12180000000000001        -0.23930894130820157     
  0.12210000000000000        -0.18091205210747799     
  0.12239999999999999         -9.7949166045101482E-002
  0.12270000000000002          1.0606179847794399E-002
  0.12300000000000001         0.14374898777053133     
  0.12330000000000001         0.29858360817830748     
  0.12360000000000000         0.46970145925771356     
  0.12390000000000000         0.64979684414516525     
  0.12419999999999999         0.82930864069935761     
  0.12450000000000001         0.99798884314687242     
  0.12480000000000001          1.1444336516423912     
  0.12509999999999999          1.2578629696373314     
  0.12540000000000001          1.3285242845928371     
  0.12570000000000003          1.3483675118225553     
  0.12600000000000000          1.3127006927198068     
  0.12630000000000002          1.2194351607806759     
  0.12659999999999999          1.0706661387880791     
  0.12690000000000001         0.87170600956256306     
  0.12719999999999998         0.63147758891277750     
  0.12750000000000000         0.36164362848994502     
  0.12780000000000002          7.6035021445433962E-002
  0.12809999999999999        -0.21062812701532629     
  0.12840000000000001        -0.48329280497161475     
  0.12869999999999998        -0.72798609608286868     
  0.12900000000000000        -0.93264664235330119     
  0.12930000000000003         -1.0878653733628236     
  0.12959999999999999         -1.1875918211379219     
  0.12990000000000002         -1.2292858739301378     
  0.13019999999999998         -1.2141848047434958     
  0.13050000000000000         -1.1470549585544827     
  0.13080000000000003         -1.0353578831989372     
  0.13109999999999999        -0.88935630664262499     
  0.13140000000000002        -0.72067468436188120     
  0.13169999999999998        -0.54168360323375020     
  0.13200000000000001        -0.36445878550850075     
  0.13229999999999997        -0.20031277593573554     
  0.13260000000000000         -5.8535442905845135E-002
  0.13290000000000002          5.3925986725050536E-002
  0.13319999999999999         0.13274332874870051     
  0.13350000000000001         0.17700612998418275     
  0.13380000000000003         0.18814545287442563     
  0.13410000000000000         0.17108809856471063     
  0.13440000000000002         0.13243361240542709     
  0.13469999999999999          8.0800885855420237E-002
  0.13500000000000001          2.5660594047159518E-002
  0.13529999999999998         -2.3382741959305498E-002
  0.13560000000000000         -5.7380617104670330E-002
  0.13590000000000002         -6.9098063610560992E-002
  0.13619999999999999         -5.2730013652669626E-002
  0.13650000000000001         -5.9834385244091886E-003
  0.13680000000000003          7.1299587479965842E-002
  0.13710000000000000         0.17594783259111044     
  0.13740000000000002         0.30222811445752279     
  0.13769999999999999         0.44183471175474975     
  0.13800000000000001         0.58514087797463954     
  0.13829999999999998         0.72138719991888633     
  0.13860000000000000         0.83926038803675285     
  0.13890000000000002         0.92901961312500425     
  0.13919999999999999         0.98153535093018662     
  0.13950000000000001         0.99043020313497743     
  0.13979999999999998         0.95147814085775317     
  0.14010000000000000         0.86378610831768377     
  0.14040000000000002         0.72886448757187638     
  0.14069999999999999         0.55124233789535859     
  0.14100000000000001         0.33791617215792991     
  0.14130000000000004          9.7439756233288474E-002
  0.14160000000000000        -0.15960676462485379     
  0.14189999999999997        -0.42236925793011065     
  0.14219999999999999        -0.67929046465860965     
  0.14250000000000002        -0.91947405985558495     
  0.14279999999999998         -1.1322776636472245     
  0.14310000000000000         -1.3086217006393341     
  0.14339999999999997         -1.4407458843854861     
  0.14369999999999999         -1.5228070525322550     
  0.14400000000000002         -1.5510597683103446     
  0.14429999999999998         -1.5242891702197849     
  0.14460000000000001         -1.4432959872459845     
  0.14490000000000003         -1.3119275802801171     
  0.14520000000000000         -1.1364730743401088     
  0.14550000000000002        -0.92515290409954154     
  0.14579999999999999        -0.68890404556713669     
  0.14610000000000001        -0.43974801100977584     
  0.14640000000000003        -0.19069823857657700     
  0.14670000000000000          4.4635571677064681E-002
  0.14699999999999996         0.25341223175571181     
  0.14729999999999999         0.42444403190491981     
  0.14760000000000001         0.54783094584171488     
  0.14789999999999998         0.61767870063935126     
  0.14820000000000000         0.63015883046697596     