  -1.4999999999999999E-002     0.0000000000000000     
  -1.4700000000000000E-002     0.0000000000000000     
  -1.4400000000000000E-002     0.0000000000000000     
  -1.4100000000000000E-002     0.0000000000000000     
  -1.3800000000000000E-002     0.0000000000000000     
  -1.3500000000000000E-002     0.0000000000000000     
  -1.3200000000000000E-002     0.0000000000000000     
  -1.2899999999999998E-002     0.0000000000000000     
  -1.2600000000000000E-002     0.0000000000000000     
  -1.2299999999999998E-002     0.0000000000000000     
  -1.2000000000000000E-002     0.0000000000000000     
  -1.1699999999999999E-002     0.0000000000000000     
  -1.1399999999999999E-002     0.0000000000000000     
  -1.1099999999999999E-002     0.0000000000000000     
  -1.0799999999999999E-002     0.0000000000000000     
  -1.0499999999999999E-002     0.0000000000000000     
  -1.0199999999999999E-002     0.0000000000000000     
  -9.8999999999999991E-003     0.0000000000000000     
  -9.5999999999999992E-003     0.0000000000000000     
  -9.2999999999999992E-003     0.0000000000000000     
  -8.9999999999999993E-003     0.0000000000000000     
  -8.6999999999999994E-003     0.0000000000000000     
  -8.3999999999999995E-003     0.0000000000000000     
  -8.0999999999999996E-003     0.0000000000000000     
  -7.7999999999999988E-003     0.0000000000000000     
  -7.4999999999999997E-003     0.0000000000000000     
  -7.1999999999999998E-003     0.0000000000000000     
  -6.8999999999999981E-003     0.0000000000000000     
  -6.5999999999999982E-003     0.0000000000000000     
  -6.3000000000000000E-003     0.0000000000000000     
  -6.0000000000000001E-003     0.0000000000000000     
  -5.6999999999999985E-003     0.0000000000000000     
  -5.3999999999999986E-003     0.0000000000000000     
  -5.1000000000000004E-003     0.0000000000000000     
  -4.7999999999999987E-003     0.0000000000000000     
  -4.5000000000000005E-003     0.0000000000000000     
  -4.1999999999999989E-003     0.0000000000000000     
  -3.8999999999999990E-003     0.0000000000000000     
  -3.5999999999999990E-003     0.0000000000000000     
  -3.2999999999999991E-003     0.0000000000000000     
  -2.9999999999999992E-003     0.0000000000000000     
  -2.6999999999999993E-003     0.0000000000000000     
  -2.3999999999999994E-003     0.0000000000000000     
  -2.0999999999999977E-003     0.0000000000000000     
  -1.7999999999999995E-003     0.0000000000000000     
  -1.4999999999999979E-003     0.0000000000000000     
  -1.1999999999999997E-003     0.0000000000000000     
  -8.9999999999999976E-004     0.0000000000000000     
  -5.9999999999999810E-004     0.0000000000000000     
  -2.9999999999999992E-004     0.0000000000000000     
   0.0000000000000000          0.0000000000000000     
   3.0000000000000165E-004     0.0000000000000000     
   5.9999999999999984E-004     0.0000000000000000     
   9.0000000000000149E-004     0.0000000000000000     
   1.2000000000000031E-003     0.0000000000000000     
   1.5000000000000013E-003     0.0000000000000000     
   1.8000000000000030E-003     0.0000000000000000     
   2.1000000000000012E-003     0.0000000000000000     
   2.3999999999999994E-003     0.0000000000000000     
   2.7000000000000010E-003     0.0000000000000000     
   2.9999999999999992E-003     0.0000000000000000     
   3.3000000000000008E-003     0.0000000000000000     
   3.6000000000000025E-003     0.0000000000000000     
   3.9000000000000007E-003     0.0000000000000000     
   4.2000000000000023E-003     0.0000000000000000     
   4.5000000000000005E-003     0.0000000000000000     
   4.7999999999999987E-003     0.0000000000000000     
   5.1000000000000004E-003     0.0000000000000000     
   5.4000000000000020E-003     0.0000000000000000     
   5.7000000000000037E-003     0.0000000000000000     
   5.9999999999999984E-003     0.0000000000000000     
   6.3000000000000000E-003     0.0000000000000000     
   6.6000000000000017E-003     0.0000000000000000     
   6.9000000000000034E-003     0.0000000000000000     
   7.2000000000000015E-003     0.0000000000000000     
   7.5000000000000032E-003     0.0000000000000000     
   7.8000000000000014E-003     0.0000000000000000     
   8.0999999999999996E-003     0.0000000000000000     
   8.4000000000000012E-003     0.0000000000000000     
   8.7000000000000029E-003    -6.2549423226340154E-059
   9.0000000000000011E-003    -7.4197858231356788E-046
   9.2999999999999992E-003     6.8957066319737698E-044
   9.6000000000000009E-003     2.6796916266433909E-038
   9.8999999999999991E-003     1.0483197617959599E-035
   1.0200000000000001E-002    -7.3155073068419199E-035
   1.0500000000000002E-002    -2.1979463914614482E-034
   1.0800000000000004E-002     3.5743126312310333E-033
   1.1099999999999999E-002     4.9472301744039895E-033
   1.1400000000000000E-002    -1.1825203795842423E-031
   1.1700000000000002E-002     3.5180915540981933E-032
   1.2000000000000004E-002     4.1055094771201977E-030
   1.2300000000000002E-002    -1.6297678430151148E-029
   1.2600000000000000E-002    -5.6424254697935408E-029
   1.2900000000000002E-002     7.2981787434841224E-028
   1.3200000000000000E-002    -2.3335950915395399E-027
   1.3500000000000002E-002    -3.8405499576064010E-027
   1.3800000000000003E-002     6.5573361661177047E-026
   1.4100000000000001E-002    -2.7359002588669929E-025
   1.4400000000000000E-002     3.8021073504386427E-025
   1.4700000000000001E-002     1.9184493521755950E-024
   1.4999999999999999E-002    -1.4416802240403187E-023
   1.5300000000000001E-002     4.9618207997542299E-023
   1.5600000000000003E-002    -9.8142493547104074E-023
   1.5899999999999997E-002     4.4009414986051046E-023
   1.6199999999999999E-002     4.9264890015536739E-022
   1.6500000000000001E-002    -2.5719903433653618E-021
   1.6800000000000002E-002     1.0774033771239550E-020
   1.7100000000000004E-002    -5.1202459816000075E-020
   1.7400000000000006E-002     2.6021362521692506E-019
   1.7700000000000000E-002    -1.2548819234618895E-018
   1.8000000000000002E-002     5.5571482032431713E-018
   1.8300000000000004E-002    -2.2968772735034336E-017
   1.8600000000000005E-002     9.1256704993423111E-017
   1.8900000000000000E-002    -3.5757573766205714E-016
   1.9200000000000002E-002     1.3969441391135231E-015
   1.9500000000000003E-002    -5.3896943539901139E-015
   1.9799999999999998E-002     1.9952504773029862E-014
   2.0100000000000000E-002    -6.7696444278642586E-014
   2.0400000000000001E-002     1.9570619307796968E-013
   2.0700000000000003E-002    -4.0739887048854933E-013
   2.0999999999999998E-002     1.5304961922424931E-013
   2.1299999999999999E-002     3.5713463138798976E-012
   2.1600000000000001E-002    -1.9865001921783719E-011
   2.1900000000000003E-002     6.0454042304499791E-011
   2.2200000000000004E-002    -9.0717876597091006E-011
   2.2500000000000006E-002    -1.1473174877456444E-010
   2.2800000000000001E-002     1.0172790777511276E-009
   2.3100000000000002E-002    -2.2937528950111149E-009
   2.3400000000000004E-002     2.8114450758308230E-011
   2.3699999999999999E-002     1.2080384498492339E-008
   2.4000000000000000E-002    -2.2401538120176991E-008
   2.4300000000000002E-002    -1.9677890263983804E-008
   2.4599999999999997E-002     1.1256868196276221E-007
   2.4900000000000005E-002    -2.1702157530792795E-008
   2.5200000000000000E-002    -3.7502062586205653E-007
   2.5499999999999995E-002     1.2163112659147667E-007
   2.5800000000000003E-002     1.0917858865684626E-006
   2.6099999999999998E-002     8.0436281024981973E-008
   2.6400000000000007E-002    -2.9791041248150440E-006
   2.6700000000000002E-002    -2.7478875586050860E-006
   2.6999999999999996E-002     7.5668067805668960E-006
   2.7300000000000005E-002     2.9519130276018702E-005
   2.7600000000000000E-002     5.9275002245940864E-005
   2.7900000000000008E-002     9.5163061860693187E-005
   2.8200000000000003E-002     1.4352888256103069E-004
   2.8499999999999998E-002     2.1855628501374642E-004
   2.8800000000000006E-002     3.4000505250706981E-004
   2.9100000000000001E-002     5.3157783856970010E-004
   2.9400000000000003E-002     8.2220431538511938E-004
   2.9700000000000004E-002     1.2513645553575144E-003
   3.0000000000000006E-002     1.8751222549877556E-003
   3.0300000000000001E-002     2.7708848116707141E-003
   3.0600000000000002E-002     4.0414862999086009E-003
   3.0900000000000004E-002     5.8180418003554056E-003
   3.1199999999999999E-002     8.2620091150815318E-003
   3.1500000000000007E-002     1.1566728010826260E-002
   3.1800000000000002E-002     1.5957802061318648E-002
   3.2099999999999997E-002     2.1689939601300362E-002
   3.2400000000000005E-002     2.9036100093494208E-002
   3.2700000000000000E-002     3.8267406432481950E-002
   3.3000000000000002E-002     4.9626896550076023E-002
   3.3300000000000003E-002     6.3295399757297380E-002
   3.3599999999999998E-002     7.9344292614305895E-002
   3.3900000000000000E-002     9.7679209795371952E-002
   3.4200000000000001E-002    0.11797412135401203     
   3.4500000000000003E-002    0.13960907939827005     
   3.4799999999999998E-002    0.16161007700631014     
   3.5099999999999999E-002    0.18260347302616761     
   3.5400000000000001E-002    0.20079594256367628     
   3.5699999999999996E-002    0.21398399137377672     
   3.6000000000000004E-002    0.21960965639948984     
   3.6299999999999999E-002    0.21487731597079354     
   3.6600000000000008E-002    0.19692177489777837     
   3.6900000000000002E-002    0.16303483662049095     
   3.7199999999999997E-002    0.11094372394582529     
   3.7500000000000006E-002     3.9112149551479986E-002
   3.7800000000000000E-002    -5.2931579081838070E-002
   3.8100000000000009E-002   -0.16430860267027789     
   3.8400000000000004E-002   -0.29257099950374887     
   3.8699999999999998E-002   -0.43355693126474948     
   3.9000000000000007E-002   -0.58140526478997812     
   3.9300000000000002E-002   -0.72870747077836606     
   3.9600000000000003E-002   -0.86682227670291134     
   3.9900000000000005E-002   -0.98638096516861595     
   4.0200000000000000E-002    -1.0778904834957317     
   4.0500000000000001E-002    -1.1324582957824241     
   4.0800000000000003E-002    -1.1425537726136732     
   4.1100000000000005E-002    -1.1027036580391543     
   4.1399999999999999E-002    -1.0101327598766745     
   4.1700000000000008E-002   -0.86516377766205310     
   4.2000000000000003E-002   -0.67142186578309426     
   4.2299999999999997E-002   -0.43580945051379694     
   4.2600000000000006E-002   -0.16811212412274179     
   4.2900000000000001E-002    0.11952653164470062     
   4.3200000000000002E-002    0.41344882809397110     
   4.3500000000000004E-002    0.69937167481688012     
   4.3799999999999999E-002    0.96338227524946884     
   4.4100000000000000E-002     1.1929242258824018     
   4.4400000000000002E-002     1.3775434087747129     
   4.4700000000000004E-002     1.5096582921416317     
   4.4999999999999998E-002     1.5848340521266315     
   4.5300000000000000E-002     1.6019941096661934     
   4.5600000000000002E-002     1.5633122460872309     
   4.5899999999999996E-002     1.4737811847100679     
   4.6200000000000005E-002     1.3407613836896888     
   4.6500000000000000E-002     1.1732680452819717     
   4.6799999999999994E-002    0.98122087220255050     
   4.7100000000000003E-002    0.77478078715489662     
   4.7399999999999998E-002    0.56365148562605816     
   4.7700000000000006E-002    0.35652713926748192     
   4.8000000000000001E-002    0.16077717673285502     
   4.8300000000000010E-002    -1.7867195759940963E-002
   4.8600000000000004E-002   -0.17540500536739931     
   4.8899999999999999E-002   -0.30940639059144331     
   4.9200000000000008E-002   -0.41904084640847955     
   4.9500000000000002E-002   -0.50472335524107537     
   4.9800000000000011E-002   -0.56778023961226465     
   5.0100000000000006E-002   -0.61034886240625363     
   5.0400000000000000E-002   -0.63489316035764420     
   5.0700000000000009E-002   -0.64403508210978788     
   5.1000000000000004E-002   -0.64044700182443914     
   5.1299999999999998E-002   -0.62651566822633831     
   5.1600000000000007E-002   -0.60438094760357575     
   5.1900000000000002E-002   -0.57590357769741696     
   5.2200000000000010E-002   -0.54251138773700847     
   5.2500000000000005E-002   -0.50535975412209921     
   5.2800000000000000E-002   -0.46533133220686373     
   5.3099999999999994E-002   -0.42300276711589657     
   5.3400000000000003E-002   -0.37882902108997285     
   5.3699999999999998E-002   -0.33316241717227396     
   5.4000000000000006E-002   -0.28626989476319292     
   5.4300000000000001E-002   -0.23852477264103866     
   5.4599999999999996E-002   -0.19039588602763419     
   5.4900000000000004E-002   -0.14253820054698749     
   5.5199999999999999E-002    -9.5960845152478338E-002
   5.5499999999999994E-002    -5.1985455948093597E-002
   5.5800000000000002E-002    -1.2352968142012860E-002
   5.6099999999999997E-002     2.0722980990721260E-002
   5.6400000000000006E-002     4.4693871070717116E-002
   5.6700000000000000E-002     5.6724230067094712E-002
   5.6999999999999995E-002     5.3841496205969258E-002
   5.7300000000000004E-002     3.3300536673743338E-002
   5.7599999999999998E-002    -7.1450804713879736E-003
   5.7900000000000007E-002    -6.8892394923642797E-002
   5.8200000000000002E-002   -0.15194662954431926     
   5.8499999999999996E-002   -0.25467508277659578     
   5.8800000000000005E-002   -0.37352739660365947     
   5.9100000000000000E-002   -0.50274930899336912     
   5.9400000000000008E-002   -0.63457361970341986     
   5.9700000000000003E-002   -0.75942204141238145     
   6.0000000000000012E-002   -0.86631069011596928     
   6.0300000000000006E-002   -0.94372925359144000     
   6.0600000000000001E-002   -0.98041036814611460     
   6.0900000000000010E-002   -0.96636226905564904     
   6.1200000000000004E-002   -0.89400896776514238     
   6.1500000000000013E-002   -0.75893238932490736     
   6.1800000000000008E-002   -0.56078360815019268     
   6.2100000000000002E-002   -0.30367942752339272     
   6.2399999999999997E-002     3.8088987137057805E-003
   6.2700000000000006E-002    0.34880198998989731     
   6.3000000000000000E-002    0.71493319550654966     
   6.3300000000000009E-002     1.0834214368303472     
   6.3600000000000004E-002     1.4341916615828945     
   6.3899999999999998E-002     1.7475883446524394     
   6.4199999999999993E-002     2.0056926614110533     
   6.4500000000000002E-002     2.1935550521404155     
   6.4800000000000010E-002     2.3005067625672142     
   6.5100000000000005E-002     2.3206490787984007     
   6.5400000000000000E-002     2.2532154851296124     
   6.5700000000000008E-002     2.1026412822468501     
   6.5999999999999989E-002     1.8778223439186159     
   6.6299999999999998E-002     1.5914633998056971     
   6.6600000000000006E-002     1.2590003835147754     
   6.6900000000000001E-002    0.89719304779405296     
   6.7199999999999996E-002    0.52325992230479013     
   6.7500000000000004E-002    0.15342331962521538     
   6.7800000000000013E-002   -0.19782648409490319     
   6.8099999999999994E-002   -0.51844732440887864     
   6.8400000000000002E-002   -0.79939136551016765     
   6.8700000000000011E-002    -1.0346400434724132     
   6.8999999999999992E-002    -1.2211768269180241     
   6.9300000000000000E-002    -1.3587154943493391     
   6.9600000000000009E-002    -1.4491940311276486     
   6.9900000000000004E-002    -1.4962220944389224     
   7.0199999999999999E-002    -1.5046414886447859     
   7.0500000000000007E-002    -1.4799711268504609     
   7.0800000000000016E-002    -1.4278789337774085     
   7.1099999999999997E-002    -1.3539914685158951     
   7.1400000000000005E-002    -1.2635910137423307     
   7.1700000000000000E-002    -1.1614763392716083     
   7.1999999999999995E-002    -1.0520699904044595     
   7.2300000000000003E-002   -0.93929442949318553     
   7.2600000000000012E-002   -0.82672122635539658     
   7.2900000000000006E-002   -0.71769819497078535     
   7.3200000000000001E-002   -0.61518399061638362     
   7.3499999999999996E-002   -0.52197109081432291     
   7.3800000000000004E-002   -0.44049988845953825     
   7.4099999999999999E-002   -0.37265970173197810     
   7.4400000000000008E-002   -0.31984229903606204     
   7.4700000000000003E-002   -0.28250577185714393     
   7.5000000000000011E-002   -0.26003407641169141     
   7.5299999999999992E-002   -0.25066401794199050     
   7.5600000000000001E-002   -0.25112118559156571     
   7.5900000000000009E-002   -0.25680979316037622     
   7.6200000000000004E-002   -0.26191224866879059     
   7.6499999999999999E-002   -0.25933866925209581     
   7.6800000000000007E-002   -0.24151133782105774     
   7.7099999999999988E-002   -0.20067564561346435     
   7.7399999999999997E-002   -0.12946739429045293     
   7.7700000000000005E-002    -2.1971903354152146E-002
   7.8000000000000014E-002    0.12589053404042272     
   7.8299999999999995E-002    0.31547882179632153     
   7.8600000000000003E-002    0.54470918906200272     
   7.8900000000000012E-002    0.80810007993230215     
   7.9199999999999993E-002     1.0962334541810261     
   7.9500000000000001E-002     1.3961789189816030     
   7.9800000000000010E-002     1.6921859474026031     
   8.0100000000000018E-002     1.9661450991920180     
   8.0399999999999999E-002     2.1991807759918482     
   8.0700000000000008E-002     2.3728532085892948     
   8.1000000000000003E-002     2.4704021674299939     
   8.1299999999999997E-002     2.4786085347628757     
   8.1600000000000006E-002     2.3885936029645629     
   8.1900000000000014E-002     2.1969246214378861     
   8.2199999999999995E-002     1.9064570101894407     
   8.2500000000000004E-002     1.5259224918080796     
   8.2799999999999999E-002     1.0699779672141705     
   8.3100000000000007E-002    0.55830637963743102     
   8.3400000000000002E-002     1.4035213487074939E-002
   8.3700000000000011E-002   -0.53712026659252443     
   8.4000000000000005E-002    -1.0691206137303495     
   8.4300000000000000E-002    -1.5572742953334269     
   8.4599999999999995E-002    -1.9791511901991994     
   8.4900000000000003E-002    -2.3168784884718976     
   8.5199999999999998E-002    -2.5575298504230903     
   8.5500000000000007E-002    -2.6935016309924382     
   8.5800000000000001E-002    -2.7236575272308952     
   8.6100000000000010E-002    -2.6520206141431273     
   8.6399999999999991E-002    -2.4877053953363011     
   8.6699999999999999E-002    -2.2444650461047666     
   8.7000000000000008E-002    -1.9387961051055846     
   8.7300000000000003E-002    -1.5895769124888697     
   8.7599999999999997E-002    -1.2166710731431147     
   8.7900000000000006E-002   -0.83942917483582369     
   8.8200000000000014E-002   -0.47639156957443668     
   8.8499999999999995E-002   -0.14386078286798515     
   8.8800000000000004E-002    0.14493083531356435     
   8.9100000000000013E-002    0.38000892481939080     
   8.9399999999999993E-002    0.55578295754939944     
   8.9700000000000002E-002    0.67107174828018912     
   9.0000000000000011E-002    0.72913531335933424     
   9.0299999999999991E-002    0.73803190246875916     
   9.0600000000000000E-002    0.70980719671401560     
   9.0900000000000009E-002    0.65984515445698932     
   9.1200000000000017E-002    0.60618881636014532     
   9.1499999999999998E-002    0.56754289427019655     
   9.1800000000000007E-002    0.56204680959238040     
   9.2100000000000001E-002    0.60541800865582573     
   9.2399999999999996E-002    0.70868895329005688     
   9.2700000000000005E-002    0.87720296132475639     
   9.3000000000000013E-002     1.1090061329753347     
   9.3300000000000008E-002     1.3940468604957275     
   9.3600000000000003E-002     1.7147571521940368     
   9.3899999999999997E-002     2.0463291980459948     
   9.4200000000000006E-002     2.3586208108928424     
   9.4500000000000001E-002     2.6188782857113639     
   9.4800000000000009E-002     2.7940124625767142     
   9.5100000000000004E-002     2.8541666605474645     
   9.5399999999999999E-002     2.7759358052130279     
   9.5699999999999993E-002     2.5445009902387539     
   9.6000000000000002E-002     2.1562728240028037     
   9.6300000000000011E-002     1.6197270867113023     
   9.6600000000000005E-002    0.95504144015177583     
   9.6900000000000000E-002    0.19366622947663803     
   9.7200000000000009E-002   -0.62432305068070271     
   9.7499999999999989E-002    -1.4535676990997652     
   9.7799999999999998E-002    -2.2461065567067235     
   9.8100000000000007E-002    -2.9561506810859615     
   9.8400000000000015E-002    -3.5434740907497027     
   9.8699999999999996E-002    -3.9759136435393967     
   9.9000000000000005E-002    -4.2327407519488984     
   9.9300000000000013E-002    -4.3053229947347313     
   9.9599999999999994E-002    -4.1969684296259748     
   9.9900000000000003E-002    -3.9231494682336439     
  0.10020000000000001         -3.5084148788389018     
  0.10049999999999999         -2.9841856066507435     
  0.10080000000000000         -2.3863951451087662     
  0.10110000000000001         -1.7509644707661514     
  0.10140000000000000         -1.1120093739164065     
  0.10170000000000000        -0.49941633774942334     
  0.10200000000000001          6.4270068091204877E-002
  0.10230000000000002         0.56297818928372034     
  0.10260000000000000         0.98815014768863263     
  0.10290000000000001          1.3386090570385019     
  0.10320000000000000          1.6175928800311945     
  0.10350000000000001          1.8325890923098282     
  0.10380000000000000          1.9929532386208384     
  0.10410000000000001          2.1072198694330639     
  0.10440000000000001          2.1829978750088714     
  0.10470000000000000          2.2247430600299207     
  0.10500000000000000          2.2331425468508064     
  0.10530000000000000          2.2063867384328621     
  0.10560000000000000          2.1392516454477355     
  0.10590000000000001          2.0250563026631028     
  0.10620000000000000          1.8576098141457618     
  0.10650000000000001          1.6313371192327557     
  0.10679999999999999          1.3441475254331581     
  0.10710000000000000         0.99855181866547960     
  0.10740000000000001         0.60136865091723302     
  0.10770000000000000         0.16542808547052254     
  0.10800000000000000        -0.29160832161718636     
  0.10830000000000001        -0.74864140583833294     
  0.10859999999999999         -1.1814335202860977     
  0.10890000000000000         -1.5655221445890795     
  0.10920000000000001         -1.8782904757149457     
  0.10950000000000001         -2.1001202414879931     
  0.10979999999999999         -2.2173184672280724     
  0.11009999999999999         -2.2228805344671860     
  0.11040000000000001         -2.1168319540187936     
  0.11070000000000001         -1.9072971963181025     
  0.11100000000000000         -1.6089814420535233     
  0.11130000000000000         -1.2419406999607070     
  0.11160000000000002        -0.83066592178259235     
  0.11190000000000001        -0.40105568255389579     
  0.11220000000000001          2.1395299523334927E-002
  0.11250000000000000         0.41290022520803871     
  0.11280000000000000         0.75406948245389138     
  0.11309999999999999          1.0304329061009150     
  0.11340000000000001          1.2328364449383908     
  0.11369999999999998          1.3583681141308739     
  0.11400000000000000          1.4090193048504320     
  0.11430000000000000          1.3909302490717927     
  0.11460000000000002          1.3139144936442775     
  0.11489999999999999          1.1891699629121002     
  0.11520000000000001          1.0286137708195067     
  0.11550000000000001         0.84417656150392550     
  0.11580000000000000         0.64608786263822993     
  0.11609999999999999         0.44333581594501964     
  0.11640000000000002         0.24354206705092296     
  0.11670000000000001          5.2417292078074815E-002
  0.11700000000000001        -0.12466170832907050     
  0.11730000000000000        -0.28273828666620016     
  0.11760000000000000        -0.41727648493576119     
  0.11789999999999999        -0.52263371051424867     
  0.11820000000000001        -0.59296635406597031     
  0.11850000000000001        -0.62238601332461374     
  0.11880000000000000        -0.60464719465829520     
  0.11910000000000000        -0.53498873876957420     
  0.11940000000000002        -0.41051737666087240     
  0.11970000000000001        -0.23095120816781650     
  0.12000000000000001         -2.4913913770335669E-004
  0.12030000000000000         0.27371212255334237     
  0.12060000000000000         0.57870302949318608     
  0.12089999999999999         0.89783534660081599     
  0.12119999999999999          1.2111701585666914     
  0.12150000000000001          1.4963981628334591     
  0.12180000000000001          1.7301326433497723     
  0.12210000000000000          1.8904338463160220     
  0.12239999999999999          1.9579817612056885     
  0.12270000000000002          1.9176941484053767     
  0.12300000000000001          1.7607447523583410     
  0.12330000000000001          1.4851340756976548     
  0.12360000000000000          1.0963775744397108     
  0.12390000000000000         0.60797432924409212     
  0.12419999999999999          4.0399645061532992E-002
  0.12450000000000001        -0.57958529731863750     
  0.12480000000000001         -1.2199755539678647     
  0.12509999999999999         -1.8457437188879644     
  0.12540000000000001         -2.4204682558293338     
  0.12570000000000003         -2.9082955415906224     
  0.12600000000000000         -3.2765461385848504     
  0.12630000000000002         -3.4974254481213300     
  0.12659999999999999         -3.5498758651013653     
  0.12690000000000001         -3.4216803450178173     
  0.12719999999999998         -3.1103261945013991     
  0.12750000000000000         -2.6238299995752996     
  0.12780000000000002         -1.9812348475518204     
  0.12809999999999999         -1.2118318904520513     
  0.12840000000000001        -0.35409550804863876     
  0.12869999999999998         0.54590056633101447     
  0.12900000000000000          1.4373191154745673     
  0.12930000000000003          2.2674199843141087     
  0.12959999999999999          2.9845181987865264     
  0.12990000000000002          3.5419381974115254     
  0.13019999999999998          3.9012159119414078     
  0.13050000000000000          4.0347245903455455     
  0.13080000000000003          3.9286342864827271     
  0.13109999999999999          3.5840739122600458     
  0.13140000000000002          3.0174573942710010     
  0.13169999999999998          2.2605513845918273     
  0.13200000000000001          1.3580568620682922     
  0.13229999999999997         0.36500125036263914     
  0.13260000000000000        -0.65631494917898459     
  0.13290000000000002         -1.6415242653357278     
  0.13319999999999999         -2.5280307961095021     
  0.13350000000000001         -3.2593318433934240     
  0.13380000000000003         -3.7902149012606992     
  0.13410000000000000         -4.0889190396785953     
  0.13440000000000002         -4.1397360510767003     
  0.13469999999999999         -3.9449085005008055     
  0.13500000000000001         -3.5230072873830873     
  0.13529999999999998         -2.9082554903859306     
  0.13560000000000000         -2.1481952032000278     
  0.13590000000000002         -1.2985853772589089     
  0.13619999999999999        -0.42020003900581954     
  0.13650000000000001         0.42584539957808620     
  0.13680000000000003          1.1839463332744744     
  0.13710000000000000          1.8066352039890115     
  0.13740000000000002          2.2584616437169065     
  0.13769999999999999          2.5191470799820044     
  0.13800000000000001          2.5831295651736341     
  0.13829999999999998          2.4606095994496515     
  0.13860000000000000          2.1759969529704621     
  0.13890000000000002          1.7642100521709605     
  0.13919999999999999          1.2689853534848374     
  0.13950000000000001         0.73797450393012698     
  0.13979999999999998         0.21792648299455450     
  0.14010000000000000        -0.24761611700639202     
  0.14040000000000002        -0.62340102407749542     
  0.14069999999999999        -0.88504442578239273     
  0.14100000000000001         -1.0194781681314258     
  0.14130000000000004         -1.0271935125493572     
  0.14160000000000000        -0.92062929233922330     
  0.14189999999999997        -0.72195485843801166     
  0.14219999999999999        -0.46184967417507333     
  0.14250000000000002        -0.17479167271788598     
  0.14279999999999998         0.10445649626678963     
  0.14310000000000000         0.34353651528093460     
  0.14339999999999997         0.51704870020207883     
  0.14369999999999999         0.60845402921568537     
  0.14400000000000002         0.61107895793854616     
  0.14429999999999998         0.52972875306004918     
  0.14460000000000001         0.37904463945937322     
  0.14490000000000003         0.18151790763801506     
  0.14520000000000000         -3.4115783332405038E-002
  0.14550000000000002        -0.23735600006943353     
  0.14579999999999999        -0.39912872278347794     
  0.14610000000000001        -0.49437762743537872     
  0.14640000000000003        -0.50631378483642997     
  0.14670000000000000        -0.42749433343408305     
  0.14699999999999996        -0.26055785162229367     
  0.14729999999999999         -1.9333784394674342E-002
  0.14760000000000001         0.27385770455949093     
  0.14789999999999998         0.59014741748941735     
  0.14820000000000000         0.89643714024953669     