  -1.4999999999999999E-002     0.0000000000000000     
  -1.4700000000000000E-002     0.0000000000000000     
  -1.4400000000000000E-002     0.0000000000000000     
  -1.4100000000000000E-002     0.0000000000000000     
  -1.3800000000000000E-002     0.0000000000000000     
  -1.3500000000000000E-002     0.0000000000000000     
  -1.3200000000000000E-002     0.0000000000000000     
  -1.2899999999999998E-002     0.0000000000000000     
  -1.2600000000000000E-002     0.0000000000000000     
  -1.2299999999999998E-002     0.0000000000000000     
  -1.2000000000000000E-002     0.0000000000000000     
  -1.1699999999999999E-002     0.0000000000000000     
  -1.1399999999999999E-002     0.0000000000000000     
  -1.1099999999999999E-002     0.0000000000000000     
  -1.0799999999999999E-002     0.0000000000000000     
  -1.0499999999999999E-002     0.0000000000000000     
  -1.0199999999999999E-002     0.0000000000000000     
  -9.8999999999999991E-003     0.0000000000000000     
  -9.5999999999999992E-003     0.0000000000000000     
  -9.2999999999999992E-003     0.0000000000000000     
  -8.9999999999999993E-003     0.0000000000000000     
  -8.6999999999999994E-003     0.0000000000000000     
  -8.3999999999999995E-003     0.0000000000000000     
  -8.0999999999999996E-003     0.0000000000000000     
  -7.7999999999999988E-003     0.0000000000000000     
  -7.4999999999999997E-003     0.0000000000000000     
  -7.1999999999999998E-003     0.0000000000000000     
  -6.8999999999999981E-003     0.0000000000000000     
  -6.5999999999999982E-003     0.0000000000000000     
  -6.3000000000000000E-003     0.0000000000000000     
  -6.0000000000000001E-003     0.0000000000000000     
  -5.6999999999999985E-003    -9.4158596607352669E-059
  -5.3999999999999986E-003     9.7585240210394338E-058
  -5.1000000000000004E-003     6.5310512098139239E-044
  -4.7999999999999987E-003     5.9017350244411902E-038
  -4.5000000000000005E-003    -2.4373219336954402E-036
  -4.1999999999999989E-003     1.5494577295406178E-035
  -3.8999999999999990E-003    -6.9543837366951585E-036
  -3.5999999999999990E-003    -2.2209212032296175E-034
  -3.2999999999999991E-003     5.3950718875636136E-034
  -2.9999999999999992E-003    -2.1195321027510056E-034
  -2.6999999999999993E-003     1.2368270936081377E-033
  -2.3999999999999994E-003    -2.0162020827453221E-032
  -2.0999999999999977E-003     5.9872583668632365E-032
  -1.7999999999999995E-003    -1.0822160082231449E-032
  -1.4999999999999979E-003    -3.4731016051657006E-031
  -1.1999999999999997E-003     9.9486542895046291E-031
  -8.9999999999999976E-004    -2.1769675225523604E-030
  -5.9999999999999810E-004     9.4320951181422960E-030
  -2.9999999999999992E-004    -4.3748619503336136E-029
   0.0000000000000000          1.3715347901494801E-028
   3.0000000000000165E-004    -2.5296826569903425E-028
   5.9999999999999984E-004     9.3058735076699325E-029
   9.0000000000000149E-004     9.0204689802056385E-028
   1.2000000000000031E-003    -2.3181256110957207E-027
   1.5000000000000013E-003    -9.1462118913074094E-028
   1.8000000000000030E-003     2.3469196761527171E-026
   2.1000000000000012E-003    -8.8898960394076814E-026
   2.3999999999999994E-003     2.1382745589837288E-025
   2.7000000000000010E-003    -3.8675580651748380E-025
   2.9999999999999992E-003     5.1192995406144458E-025
   3.3000000000000008E-003     5.6391956590040101E-025
   3.6000000000000025E-003    -1.1644282120958765E-023
   3.9000000000000007E-003     7.1545707612739856E-023
   4.2000000000000023E-003    -2.6828497105458509E-022
   4.5000000000000005E-003     5.0862748356900181E-022
   4.7999999999999987E-003     1.0722360943887641E-021
   5.1000000000000004E-003    -1.4391336972041052E-020
   5.4000000000000020E-003     7.5766073881433680E-020
   5.7000000000000037E-003    -2.9087660230612784E-019
   5.9999999999999984E-003     9.2165100906753039E-019
   6.3000000000000000E-003    -2.5675797279472239E-018
   6.6000000000000017E-003     6.6856294302123356E-018
   6.9000000000000034E-003    -1.7638817813550013E-017
   7.2000000000000015E-003     5.1313574594766688E-017
   7.5000000000000032E-003    -1.6896494570854280E-016
   7.8000000000000014E-003     5.9525675310965836E-016
   8.0999999999999996E-003    -2.0563248619369783E-015
   8.4000000000000012E-003     6.3485094022256421E-015
   8.7000000000000029E-003    -1.4809654442703450E-014
   9.0000000000000011E-003     7.4059960524221090E-015
   9.2999999999999992E-003     1.7956838442762287E-013
   9.6000000000000009E-003    -1.3439711208582427E-012
   9.8999999999999991E-003     6.2112175315103626E-012
   1.0200000000000001E-002    -2.0439190584199264E-011
   1.0500000000000002E-002     4.2832667088145947E-011
   1.0800000000000004E-002    -1.1196942952103501E-011
   1.1099999999999999E-002    -3.1671537344094274E-010
   1.1400000000000000E-002     1.2837563858732062E-009
   1.1700000000000002E-002    -2.0537237240676837E-009
   1.2000000000000004E-002    -2.2147770214243794E-009
   1.2300000000000002E-002     1.7410015742174805E-008
   1.2600000000000000E-002    -2.4840171001082635E-008
   1.2900000000000002E-002    -4.0361499165169800E-008
   1.3200000000000000E-002     1.6171779155225619E-007
   1.3500000000000002E-002    -3.1157056959961626E-009
   1.3800000000000003E-002    -5.9154354792614166E-007
   1.4100000000000001E-002     1.5822703740675108E-007
   1.4400000000000000E-002     1.7943986409159108E-006
   1.4700000000000001E-002     9.1015388152775060E-008
   1.4999999999999999E-002    -5.1689838688905377E-006
   1.5300000000000001E-002    -4.1780399219129041E-006
   1.5600000000000003E-002     1.6284160361215462E-005
   1.5899999999999997E-002     6.0173188867477777E-005
   1.6199999999999999E-002     1.2088588084806272E-004
   1.6500000000000001E-002     1.9471500107556185E-004
   1.6800000000000002E-002     2.9180717102725209E-004
   1.7100000000000004E-002     4.3771905215438524E-004
   1.7400000000000006E-002     6.7154231211550468E-004
   1.7700000000000000E-002     1.0410401791884915E-003
   1.8000000000000002E-002     1.6021592387247964E-003
   1.8300000000000004E-002     2.4289263064016953E-003
   1.8600000000000005E-002     3.6245931580169847E-003
   1.8900000000000000E-002     5.3312476047698036E-003
   1.9200000000000002E-002     7.7379821239021559E-003
   1.9500000000000003E-002     1.1082848587024078E-002
   1.9799999999999998E-002     1.5652107149049466E-002
   2.0100000000000000E-002     2.1779755233007157E-002
   2.0400000000000001E-002     2.9847007385337403E-002
   2.0700000000000003E-002     4.0272530358021710E-002
   2.0999999999999998E-002     5.3478990001743769E-002
   2.1299999999999999E-002     6.9845714002495257E-002
   2.1600000000000001E-002     8.9660115959455430E-002
   2.1900000000000003E-002    0.11304596119272825     
   2.2200000000000004E-002    0.13986522024427822     
   2.2500000000000006E-002    0.16960024912193097     
   2.2800000000000001E-002    0.20124088320216435     
   2.3100000000000002E-002    0.23317802058604670     
   2.3400000000000004E-002    0.26310828446688428     
   2.3699999999999999E-002    0.28798219689491039     
   2.4000000000000000E-002    0.30400395525844714     
   2.4300000000000002E-002    0.30671113859486870     
   2.4599999999999997E-002    0.29117202877493048     
   2.4900000000000005E-002    0.25224554634639357     
   2.5200000000000000E-002    0.18501816749619640     
   2.5499999999999995E-002     8.5328973922099705E-002
   2.5800000000000003E-002    -4.9696248595002789E-002
   2.6099999999999998E-002   -0.22095357019997380     
   2.6400000000000007E-002   -0.42681339616302411     
   2.6700000000000002E-002   -0.66261941533448587     
   2.6999999999999996E-002   -0.92032200548574261     
   2.7300000000000005E-002    -1.1884585675264152     
   2.7600000000000000E-002    -1.4523693390071521     
   2.7900000000000008E-002    -1.6947829799499208     
   2.8200000000000003E-002    -1.8968029105387065     
   2.8499999999999998E-002    -2.0391204444442512     
   2.8800000000000006E-002    -2.1035020439117975     
   2.9100000000000001E-002    -2.0744948471187623     
   2.9400000000000003E-002    -1.9409123735062985     
   2.9700000000000004E-002    -1.6972724262600767     
   3.0000000000000006E-002    -1.3448605583886954     
   3.0300000000000001E-002   -0.89227372667512617     
   3.0600000000000002E-002   -0.35538429047418668     
   3.0900000000000004E-002    0.24333770801569873     
   3.1199999999999999E-002    0.87599009762547886     
   3.1500000000000007E-002     1.5112392976412301     
   3.1800000000000002E-002     2.1162307359868060     
   3.2099999999999997E-002     2.6590037463542897     
   3.2400000000000005E-002     3.1108212604730801     
   3.2700000000000000E-002     3.4481649543604824     
   3.3000000000000002E-002     3.6544368417511186     
   3.3300000000000003E-002     3.7209510953669045     
   3.3599999999999998E-002     3.6473100330227841     
   3.3900000000000000E-002     3.4411208763768131     
   3.4200000000000001E-002     3.1170487523004855     
   3.4500000000000003E-002     2.6954808335713181     
   3.4799999999999998E-002     2.2008833964878582     
   3.5099999999999999E-002     1.6597099361518266     
   3.5400000000000001E-002     1.0987333094096277     
   3.5699999999999996E-002    0.54319191110585030     
   3.6000000000000004E-002     1.5293865694061536E-002
   3.6299999999999999E-002   -0.46650901682633189     
   3.6600000000000008E-002   -0.88841081058267313     
   3.6900000000000002E-002    -1.2412535002951854     
   3.7199999999999997E-002    -1.5203216134768649     
   3.7500000000000006E-002    -1.7250372235140201     
   3.7800000000000000E-002    -1.8581947153971647     
   3.8100000000000009E-002    -1.9251775806499145     
   3.8400000000000004E-002    -1.9334176841057440     
   3.8699999999999998E-002    -1.8915358839867513     
   3.9000000000000007E-002    -1.8090465121776316     
   3.9300000000000002E-002    -1.6958838748982363     
   3.9600000000000003E-002    -1.5620703739886896     
   3.9900000000000005E-002    -1.4178247490532416     
   4.0200000000000000E-002    -1.2732641733177197     
   4.0500000000000001E-002    -1.1384029423957565     
   4.0800000000000003E-002    -1.0229316986968484     
   4.1100000000000005E-002   -0.93574572018340951     
   4.1399999999999999E-002   -0.88465840095520776     
   4.1700000000000008E-002   -0.87553352673104290     
   4.2000000000000003E-002   -0.91150516928790981     
   4.2299999999999997E-002   -0.99232441959406781     
   4.2600000000000006E-002    -1.1134482711368419     
   4.2900000000000001E-002    -1.2655847173261996     
   4.3200000000000002E-002    -1.4344809165810966     
   4.3500000000000004E-002    -1.6011368153578693     
   4.3799999999999999E-002    -1.7427305103198212     
   4.4100000000000000E-002    -1.8338486073572839     
   4.4400000000000002E-002    -1.8485339988308012     
   4.4700000000000004E-002    -1.7625591847227358     
   4.4999999999999998E-002    -1.5560149023353942     
   4.5300000000000000E-002    -1.2159705200939595     
   4.5600000000000002E-002   -0.73842000983488809     
   4.5899999999999996E-002   -0.13035249318990957     
   4.6200000000000005E-002    0.58983982441938776     
   4.6500000000000000E-002     1.3925291428404543     
   4.6799999999999994E-002     2.2376902275124300     
   4.7100000000000003E-002     3.0779235573595161     
   4.7399999999999998E-002     3.8614118342148886     
   4.7700000000000006E-002     4.5356426504609404     
   4.8000000000000001E-002     5.0521588603182677     
   4.8300000000000010E-002     5.3700742999393736     
   4.8600000000000004E-002     5.4598684576004812     
   4.8899999999999999E-002     5.3063936474370133     
   4.9200000000000008E-002     4.9095516409722659     
   4.9500000000000002E-002     4.2853217284478688     
   4.9800000000000011E-002     3.4641699898426941     
   5.0100000000000006E-002     2.4883213093032350     
   5.0400000000000000E-002     1.4094198933236901     
   5.0700000000000009E-002    0.28334590123748787     
   5.1000000000000004E-002   -0.83349574831524920     
   5.1299999999999998E-002    -1.8878499439509215     
   5.1600000000000007E-002    -2.8345542165564201     
   5.1900000000000002E-002    -3.6377101188359151     
   5.2200000000000010E-002    -4.2732811240040220     
   5.2500000000000005E-002    -4.7298746388570763     
   5.2800000000000000E-002    -5.0067072197420597     
   5.3099999999999994E-002    -5.1137075701565990     
   5.3400000000000003E-002    -5.0683594015446483     
   5.3699999999999998E-002    -4.8920650727602588     
   5.4000000000000006E-002    -4.6090350371906794     
   5.4300000000000001E-002    -4.2418918801537941     
   5.4599999999999996E-002    -3.8099403539304899     
   5.4900000000000004E-002    -3.3287227275878766     
   5.5199999999999999E-002    -2.8075556837652367     
   5.5499999999999994E-002    -2.2514309923015907     
   5.5800000000000002E-002    -1.6620544191538453     
   5.6099999999999997E-002    -1.0381658026431113     
   5.6400000000000006E-002   -0.37982251252186411     
   5.6700000000000000E-002    0.31081886565177164     
   5.6999999999999995E-002     1.0276584820321404     
   5.7300000000000004E-002     1.7575407267339409     
   5.7599999999999998E-002     2.4820375721412673     
   5.7900000000000007E-002     3.1761937453828852     
   5.8200000000000002E-002     3.8093624449207359     
   5.8499999999999996E-002     4.3494110452795285     
   5.8800000000000005E-002     4.7629604681828077     
   5.9100000000000000E-002     5.0196838701186595     
   5.9400000000000008E-002     5.0961590101204548     
   5.9700000000000003E-002     4.9764585731240727     
   6.0000000000000012E-002     4.6566305330467443     
   6.0300000000000006E-002     4.1448807809192942     
   6.0600000000000001E-002     3.4609549050804702     
   6.0900000000000010E-002     2.6374087248022522     
   6.1200000000000004E-002     1.7156809392695187     
   6.1500000000000013E-002    0.74393770469719656     
   6.1800000000000008E-002   -0.22517362587063577     
   6.2100000000000002E-002    -1.1401725204540361     
   6.2399999999999997E-002    -1.9528186746005936     
   6.2700000000000006E-002    -2.6216624217877125     
   6.3000000000000000E-002    -3.1159120026275611     
   6.3300000000000009E-002    -3.4154367826311445     
   6.3600000000000004E-002    -3.5128841713673085     
   6.3899999999999998E-002    -3.4138972987424667     
   6.4199999999999993E-002    -3.1348588592764033     
   6.4500000000000002E-002    -2.7029418960022746     
   6.4800000000000010E-002    -2.1531290909421679     
   6.5100000000000005E-002    -1.5251878291913781     
   6.5400000000000000E-002   -0.86215308240870747     
   6.5700000000000008E-002   -0.20644355462153244     
   6.5999999999999989E-002    0.40219996778735551     
   6.6299999999999998E-002    0.92839376806004204     
   6.6600000000000006E-002     1.3441119656324434     
   6.6900000000000001E-002     1.6294491721782509     
   6.7199999999999996E-002     1.7734703196260184     
   6.7500000000000004E-002     1.7755928326502348     
   6.7800000000000013E-002     1.6448439544186255     
   6.8099999999999994E-002     1.3993568489279629     
   6.8400000000000002E-002     1.0659165330863640     
   6.8700000000000011E-002    0.67753945086483036     
   6.8999999999999992E-002    0.27156767450930547     
   6.9300000000000000E-002   -0.11261371478556643     
   6.9600000000000009E-002   -0.43756483376644356     
   6.9900000000000004E-002   -0.67013202880507128     
   7.0199999999999999E-002   -0.78445332092757836     
   7.0500000000000007E-002   -0.76560573371139040     
   7.0800000000000016E-002   -0.61033211178192404     
   7.1099999999999997E-002   -0.32862237269157851     
   7.1400000000000005E-002     5.5907917664741263E-002
   7.1700000000000000E-002    0.50872938941910439     
   7.1999999999999995E-002    0.98573071160670744     
   7.2300000000000003E-002     1.4372826978518687     
   7.2600000000000012E-002     1.8134590665206847     
   7.2900000000000006E-002     2.0672233476131687     
   7.3200000000000001E-002     2.1606765231852649     
   7.3499999999999996E-002     2.0688794135653281     
   7.3800000000000004E-002     1.7816374782580986     
   7.4099999999999999E-002     1.3074003912002217     
   7.4400000000000008E-002    0.67188219255815418     
   7.4700000000000003E-002    -8.3815385972827741E-002
   7.5000000000000011E-002   -0.90479830586365495     
   7.5299999999999992E-002    -1.7287598717440555     
   7.5600000000000001E-002    -2.4903824297253014     
   7.5900000000000009E-002    -3.1270532664492388     
   7.6200000000000004E-002    -3.5860629212871338     
   7.6499999999999999E-002    -3.8276126570675326     
   7.6800000000000007E-002    -3.8296544769694174     
   7.7099999999999988E-002    -3.5905030002984630     
   7.7399999999999997E-002    -3.1274540643926372     
   7.7700000000000005E-002    -2.4770488932234085     
   7.8000000000000014E-002    -1.6911734498636937     
   7.8299999999999995E-002   -0.83165354644827150     
   7.8600000000000003E-002     3.3470132438007276E-002
   7.8900000000000012E-002    0.83731639167682770     
   7.9199999999999993E-002     1.5194330231150068     
   7.9500000000000001E-002     2.0296459241366041     
   7.9800000000000010E-002     2.3330121101736778     
   8.0100000000000018E-002     2.4110243390307926     
   8.0399999999999999E-002     2.2620616027239433     
   8.0700000000000008E-002     1.9013873398069412     
   8.1000000000000003E-002     1.3573886200080065     
   8.1299999999999997E-002    0.66914630166625644     
   8.1600000000000006E-002   -0.11725203699408820     
   8.1900000000000014E-002   -0.95380759521245351     
   8.2199999999999995E-002    -1.7930493413434032     
   8.2500000000000004E-002    -2.5915126892263154     
   8.2799999999999999E-002    -3.3121948371279171     
   8.3100000000000007E-002    -3.9248421362438433     
   8.3400000000000002E-002    -4.4069123484078361     
   8.3700000000000011E-002    -4.7429299621282022     
   8.4000000000000005E-002    -4.9231992089801411     
   8.4300000000000000E-002    -4.9429765128103611     
   8.4599999999999995E-002    -4.8013520682301447     
   8.4900000000000003E-002    -4.5001354719841773     
   8.5199999999999998E-002    -4.0436716640062249     
   8.5500000000000007E-002    -3.4386418478123124     
   8.5800000000000001E-002    -2.6940732655523787     
   8.6100000000000010E-002    -1.8225825512938523     
   8.6399999999999991E-002   -0.83988506508017036     
   8.6699999999999999E-002    0.23422538511156429     
   8.7000000000000008E-002     1.3757279489671348     
   8.7300000000000003E-002     2.5576195175612653     
   8.7599999999999997E-002     3.7498111299267944     
   8.7900000000000006E-002     4.9211554253776963     
   8.8200000000000014E-002     6.0409102354436408     
   8.8499999999999995E-002     7.0796885624817234     
   8.8800000000000004E-002     8.0114841841563447     
   8.9100000000000013E-002     8.8144055057200053     
   8.9399999999999993E-002     9.4709559401343792     
   8.9700000000000002E-002     9.9684325443150890     
   9.0000000000000011E-002     10.297684811799163     
   9.0299999999999991E-002     10.452234431512075     
   9.0600000000000000E-002     10.427191913950461     
   9.0900000000000009E-002     10.217836570070789     
   9.1200000000000017E-002     9.8188144713620886     
   9.1499999999999998E-002     9.2242462151328706     
   9.1800000000000007E-002     8.4278985859536526     
   9.2100000000000001E-002     7.4239088710362564     
   9.2399999999999996E-002     6.2099753783893554     
   9.2700000000000005E-002     4.7877732378218330     
   9.3000000000000013E-002     3.1664233917180820     
   9.3300000000000008E-002     1.3652115208407052     
   9.3600000000000003E-002   -0.58748978786927852     
   9.3899999999999997E-002    -2.6502821860700818     
   9.4200000000000006E-002    -4.7710023693656956     
   9.4500000000000001E-002    -6.8883057728458166     
   9.4800000000000009E-002    -8.9315282275835610     
   9.5100000000000004E-002    -10.827609220712029     
   9.5399999999999999E-002    -12.501911338782085     
   9.5699999999999993E-002    -13.882003970488682     
   9.6000000000000002E-002    -14.905089570120817     
   9.6300000000000011E-002    -15.517475319935004     
   9.6600000000000005E-002    -15.679891772699232     
   9.6900000000000000E-002    -15.371369538431980     
   9.7200000000000009E-002    -14.587389154408680     
   9.7499999999999989E-002    -13.344214582977374     
   9.7799999999999998E-002    -11.677822234679754     
   9.8100000000000007E-002    -9.6413498886379418     
   9.8400000000000015E-002    -7.3072038377998263     
   9.8699999999999996E-002    -4.7611804388313743     
   9.9000000000000005E-002    -2.1001164975340019     
   9.9300000000000013E-002    0.56942948272853833     
   9.9599999999999994E-002     3.1402142613875044     
   9.9900000000000003E-002     5.5058904551007455     
  0.10020000000000001          7.5659686243597273     
  0.10049999999999999          9.2347613695981927     
  0.10080000000000000          10.441043999581597     
  0.10110000000000001          11.136044655145971     
  0.10140000000000000          11.296545181284992     
  0.10170000000000000          10.923195029368159     
  0.10200000000000001          10.046050199880801     
  0.10230000000000002          8.7206421956996287     
  0.10260000000000000          7.0238896194425076     
  0.10290000000000001          5.0550094116011648     
  0.10320000000000000          2.9252250332219076     
  0.10350000000000001         0.75290850908999185     
  0.10380000000000000         -1.3400772100479756     
  0.10410000000000001         -3.2402234810386723     
  0.10440000000000001         -4.8455906837719871     
  0.10470000000000000         -6.0715113725054977     
  0.10500000000000000         -6.8582616930642706     
  0.10530000000000000         -7.1708456124147144     
  0.10560000000000000         -7.0031219452531843     
  0.10590000000000001         -6.3782034668873617     
  0.10620000000000000         -5.3443265483136857     
  0.10650000000000001         -3.9753670955734370     
  0.10679999999999999         -2.3644416326073601     
  0.10710000000000000        -0.61645099770635525     
  0.10740000000000001          1.1547285833644154     
  0.10770000000000000          2.8361249686570513     
  0.10800000000000000          4.3236947928460925     
  0.10830000000000001          5.5261083609372248     
  0.10859999999999999          6.3734193834545438     
  0.10890000000000000          6.8215771673252057     
  0.10920000000000001          6.8531704806374734     
  0.10950000000000001          6.4814964054474986     
  0.10979999999999999          5.7478199538475030     
  0.11009999999999999          4.7177830069289817     
  0.11040000000000001          3.4785180205309074     
  0.11070000000000001          2.1293954754560871     
  0.11100000000000000         0.77587261925992002     
  0.11130000000000000        -0.47758494263565321     
  0.11160000000000002         -1.5386869274643273     
  0.11190000000000001         -2.3319640792498428     
  0.11220000000000001         -2.8044219673120945     
  0.11250000000000000         -2.9324379602457364     
  0.11280000000000000         -2.7200384713711543     
  0.11309999999999999         -2.1997924327782745     
  0.11340000000000001         -1.4312388064110202     
  0.11369999999999998        -0.49201243409361156     
  0.11400000000000000         0.52560560950674751     
  0.11430000000000000          1.5242793586915206     
  0.11460000000000002          2.4116931094220524     
  0.11489999999999999          3.1052787514421718     
  0.11520000000000001          3.5426280756188087     
  0.11550000000000001          3.6860778607164719     
  0.11580000000000000          3.5239496491529598     
  0.11609999999999999          3.0743456106185336     
  0.11640000000000002          2.3807130018228388     
  0.11670000000000001          1.5070886693664096     
  0.11700000000000001         0.53382116565177606     
  0.11730000000000000        -0.45324132622437363     
  0.11760000000000000         -1.3700723796318295     
  0.11789999999999999         -2.1417277060391071     
  0.11820000000000001         -2.7122841117805954     
  0.11850000000000001         -3.0471472990936364     
  0.11880000000000000         -3.1369314435299103     
  0.11910000000000000         -2.9989009118763073     
  0.11940000000000002         -2.6710472278490172     
  0.11970000000000001         -2.2096345540695865     
  0.12000000000000001         -1.6818682011095778     
  0.12030000000000000         -1.1564348929837120     
  0.12060000000000000        -0.69765883047781607     
  0.12089999999999999        -0.35775287821060447     
  0.12119999999999999        -0.17096050084169701     
  0.12150000000000001        -0.15176893541905881     
  0.12180000000000001        -0.29349933258122390     
  0.12210000000000000        -0.57043312228939458     
  0.12239999999999999        -0.94341997724384630     
  0.12270000000000002         -1.3633516897859914     
  0.12300000000000001         -1.7790076635767513     
  0.12330000000000001         -2.1442878186868866     
  0.12360000000000000         -2.4206826662702405     
  0.12390000000000000         -2.5838980681556483     
  0.12419999999999999         -2.6251425776729760     
  0.12450000000000001         -2.5489027550924961     
  0.12480000000000001         -2.3741111815466951     
  0.12509999999999999         -2.1285898747956775     
  0.12540000000000001         -1.8438857848984862     
  0.12570000000000003         -1.5537830635653624     
  0.12600000000000000         -1.2867043049041935     
  0.12630000000000002         -1.0639404071859420     
  0.12659999999999999        -0.89938926707691536     
  0.12690000000000001        -0.79460006842573261     
  0.12719999999999998        -0.74403524207693028     
  0.12750000000000000        -0.73489993611083426     
  0.12780000000000002        -0.74778622179115695     
  0.12809999999999999        -0.76439124189703689     
  0.12840000000000001        -0.76492714796194483     
  0.12869999999999998        -0.73264402108344717     
  0.12900000000000000        -0.65764582190835497     
  0.12930000000000003        -0.53225678262625453     
  0.12959999999999999        -0.35639441064667943     
  0.12990000000000002        -0.13517035589996754     
  0.13019999999999998         0.12443992515440884     
  0.13050000000000000         0.41019043403470495     
  0.13080000000000003         0.71006816759698688     
  0.13109999999999999          1.0121921322318417     
  0.13140000000000002          1.3035070920518772     
  0.13169999999999998          1.5756477145618610     
  0.13200000000000001          1.8212852508262618     
  0.13229999999999997          2.0358448056218532     
  0.13260000000000000          2.2202806501274690     
  0.13290000000000002          2.3757646110849047     
  0.13319999999999999          2.5079090621072946     
  0.13350000000000001          2.6243877439605958     
  0.13380000000000003          2.7313568621153212     
  0.13410000000000000          2.8370473417895914     
  0.13440000000000002          2.9460125007200535     
  0.13469999999999999          3.0596532861348673     
  0.13500000000000001          3.1772916361491190     
  0.13529999999999998          3.2918634460984668     
  0.13560000000000000          3.3944320725937529     
  0.13590000000000002          3.4738974620926921     
  0.13619999999999999          3.5172030975298325     
  0.13650000000000001          3.5146062425445015     
  0.13680000000000003          3.4585485511570648     
  0.13710000000000000          3.3465533309603024     
  0.13740000000000002          3.1828570419430169     
  0.13769999999999999          2.9751758624072933     
  0.13800000000000001          2.7364411392134436     
  0.13829999999999998          2.4812443277956038     
  0.13860000000000000          2.2217066281667930     
  0.13890000000000002          1.9677168088384032     
  0.13919999999999999          1.7222499761074712     
  0.13950000000000001          1.4809480768384149     
  0.13979999999999998          1.2336549571249569     
  0.14010000000000000         0.96422991788882850     
  0.14040000000000002         0.65532133244046409     
  0.14069999999999999         0.29118850861310325     
  0.14100000000000001        -0.13833136882366776     
  0.14130000000000004        -0.63368919376133304     
  0.14160000000000000         -1.1854354400172011     
  0.14189999999999997         -1.7726900793496601     
  0.14219999999999999         -2.3660416772101094     
  0.14250000000000002         -2.9320676452282735     
  0.14279999999999998         -3.4379093740757236     
  0.14310000000000000         -3.8571515161786678     
  0.14339999999999997         -4.1761393631151655     
  0.14369999999999999         -4.3969297520056410     
  0.14400000000000002         -4.5383863601532148     
  0.14429999999999998         -4.6359529696178532     
  0.14460000000000001         -4.7360139136838795     
  0.14490000000000003         -4.8894391327000193     
  0.14520000000000000         -5.1435284874135920     
  0.14550000000000002         -5.5317692965294523     
  0.14579999999999999         -6.0674276462674470     
  0.14610000000000001         -6.7368211713286872     
  0.14640000000000003         -7.4968127986495663     
  0.14670000000000000         -8.2792491487863060     
  0.14699999999999996         -8.9941071826987518     
  0.14729999999999999         -9.5414342047485725     
  0.14760000000000001         -9.8251904457482322     
  0.14789999999999998         -9.7634657737408936     
  0.14820000000000000         -9.3055037359265800     