  -1.4999999999999999E-002     0.0000000000000000     
  -1.4700000000000000E-002     0.0000000000000000     
  -1.4400000000000000E-002     0.0000000000000000     
  -1.4100000000000000E-002     0.0000000000000000     
  -1.3800000000000000E-002     0.0000000000000000     
  -1.3500000000000000E-002     0.0000000000000000     
  -1.3200000000000000E-002    -1.0817835993558272E-044
  -1.2899999999999998E-002     1.6994294436696427E-036
  -1.2600000000000000E-002    -6.5669337371516304E-035
  -1.2299999999999998E-002     6.4439964160370534E-034
  -1.2000000000000000E-002    -3.8490941514707003E-033
  -1.1699999999999999E-002     3.0858237035151916E-032
  -1.1399999999999999E-002     1.1525201089436083E-030
  -1.1099999999999999E-002    -2.1978682329766012E-029
  -1.0799999999999999E-002    -2.5945833882500066E-029
  -1.0499999999999999E-002     4.5608542170448760E-027
  -1.0199999999999999E-002    -6.4900055526702385E-026
  -9.8999999999999991E-003     4.9389996731817154E-025
  -9.5999999999999992E-003    -2.2533588607501884E-024
  -9.2999999999999992E-003     5.2080440528302249E-024
  -8.9999999999999993E-003     6.2835308271127478E-024
  -8.6999999999999994E-003    -1.1623143345066245E-022
  -8.3999999999999995E-003     6.1487764771928218E-022
  -8.0999999999999996E-003    -2.2687542881100144E-021
  -7.7999999999999988E-003     6.5998887236104552E-021
  -7.4999999999999997E-003    -1.5722140654544468E-020
  -7.1999999999999998E-003     3.2042013808654250E-020
  -6.8999999999999981E-003    -6.1630942302898602E-020
  -6.5999999999999982E-003     1.2659718350321423E-019
  -6.3000000000000000E-003    -2.5503367542859631E-019
  -6.0000000000000001E-003     2.4742182700912244E-019
  -5.6999999999999985E-003     1.1590832261092388E-018
  -5.3999999999999986E-003    -7.1996578978734162E-018
  -5.1000000000000004E-003     2.0272008328958609E-017
  -4.7999999999999987E-003    -2.8616257461216534E-017
  -4.5000000000000005E-003    -1.9122118650866923E-017
  -4.1999999999999989E-003     2.3104539119470851E-016
  -3.8999999999999990E-003    -7.1824405672378993E-016
  -3.5999999999999990E-003     1.3807608184506265E-015
  -3.2999999999999991E-003    -1.5521440046814928E-015
  -2.9999999999999992E-003    -1.5355383347004017E-016
  -2.6999999999999993E-003     5.1270424129318648E-015
  -2.3999999999999994E-003    -1.2741827771054351E-014
  -2.0999999999999977E-003     1.7888610164733289E-014
  -1.7999999999999995E-003    -1.0860664786246795E-014
  -1.4999999999999979E-003    -1.7762556131652793E-014
  -1.1999999999999997E-003     6.9467907442566654E-014
  -8.9999999999999976E-004    -1.3491487012401931E-013
  -5.9999999999999810E-004     1.9685330537532123E-013
  -2.9999999999999992E-004    -2.2011517693727670E-013
   0.0000000000000000          1.1498245519927038E-013
   3.0000000000000165E-004     2.6296988338402397E-013
   5.9999999999999984E-004    -9.5134967563682547E-013
   9.0000000000000149E-004     1.6041448569373623E-012
   1.2000000000000031E-003    -1.4784700369861545E-012
   1.5000000000000013E-003    -2.5388323242504941E-014
   1.8000000000000030E-003     2.6786214511516323E-012
   2.1000000000000012E-003    -5.1567241759957201E-012
   2.3999999999999994E-003     4.6570402468484441E-012
   2.7000000000000010E-003     3.2642419628839662E-012
   2.9999999999999992E-003    -1.9530530512581477E-011
   3.3000000000000008E-003     3.5799079090514239E-011
   3.6000000000000025E-003    -8.0951229853362062E-011
   3.9000000000000007E-003     3.4953791630903331E-010
   4.2000000000000023E-003    -1.0130740201439123E-009
   4.5000000000000005E-003     6.4759116399750771E-010
   4.7999999999999987E-003     6.1253817570820759E-009
   5.1000000000000004E-003    -2.2999261837033998E-008
   5.4000000000000020E-003     2.3820253382230776E-008
   5.7000000000000037E-003     6.8589436692882890E-008
   5.9999999999999984E-003    -2.4908153052941766E-007
   6.3000000000000000E-003     1.0793464876257605E-007
   6.6000000000000017E-003     8.4345372873747180E-007
   6.9000000000000034E-003    -1.2440934842582359E-006
   7.2000000000000015E-003    -1.9985153778379140E-006
   7.5000000000000032E-003     4.3393478465605040E-006
   7.8000000000000014E-003     5.4929088772989165E-006
   8.0999999999999996E-003    -1.0163251831181607E-005
   8.4000000000000012E-003    -2.0539859011295568E-005
   8.7000000000000029E-003     1.6648978719205734E-005
   9.0000000000000011E-003     1.1802569697448589E-004
   9.2999999999999992E-003     2.5984339047089043E-004
   9.6000000000000009E-003     4.1729690955283658E-004
   9.8999999999999991E-003     5.9715856667485697E-004
   1.0200000000000001E-002     8.4769322020790297E-004
   1.0500000000000002E-002     1.2661529684451040E-003
   1.0800000000000004E-002     1.9614072098130056E-003
   1.1099999999999999E-002     3.0280940384102731E-003
   1.1400000000000000E-002     4.5934221815534648E-003
   1.1700000000000002E-002     6.8449754416019335E-003
   1.2000000000000004E-002     1.0030595477607559E-002
   1.2300000000000002E-002     1.4484059697524355E-002
   1.2600000000000000E-002     2.0639464701237682E-002
   1.2900000000000002E-002     2.8999125531133971E-002
   1.3200000000000000E-002     4.0099290143596436E-002
   1.3500000000000002E-002     5.4537519795894114E-002
   1.3800000000000003E-002     7.2959534040498944E-002
   1.4100000000000001E-002     9.5932290094301834E-002
   1.4400000000000000E-002    0.12384376192292976     
   1.4700000000000001E-002    0.15682751647632165     
   1.4999999999999999E-002    0.19460902512704481     
   1.5300000000000001E-002    0.23628985170669131     
   1.5600000000000003E-002    0.28012581910597789     
   1.5899999999999997E-002    0.32333222237181847     
   1.6199999999999999E-002    0.36191644685142571     
   1.6500000000000001E-002    0.39058136058791176     
   1.6800000000000002E-002    0.40273110940958146     
   1.7100000000000004E-002    0.39056915808453718     
   1.7400000000000006E-002    0.34545634089264815     
   1.7700000000000000E-002    0.25846272930453912     
   1.8000000000000002E-002    0.12105747728801639     
   1.8300000000000004E-002    -7.3866182663296281E-002
   1.8600000000000005E-002   -0.33079194959318159     
   1.8900000000000000E-002   -0.65042573853786201     
   1.9200000000000002E-002    -1.0285055681677275     
   1.9500000000000003E-002    -1.4548134629896439     
   1.9799999999999998E-002    -1.9124527320974316     
   2.0100000000000000E-002    -2.3775525416468239     
   2.0400000000000001E-002    -2.8200053169299677     
   2.0700000000000003E-002    -3.2046848398520300     
   2.0999999999999998E-002    -3.4934452907323754     
   2.1299999999999999E-002    -3.6477928531417767     
   2.1600000000000001E-002    -3.6320459429104703     
   2.1900000000000003E-002    -3.4169802964384353     
   2.2200000000000004E-002    -2.9832601318410568     
   2.2500000000000006E-002    -2.3244853110541350     
   2.2800000000000001E-002    -1.4493890136878123     
   2.3100000000000002E-002   -0.38300598493814658     
   2.3400000000000004E-002    0.83335052670764476     
   2.3699999999999999E-002     2.1444326883542222     
   2.4000000000000000E-002     3.4836464830625919     
   2.4300000000000002E-002     4.7775263438412807     
   2.4599999999999997E-002     5.9510332489975077     
   2.4900000000000005E-002     6.9329067505391055     
   2.5200000000000000E-002     7.6614596596314595     
   2.5499999999999995E-002     8.0889998887568666     
   2.5800000000000003E-002     8.1853829662463884     
   2.6099999999999998E-002     7.9402048540037740     
   2.6400000000000007E-002     7.3631516711521634     
   2.6700000000000002E-002     6.4828409042746244     
   2.6999999999999996E-002     5.3437798626015720     
   2.7300000000000005E-002     4.0028372710167508     
   2.7600000000000000E-002     2.5246429030297231     
   2.7900000000000008E-002    0.97678623463028180     
   2.8200000000000003E-002   -0.57461374592259817     
   2.8499999999999998E-002    -2.0686038460977727     
   2.8800000000000006E-002    -3.4517048814336135     
   2.9100000000000001E-002    -4.6801878704472086     
   2.9400000000000003E-002    -5.7197818503494275     
   2.9700000000000004E-002    -6.5457860731671698     
   3.0000000000000006E-002    -7.1417566591391388     
   3.0300000000000001E-002    -7.4977639153575311     
   3.0600000000000002E-002    -7.6099739369835504     
   3.0900000000000004E-002    -7.4785521147609462     
   3.1199999999999999E-002    -7.1079107511659760     
   3.1500000000000007E-002    -6.5069694778374716     
   3.1800000000000002E-002    -5.6894046433964611     
   3.2099999999999997E-002    -4.6755160106760725     
   3.2400000000000005E-002    -3.4932732861037490     
   3.2700000000000000E-002    -2.1787816817548098     
   3.3000000000000002E-002   -0.77760246059113158     
   3.3300000000000003E-002    0.65616657056273553     
   3.3599999999999998E-002     2.0621840284040696     
   3.3900000000000000E-002     3.3751932745878443     
   3.4200000000000001E-002     4.5299847128575941     
   3.4500000000000003E-002     5.4654809549399781     
   3.4799999999999998E-002     6.1285260439358300     
   3.5099999999999999E-002     6.4804771806114418     
   3.5400000000000001E-002     6.4987565922067052     
   3.5699999999999996E-002     6.1806789494774126     
   3.6000000000000004E-002     5.5449384177164163     
   3.6299999999999999E-002     4.6287207239514645     
   3.6600000000000008E-002     3.4880531020795384     
   3.6900000000000002E-002     2.1916432781624673     
   3.7199999999999997E-002    0.81562616330744819     
   3.7500000000000006E-002   -0.56059228077051138     
   3.7800000000000000E-002    -1.8632003697271542     
   3.8100000000000009E-002    -3.0273879440195395     
   3.8400000000000004E-002    -4.0027455659989739     
   3.8699999999999998E-002    -4.7578962928052668     
   3.9000000000000007E-002    -5.2792751932029987     
   3.9300000000000002E-002    -5.5729876770006959     
   3.9600000000000003E-002    -5.6619418821733722     
   3.9900000000000005E-002    -5.5811087650037052     
   4.0200000000000000E-002    -5.3747594161194003     
   4.0500000000000001E-002    -5.0890464091577048     
   4.0800000000000003E-002    -4.7675401117540153     
   4.1100000000000005E-002    -4.4469663758989091     
   4.1399999999999999E-002    -4.1517886270635449     
   4.1700000000000008E-002    -3.8933441286286632     
   4.2000000000000003E-002    -3.6683830070454846     
   4.2299999999999997E-002    -3.4595247450522404     
   4.2600000000000006E-002    -3.2384946711737634     
   4.2900000000000001E-002    -2.9690791252697046     
   4.3200000000000002E-002    -2.6117588948851509     
   4.3500000000000004E-002    -2.1294118894641798     
   4.3799999999999999E-002    -1.4907995172923747     
   4.4100000000000000E-002   -0.67551332949746423     
   4.4400000000000002E-002    0.32336206238638893     
   4.4700000000000004E-002     1.4978860934677307     
   4.4999999999999998E-002     2.8241225024175374     
   4.5300000000000000E-002     4.2644691473887217     
   4.5600000000000002E-002     5.7694554720637719     
   4.5899999999999996E-002     7.2812095312356258     
   4.6200000000000005E-002     8.7378889856712298     
   4.6500000000000000E-002     10.076659666895964     
   4.6799999999999994E-002     11.238135972371300     
   4.7100000000000003E-002     12.168928799550574     
   4.7399999999999998E-002     12.823709609233070     
   4.7700000000000006E-002     13.167416080882804     
   4.8000000000000001E-002     13.174357491981297     
   4.8300000000000010E-002     12.829898131098309     
   4.8600000000000004E-002     12.128775484103729     
   4.8899999999999999E-002     11.074684507025777     
   4.9200000000000008E-002     9.6815325910499350     
   4.9500000000000002E-002     7.9706787646408763     
   4.9800000000000011E-002     5.9737454300339685     
   5.0100000000000006E-002     3.7313900046503559     
   5.0400000000000000E-002     1.2937439242834630     
   5.0700000000000009E-002    -1.2779130629957054     
   5.1000000000000004E-002    -3.9134234294494514     
   5.1299999999999998E-002    -6.5328706724703460     
   5.1600000000000007E-002    -9.0493905140087225     
   5.1900000000000002E-002    -11.372125266666471     
   5.2200000000000010E-002    -13.408209506118400     
   5.2500000000000005E-002    -15.070004529057655     
   5.2800000000000000E-002    -16.277827391723473     
   5.3099999999999994E-002    -16.965822396418098     
   5.3400000000000003E-002    -17.088879482438955     
   5.3699999999999998E-002    -16.624402088709317     
   5.4000000000000006E-002    -15.577753351634868     
   5.4300000000000001E-002    -13.983912767888413     
   5.4599999999999996E-002    -11.907034684449325     
   5.4900000000000004E-002    -9.4397289967358411     
   5.5199999999999999E-002    -6.6986080491725435     
   5.5499999999999994E-002    -3.8184124203465002     
   5.5800000000000002E-002   -0.94475661540225508     
   5.6099999999999997E-002     1.7748782995215036     
   5.6400000000000006E-002     4.2009033433353054     
   5.6700000000000000E-002     6.2105227212192089     
   5.6999999999999995E-002     7.7075046732350625     
   5.7300000000000004E-002     8.6286249833011954     
   5.7599999999999998E-002     8.9489751792926420     
   5.7900000000000007E-002     8.6846816679574683     
   5.8200000000000002E-002     7.8908994135144717     
   5.8499999999999996E-002     6.6597043966741447     
   5.8800000000000005E-002     5.1121021066826504     
   5.9100000000000000E-002     3.3885613425304406     
   5.9400000000000008E-002     1.6390814575468466     
   5.9700000000000003E-002     9.8567373382231205E-003
   6.0000000000000012E-002    -1.3674565618634487     
   6.0300000000000006E-002    -2.3860956399853537     
   6.0600000000000001E-002    -2.9730307269735747     
   6.0900000000000010E-002    -3.0944130293730217     
   6.1200000000000004E-002    -2.7569455952863287     
   6.1500000000000013E-002    -2.0062678580035396     
   6.1800000000000008E-002   -0.92270013706591958     
   6.2100000000000002E-002    0.38900677608642320     
   6.2399999999999997E-002     1.8082654075306559     
   6.2700000000000006E-002     3.2108081367131152     
   6.3000000000000000E-002     4.4811801545949557     
   6.3300000000000009E-002     5.5207698296154346     
   6.3600000000000004E-002     6.2596568662134624     
   6.3899999999999998E-002     6.6583908037659230     
   6.4199999999999993E-002     6.7102939110433697     
   6.4500000000000002E-002     6.4434724139302544     
   6.4800000000000010E-002     5.9093355320202035     
   6.5100000000000005E-002     5.1801359527165252     
   6.5400000000000000E-002     4.3386798543353366     
   6.5700000000000008E-002     3.4657672151895245     
   6.5999999999999989E-002     2.6371029904685366     
   6.6299999999999998E-002     1.9100103589351205     
   6.6600000000000006E-002     1.3219459139117744     
   6.6900000000000001E-002    0.89002799778390007     
   6.7199999999999996E-002    0.60664519754473711     
   6.7500000000000004E-002    0.44875503622450874     
   6.7800000000000013E-002    0.37999573063547037     
   6.8099999999999994E-002    0.35582215227174363     
   6.8400000000000002E-002    0.33352463197032478     
   6.8700000000000011E-002    0.27373995239017768     
   6.8999999999999992E-002    0.14532878896194670     
   6.9300000000000000E-002    -7.0652061750157993E-002
   6.9600000000000009E-002   -0.38482854609469869     
   6.9900000000000004E-002   -0.79795212092381895     
   7.0199999999999999E-002    -1.3034297058895656     
   7.0500000000000007E-002    -1.8930952397327014     
   7.0800000000000016E-002    -2.5553586779115118     
   7.1099999999999997E-002    -3.2791350574896887     
   7.1400000000000005E-002    -4.0546599757538555     
   7.1700000000000000E-002    -4.8688324907100284     
   7.1999999999999995E-002    -5.7079244372991242     
   7.2300000000000003E-002    -6.5531064822591709     
   7.2600000000000012E-002    -7.3782921897507094     
   7.2900000000000006E-002    -8.1547689474792513     
   7.3200000000000001E-002    -8.8471938836207080     
   7.3499999999999996E-002    -9.4200584994056733     
   7.3800000000000004E-002    -9.8438886717420520     
   7.4099999999999999E-002    -10.095466707499309     
   7.4400000000000008E-002    -10.167964243631911     
   7.4700000000000003E-002    -10.070381828664368     
   7.5000000000000011E-002    -9.8267644092004840     
   7.5299999999999992E-002    -9.4768008931771348     
   7.5600000000000001E-002    -9.0638007469914061     
   7.5900000000000009E-002    -8.6276773009746588     
   7.6200000000000004E-002    -8.1935934654459146     
   7.6499999999999999E-002    -7.7577976710792207     
   7.6800000000000007E-002    -7.2817250531276105     
   7.7099999999999988E-002    -6.6866749424518730     
   7.7399999999999997E-002    -5.8535726603354030     
   7.7700000000000005E-002    -4.6340451128261142     
   7.8000000000000014E-002    -2.8654998069084634     
   7.8299999999999995E-002   -0.39044918378446702     
   7.8600000000000003E-002     2.9143832785570400     
   7.8900000000000012E-002     7.1148428395843002     
   7.9199999999999993E-002     12.194741886841822     
   7.9500000000000001E-002     18.036774712509057     
   7.9800000000000010E-002     24.417525423484598     
   8.0100000000000018E-002     31.004511385122250     
   8.0399999999999999E-002     37.376334242930177     
   8.0700000000000008E-002     43.046420852711101     
   8.1000000000000003E-002     47.498046565481673     
   8.1299999999999997E-002     50.234659551105423     
   8.1600000000000006E-002     50.818229973268373     
   8.1900000000000014E-002     48.921578922718680     
   8.2199999999999995E-002     44.365671597735052     
   8.2500000000000004E-002     37.144360232804914     
   8.2799999999999999E-002     27.448309659882788     
   8.3100000000000007E-002     15.654275699978626     
   8.3400000000000002E-002     2.3124134550652951     
   8.3700000000000011E-002    -11.885326820105149     
   8.4000000000000005E-002    -26.159604390756662     
   8.4300000000000000E-002    -39.689754340332811     
   8.4599999999999995E-002    -51.681430991483502     
   8.4900000000000003E-002    -61.425228206996096     
   8.5199999999999998E-002    -68.345140880766408     
   8.5500000000000007E-002    -72.046112230335297     
   8.5800000000000001E-002    -72.339398048950031     
   8.6100000000000010E-002    -69.252923067451846     
   8.6399999999999991E-002    -63.026312406108062     
   8.6699999999999999E-002    -54.086666122107836     
   8.7000000000000008E-002    -43.011807376751030     
   8.7300000000000003E-002    -30.485090520714216     
   8.7599999999999997E-002    -17.240630850879057     
   8.7900000000000006E-002    -4.0120312537790781     
   8.8200000000000014E-002     8.5156061446763651     
   8.8499999999999995E-002     19.751595437677189     
   8.8800000000000004E-002     29.226577459484890     
   8.9100000000000013E-002     36.612884704795583     
   8.9399999999999993E-002     41.734824559527254     
   8.9700000000000002E-002     44.557742821749514     
   9.0000000000000011E-002     45.182319740989286     
   9.0299999999999991E-002     43.816602631750072     
   9.0600000000000000E-002     40.751117831154062     
   9.0900000000000009E-002     36.336963338444143     
   9.1200000000000017E-002     30.948418689001727     
   9.1499999999999998E-002     24.966556684045795     
   9.1800000000000007E-002     18.754195252543198     
   9.2100000000000001E-002     12.634342171642793     
   9.2399999999999996E-002     6.8855555317993886     
   9.2700000000000005E-002     1.7267184782365597     
   9.3000000000000013E-002    -2.6848627851801448     
   9.3300000000000008E-002    -6.2508932922094989     
   9.3600000000000003E-002    -8.9345637183370652     
   9.3899999999999997E-002    -10.750594082535072     
   9.4200000000000006E-002    -11.757552597934609     
   9.4500000000000001E-002    -12.051289500624158     
   9.4800000000000009E-002    -11.750143675720878     
   9.5100000000000004E-002    -10.985500093213801     
   9.5399999999999999E-002    -9.8952279827865972     
   9.5699999999999993E-002    -8.6060512256689279     
   9.6000000000000002E-002    -7.2338168074872531     
   9.6300000000000011E-002    -5.8753315859528588     
   9.6600000000000005E-002    -4.6003965896735401     
   9.6900000000000000E-002    -3.4624989580657264     
   9.7200000000000009E-002    -2.4876642648410390     
   9.7499999999999989E-002    -1.6855602956514497     
   9.7799999999999998E-002    -1.0551475990853638     
   9.8100000000000007E-002   -0.57799110420873168     
   9.8400000000000015E-002   -0.23905551707494060     
   9.8699999999999996E-002    -1.5667712960171221E-002
   9.9000000000000005E-002    0.11493625922202505     
   9.9300000000000013E-002    0.16758185306165674     
   9.9599999999999994E-002    0.16431294557580539     
   9.9900000000000003E-002    0.11736184891176010     
  0.10020000000000001          4.1224224873359472E-002
  0.10049999999999999         -4.8146173516292398E-002
  0.10080000000000000        -0.14254527779947893     
  0.10110000000000001        -0.22702362829658373     
  0.10140000000000000        -0.29398176968172696     
  0.10170000000000000        -0.33693218863610480     
  0.10200000000000001        -0.34960821017972860     
  0.10230000000000002        -0.33527361719214410     
  0.10260000000000000        -0.29548889207624129     
  0.10290000000000001        -0.23736015374615094     
  0.10320000000000000        -0.17058026876608723     
  0.10350000000000001        -0.10199789170305079     
  0.10380000000000000         -4.1005855987738551E-002
  0.10410000000000001          7.8908145964236912E-003
  0.10440000000000001          4.2756856245487168E-002
  0.10470000000000000          6.3256250901682090E-002
  0.10500000000000000          7.4602946932658898E-002
  0.10530000000000000          8.1855874220336300E-002
  0.10560000000000000          9.0944905727118108E-002
  0.10590000000000001         0.10814506846697243     
  0.10620000000000000         0.13553817516361799     
  0.10650000000000001         0.17373157930862848     
  0.10679999999999999         0.22146425789223925     
  0.10710000000000000         0.27240091449480530     
  0.10740000000000001         0.32161199146023539     
  0.10770000000000000         0.36261758616944989     
  0.10800000000000000         0.38882427789967644     
  0.10830000000000001         0.39962689318900213     
  0.10859999999999999         0.39142149113415370     
  0.10890000000000000         0.36788556925138782     
  0.10920000000000001         0.33398091899266413     
  0.10950000000000001         0.29238597850750336     
  0.10979999999999999         0.25324044247660393     
  0.11009999999999999         0.21866698230299547     
  0.11040000000000001         0.19330068946709969     
  0.11070000000000001         0.18055816303863398     
  0.11100000000000000         0.17606413692904815     
  0.11130000000000000         0.18112814707901806     
  0.11160000000000002         0.18953999071681871     
  0.11190000000000001         0.19667262017016490     
  0.11220000000000001         0.20073766386570799     
  0.11250000000000000         0.19518284025670601     
  0.11280000000000000         0.18131704837710172     
  0.11309999999999999         0.15844449122166337     
  0.11340000000000001         0.12791956101253588     
  0.11369999999999998          9.5057676623696408E-002
  0.11400000000000000          6.2397015836411357E-002
  0.11430000000000000          3.5058897865881469E-002
  0.11460000000000002          1.5951812459570253E-002
  0.11489999999999999          6.9352640168784500E-003
  0.11520000000000001          8.4978025938831775E-003
  0.11550000000000001          1.9276635044069748E-002
  0.11580000000000000          3.5801154380675840E-002
  0.11609999999999999          5.2830361474962360E-002
  0.11640000000000002          6.6512097757140981E-002
  0.11670000000000001          7.0238270894039834E-002
  0.11700000000000001          6.0823645953091449E-002
  0.11730000000000000          3.6934713642777971E-002
  0.11760000000000000         -3.1760305451513510E-003
  0.11789999999999999         -5.3691979033006335E-002
  0.11820000000000001        -0.11171183724623299     
  0.11850000000000001        -0.16977574410084678     
  0.11880000000000000        -0.21763356497584532     
  0.11910000000000000        -0.25145409364934929     
  0.11940000000000002        -0.26122841126137275     
  0.11970000000000001        -0.24522892506252414     
  0.12000000000000001        -0.20452929845592505     
  0.12030000000000000        -0.14047062882776928     
  0.12060000000000000         -6.4445949740830247E-002
  0.12089999999999999          1.5650655725617010E-002
  0.12119999999999999          8.7047444552862063E-002
  0.12150000000000001         0.13624610153270547     
  0.12180000000000001         0.15599874493362464     
  0.12210000000000000         0.13884084236451846     
  0.12239999999999999          8.4664024002595997E-002
  0.12270000000000002          2.1208909992709302E-004
  0.12300000000000001        -0.10415307397290509     
  0.12330000000000001        -0.21214006329813284     
  0.12360000000000000        -0.30465521027973053     
  0.12390000000000000        -0.36490875077065094     
  0.12419999999999999        -0.37701137990426375     
  0.12450000000000001        -0.33193482247022293     
  0.12480000000000001        -0.23069572840771579     
  0.12509999999999999         -7.9514626176010961E-002
  0.12540000000000001         0.10287487669802714     
  0.12570000000000003         0.29172447157187542     
  0.12600000000000000         0.46054931353258244     
  0.12630000000000002         0.57788088197042564     
  0.12659999999999999         0.62162898344629425     
  0.12690000000000001         0.57614362644728279     
  0.12719999999999998         0.43555191506015989     
  0.12750000000000000         0.21273375285449825     
  0.12780000000000002         -7.0988181890312224E-002
  0.12809999999999999        -0.37963389210394638     
  0.12840000000000001        -0.66970126552021703     
  0.12869999999999998        -0.89870494479185026     
  0.12900000000000000         -1.0235936724735164     
  0.12930000000000003         -1.0145131023856919     
  0.12959999999999999        -0.85576319318078353     
  0.12990000000000002        -0.54916952280493003     
  0.13019999999999998        -0.11681172604989110     
  0.13050000000000000         0.40203541454113711     
  0.13080000000000003         0.95442295402722066     
  0.13109999999999999          1.4796539459857085     
  0.13140000000000002          1.9146254828091567     
  0.13169999999999998          2.2056204223743792     
  0.13200000000000001          2.3087375597745003     
  0.13229999999999997          2.1989811676549156     
  0.13260000000000000          1.8749690950744795     
  0.13290000000000002          1.3517278350592994     
  0.13319999999999999         0.67035315004414664     
  0.13350000000000001        -0.11560997215548563     
  0.13380000000000003        -0.94361456921626263     
  0.13410000000000000         -1.7405770928743474     
  0.13440000000000002         -2.4448256827371688     
  0.13469999999999999         -2.9960916045354318     
  0.13500000000000001         -3.3487846560940442     
  0.13529999999999998         -3.4794337296412334     
  0.13560000000000000         -3.3738255335442555     
  0.13590000000000002         -3.0448495891820855     
  0.13619999999999999         -2.5181415791127977     
  0.13650000000000001         -1.8312994657238635     
  0.13680000000000003         -1.0388392839347285     
  0.13710000000000000        -0.19328705871500540     
  0.13740000000000002         0.64654680778565088     
  0.13769999999999999          1.4243315937664889     
  0.13800000000000001          2.0948412996728902     
  0.13829999999999998          2.6172243099610184     
  0.13860000000000000          2.9658663663800198     
  0.13890000000000002          3.1283909067189821     
  0.13919999999999999          3.1031754307281760     
  0.13950000000000001          2.9045222570115223     
  0.13979999999999998          2.5558419268203494     
  0.14010000000000000          2.0881588873743868     
  0.14040000000000002          1.5405182691235333     
  0.14069999999999999         0.95208205253708234     
  0.14100000000000001         0.36143450417584255     
  0.14130000000000004        -0.19369981301169992     
  0.14160000000000000        -0.68524037862127130     
  0.14189999999999997         -1.0901987088239691     
  0.14219999999999999         -1.3935429911248667     
  0.14250000000000002         -1.5916569401697256     
  0.14279999999999998         -1.6839188158241980     
  0.14310000000000000         -1.6795964666592349     
  0.14339999999999997         -1.5917551026979120     
  0.14369999999999999         -1.4350157336702254     
  0.14400000000000002         -1.2292592296894158     
  0.14429999999999998        -0.99061321017654791     
  0.14460000000000001        -0.73641760012588875     
  0.14490000000000003        -0.48231496053522038     
  0.14520000000000000        -0.24005162026600602     
  0.14550000000000002         -2.1245191629687910E-002
  0.14579999999999999         0.16695380333655677     
  0.14610000000000001         0.31908960967721028     
  0.14640000000000003         0.43224605071186983     
  0.14670000000000000         0.50595272018493109     
  0.14699999999999996         0.54191478319688313     
  0.14729999999999999         0.54476336625747290     
  0.14760000000000001         0.51873925682632727     
  0.14789999999999998         0.47140195165069088     
  0.14820000000000000         0.40933182183734962     