  -1.4999999999999999E-002     0.0000000000000000     
  -1.4700000000000000E-002     0.0000000000000000     
  -1.4400000000000000E-002     0.0000000000000000     
  -1.4100000000000000E-002     0.0000000000000000     
  -1.3800000000000000E-002     0.0000000000000000     
  -1.3500000000000000E-002     0.0000000000000000     
  -1.3200000000000000E-002     0.0000000000000000     
  -1.2899999999999998E-002     0.0000000000000000     
  -1.2600000000000000E-002     0.0000000000000000     
  -1.2299999999999998E-002     0.0000000000000000     
  -1.2000000000000000E-002     0.0000000000000000     
  -1.1699999999999999E-002     0.0000000000000000     
  -1.1399999999999999E-002     0.0000000000000000     
  -1.1099999999999999E-002     0.0000000000000000     
  -1.0799999999999999E-002     0.0000000000000000     
  -1.0499999999999999E-002     0.0000000000000000     
  -1.0199999999999999E-002     0.0000000000000000     
  -9.8999999999999991E-003     0.0000000000000000     
  -9.5999999999999992E-003     0.0000000000000000     
  -9.2999999999999992E-003     0.0000000000000000     
  -8.9999999999999993E-003     0.0000000000000000     
  -8.6999999999999994E-003     0.0000000000000000     
  -8.3999999999999995E-003     0.0000000000000000     
  -8.0999999999999996E-003     0.0000000000000000     
  -7.7999999999999988E-003     0.0000000000000000     
  -7.4999999999999997E-003     0.0000000000000000     
  -7.1999999999999998E-003     0.0000000000000000     
  -6.8999999999999981E-003     0.0000000000000000     
  -6.5999999999999982E-003     0.0000000000000000     
  -6.3000000000000000E-003     0.0000000000000000     
  -6.0000000000000001E-003     0.0000000000000000     
  -5.6999999999999985E-003     0.0000000000000000     
  -5.3999999999999986E-003     0.0000000000000000     
  -5.1000000000000004E-003     0.0000000000000000     
  -4.7999999999999987E-003     0.0000000000000000     
  -4.5000000000000005E-003     0.0000000000000000     
  -4.1999999999999989E-003     0.0000000000000000     
  -3.8999999999999990E-003     0.0000000000000000     
  -3.5999999999999990E-003     0.0000000000000000     
  -3.2999999999999991E-003     0.0000000000000000     
  -2.9999999999999992E-003     0.0000000000000000     
  -2.6999999999999993E-003     0.0000000000000000     
  -2.3999999999999994E-003     0.0000000000000000     
  -2.0999999999999977E-003     0.0000000000000000     
  -1.7999999999999995E-003     0.0000000000000000     
  -1.4999999999999979E-003     0.0000000000000000     
  -1.1999999999999997E-003     0.0000000000000000     
  -8.9999999999999976E-004     0.0000000000000000     
  -5.9999999999999810E-004     0.0000000000000000     
  -2.9999999999999992E-004     0.0000000000000000     
   0.0000000000000000          0.0000000000000000     
   3.0000000000000165E-004     0.0000000000000000     
   5.9999999999999984E-004     0.0000000000000000     
   9.0000000000000149E-004     0.0000000000000000     
   1.2000000000000031E-003     0.0000000000000000     
   1.5000000000000013E-003     0.0000000000000000     
   1.8000000000000030E-003     0.0000000000000000     
   2.1000000000000012E-003     0.0000000000000000     
   2.3999999999999994E-003     0.0000000000000000     
   2.7000000000000010E-003     0.0000000000000000     
   2.9999999999999992E-003     0.0000000000000000     
   3.3000000000000008E-003     0.0000000000000000     
   3.6000000000000025E-003     0.0000000000000000     
   3.9000000000000007E-003     0.0000000000000000     
   4.2000000000000023E-003     0.0000000000000000     
   4.5000000000000005E-003     0.0000000000000000     
   4.7999999999999987E-003     1.5869648528245100E-043
   5.1000000000000004E-003    -1.5899693321857466E-042
   5.4000000000000020E-003     5.7710852979038076E-041
   5.7000000000000037E-003    -6.7237988794572625E-040
   5.9999999999999984E-003    -4.2145305166250384E-037
   6.3000000000000000E-003     1.0547315159898558E-036
   6.6000000000000017E-003     1.2524359665812505E-034
   6.9000000000000034E-003    -2.0556677968462744E-034
   7.2000000000000015E-003    -1.0811075402102130E-032
   7.5000000000000032E-003     7.6611684368196113E-032
   7.8000000000000014E-003     3.9817997315601784E-032
   8.0999999999999996E-003    -3.0158302753279497E-030
   8.4000000000000012E-003     1.4626431739480010E-029
   8.7000000000000029E-003     8.5853311564958415E-030
   9.0000000000000011E-003    -4.1237966267027324E-028
   9.2999999999999992E-003     1.9627721097921368E-027
   9.6000000000000009E-003    -2.0576494843516848E-027
   9.8999999999999991E-003    -2.3492244694091858E-026
   1.0200000000000001E-002     1.4901034438397315E-025
   1.0500000000000002E-002    -4.1501089605284124E-025
   1.0800000000000004E-002     2.3543890596445058E-025
   1.1099999999999999E-002     3.0924627661343626E-024
   1.1400000000000000E-002    -1.5426236114011491E-023
   1.1700000000000002E-002     4.0658106858968565E-023
   1.2000000000000004E-002    -6.4377688570708570E-023
   1.2300000000000002E-002     6.0670556024014031E-023
   1.2600000000000000E-002    -2.2176140647665881E-022
   1.2900000000000002E-002     2.0852214996352774E-021
   1.3200000000000000E-002    -1.2385359946975765E-020
   1.3500000000000002E-002     5.3972161930666591E-020
   1.3800000000000003E-002    -1.9295089134669456E-019
   1.4100000000000001E-002     5.9800835508276867E-019
   1.4400000000000000E-002    -1.6504950347208414E-018
   1.4700000000000001E-002     4.1154807252217626E-018
   1.4999999999999999E-002    -9.5468033198998996E-018
   1.5300000000000001E-002     2.3451613605202803E-017
   1.5600000000000003E-002    -8.2480013689608392E-017
   1.5899999999999997E-002     4.4058854388833671E-016
   1.6199999999999999E-002    -2.6104839585532668E-015
   1.6500000000000001E-002     1.4191689877361345E-014
   1.6800000000000002E-002    -6.6977364482785982E-014
   1.7100000000000004E-002     2.6686417575433906E-013
   1.7400000000000006E-002    -8.5693061802245378E-013
   1.7700000000000000E-002     1.9571139079452646E-012
   1.8000000000000002E-002    -1.5195372634542920E-012
   1.8300000000000004E-002    -1.1378108535719522E-011
   1.8600000000000005E-002     6.4217085805694987E-011
   1.8900000000000000E-002    -1.6679369663319654E-010
   1.9200000000000002E-002     1.2573236522505256E-010
   1.9500000000000003E-002     7.3091348940452276E-010
   1.9799999999999998E-002    -2.8329076662880705E-009
   2.0100000000000000E-002     2.7324233522639803E-009
   2.0400000000000001E-002     9.0573958914790091E-009
   2.0700000000000003E-002    -2.8359734983422396E-008
   2.0999999999999998E-002    -3.6099843375510605E-010
   2.1299999999999999E-002     1.1191834363681195E-007
   2.1600000000000001E-002    -7.9728046044759913E-008
   2.1900000000000003E-002    -3.5003007097961092E-007
   2.2200000000000004E-002     2.5563484325010279E-007
   2.2500000000000006E-002     1.0599064685517674E-006
   2.2800000000000001E-002    -2.1950436813890042E-007
   2.3100000000000002E-002    -3.1638958640722957E-006
   2.3400000000000004E-002    -2.0999193545398824E-006
   2.3699999999999999E-002     1.0031886509911103E-005
   2.4000000000000000E-002     3.5202680949261733E-005
   2.4300000000000002E-002     7.0102724180678492E-005
   2.4599999999999997E-002     1.1338845271933716E-004
   2.4900000000000005E-002     1.7188491534814913E-004
   2.5200000000000000E-002     2.6157009625520479E-004
   2.5499999999999995E-002     4.0551375177759930E-004
   2.5800000000000003E-002     6.3159733591144104E-004
   2.6099999999999998E-002     9.7409361448807098E-004
   2.6400000000000007E-002     1.4798455713553871E-003
   2.6700000000000002E-002     2.2147803532824896E-003
   2.6999999999999996E-002     3.2688779405778343E-003
   2.7300000000000005E-002     4.7607209530146216E-003
   2.7600000000000000E-002     6.8415864521842555E-003
   2.7900000000000008E-002     9.6981893210681420E-003
   2.8200000000000003E-002     1.3553088548801788E-002
   2.8499999999999998E-002     1.8663340872225993E-002
   2.8800000000000006E-002     2.5316513586769760E-002
   2.9100000000000001E-002     3.3817662101532087E-002
   2.9400000000000003E-002     4.4465089895881063E-002
   2.9700000000000004E-002     5.7518402065644944E-002
   3.0000000000000006E-002     7.3156646133757663E-002
   3.0300000000000001E-002     9.1422722696019587E-002
   3.0600000000000002E-002    0.11215784527205855     
   3.0900000000000004E-002    0.13492588000797015     
   3.1199999999999999E-002    0.15894054891163148     
   3.1500000000000007E-002    0.18299813223730119     
   3.1800000000000002E-002    0.20542953337197684     
   3.2099999999999997E-002    0.22408470379478468     
   3.2400000000000005E-002    0.23634409256456312     
   3.2700000000000000E-002    0.23920921068637208     
   3.3000000000000002E-002    0.22943262204153714     
   3.3300000000000003E-002    0.20373672695898454     
   3.3599999999999998E-002    0.15908375875643477     
   3.3900000000000000E-002     9.3014998570549082E-002
   3.4200000000000001E-002     4.0093818800633688E-003
   3.4500000000000003E-002   -0.10815480354808241     
   3.4799999999999998E-002   -0.24202977146955112     
   3.5099999999999999E-002   -0.39430067939093572     
   3.5400000000000001E-002   -0.55961427793121243     
   3.5699999999999996E-002   -0.73062613644870078     
   3.6000000000000004E-002   -0.89823524002014699     
   3.6299999999999999E-002    -1.0519730007969263     
   3.6600000000000008E-002    -1.1806469316222934     
   3.6900000000000002E-002    -1.2731019998412152     
   3.7199999999999997E-002    -1.3190732792310056     
   3.7500000000000006E-002    -1.3101357489155290     
   3.7800000000000000E-002    -1.2405082015612154     
   3.8100000000000009E-002    -1.1077708881591253     
   3.8400000000000004E-002   -0.91335594043785839     
   3.8699999999999998E-002   -0.66269784887000172     
   3.9000000000000007E-002   -0.36512181391145443     
   3.9300000000000002E-002    -3.3406005746060070E-002
   3.9600000000000003E-002    0.31710502534064422     
   3.9900000000000005E-002    0.66939430549317713     
   4.0200000000000000E-002     1.0059556928389579     
   4.0500000000000001E-002     1.3101299152118204     
   4.0800000000000003E-002     1.5670610237787588     
   4.1100000000000005E-002     1.7648611695460157     
   4.1399999999999999E-002     1.8952656106803887     
   4.1700000000000008E-002     1.9540799937627291     
   4.2000000000000003E-002     1.9412865029484583     
   4.2299999999999997E-002     1.8608024169476240     
   4.2600000000000006E-002     1.7199899752284518     
   4.2900000000000001E-002     1.5289126766999639     
   4.3200000000000002E-002     1.2994869011106376     
   4.3500000000000004E-002     1.0445211537183745     
   4.3799999999999999E-002    0.77683665050776662     
   4.4100000000000000E-002    0.50846921923721800     
   4.4400000000000002E-002    0.24994411653758741     
   4.4700000000000004E-002     1.0025828457723093E-002
   4.4999999999999998E-002   -0.20475930106492535     
   4.5300000000000000E-002   -0.39006445602913825     
   4.5600000000000002E-002   -0.54354162292798047     
   4.5899999999999996E-002   -0.66483468984210359     
   4.6200000000000005E-002   -0.75496786677524752     
   4.6500000000000000E-002   -0.81613416066774369     
   4.6799999999999994E-002   -0.85130842865400902     
   4.7100000000000003E-002   -0.86376699353365394     
   4.7399999999999998E-002   -0.85693210988526158     
   4.7700000000000006E-002   -0.83405279027537260     
   4.8000000000000001E-002   -0.79803862897747679     
   4.8300000000000010E-002   -0.75148009030557894     
   4.8600000000000004E-002   -0.69648866026861000     
   4.8899999999999999E-002   -0.63485235585149946     
   4.9200000000000008E-002   -0.56809086660328934     
   4.9500000000000002E-002   -0.49749972995946901     
   4.9800000000000011E-002   -0.42441844886980129     
   5.0100000000000006E-002   -0.35022824583456980     
   5.0400000000000000E-002   -0.27646141181501988     
   5.0700000000000009E-002   -0.20498992233123850     
   5.1000000000000004E-002   -0.13802987295893721     
   5.1299999999999998E-002    -7.8128548513673360E-002
   5.1600000000000007E-002    -2.8176210977554079E-002
   5.1900000000000002E-002     8.7489563722083948E-003
   5.2200000000000010E-002     2.9542477870309579E-002
   5.2500000000000005E-002     3.1213071329381677E-002
   5.2800000000000000E-002     1.1295024838191661E-002
   5.3099999999999994E-002    -3.1971987221996991E-002
   5.3400000000000003E-002    -9.9267268912825904E-002
   5.3699999999999998E-002   -0.18967964004672949     
   5.4000000000000006E-002   -0.30072691294966281     
   5.4300000000000001E-002   -0.42790968254739875     
   5.4599999999999996E-002   -0.56464241442022989     
   5.4900000000000004E-002   -0.70262843481146398     
   5.5199999999999999E-002   -0.83174534369861897     
   5.5499999999999994E-002   -0.94077427029295979     
   5.5800000000000002E-002    -1.0180944305372308     
   5.6099999999999997E-002    -1.0522155006332872     
   5.6400000000000006E-002    -1.0330837100804453     
   5.6700000000000000E-002   -0.95280748192745190     
   5.6999999999999995E-002   -0.80647108331176343     
   5.7300000000000004E-002   -0.59326705351534481     
   5.7599999999999998E-002   -0.31656202872665229     
   5.7900000000000007E-002     1.5682761988800056E-002
   5.8200000000000002E-002    0.39089455739591861     
   5.8499999999999996E-002    0.79290619530882134     
   5.8800000000000005E-002     1.2023703251620730     
   5.9100000000000000E-002     1.5980158104154927     
   5.9400000000000008E-002     1.9583894235200217     
   5.9700000000000003E-002     2.2628866478450482     
   6.0000000000000012E-002     2.4934761674393040     
   6.0300000000000006E-002     2.6360944695838140     
   6.0600000000000001E-002     2.6811590571379691     
   6.0900000000000010E-002     2.6246945561690755     
   6.1200000000000004E-002     2.4684507214421609     
   6.1500000000000013E-002     2.2194141099134010     
   6.1800000000000008E-002     1.8896857960943754     
   6.2100000000000002E-002     1.4953204963000264     
   6.2399999999999997E-002     1.0549744534923464     
   6.2700000000000006E-002    0.58898495059442502     
   6.3000000000000000E-002    0.11785177467251118     
   6.3300000000000009E-002   -0.33915709607248545     
   6.3600000000000004E-002   -0.76459957253518906     
   6.3899999999999998E-002    -1.1439541937953521     
   6.4199999999999993E-002    -1.4661943141853633     
   6.4500000000000002E-002    -1.7236719044950837     
   6.4800000000000010E-002    -1.9123283368647419     
   6.5100000000000005E-002    -2.0314883898535410     
   6.5400000000000000E-002    -2.0831011657503073     
   6.5700000000000008E-002    -2.0715684023632752     
   6.5999999999999989E-002    -2.0032253463582577     
   6.6299999999999998E-002    -1.8854736277797497     
   6.6600000000000006E-002    -1.7268629878403408     
   6.6900000000000001E-002    -1.5365552366566906     
   6.7199999999999996E-002    -1.3239371009386915     
   6.7500000000000004E-002    -1.0990185873395246     
   6.7800000000000013E-002   -0.87186847572224146     
   6.8099999999999994E-002   -0.65260091817779253     
   6.8400000000000002E-002   -0.45148161362354544     
   6.8700000000000011E-002   -0.27804130452030362     
   6.8999999999999992E-002   -0.14096368020843539     
   6.9300000000000000E-002    -4.7490917723806876E-002
   6.9600000000000009E-002    -2.2476669602970569E-003
   6.9900000000000004E-002    -6.8789577645624288E-003
   7.0199999999999999E-002    -5.9145188762701355E-002
   7.0500000000000007E-002   -0.15214760915757675     
   7.0800000000000016E-002   -0.27454934914914408     
   7.1099999999999997E-002   -0.41047349909056685     
   7.1400000000000005E-002   -0.54034245519039437     
   7.1700000000000000E-002   -0.64223279130766753     
   7.1999999999999995E-002   -0.69357611425067012     
   7.2300000000000003E-002   -0.67337364206806161     
   7.2600000000000012E-002   -0.56444159913252401     
   7.2900000000000006E-002   -0.35579908636376212     
   7.3200000000000001E-002    -4.4401837338730932E-002
   7.3499999999999996E-002    0.36345635158078737     
   7.3800000000000004E-002    0.85158157707525606     
   7.4099999999999999E-002     1.3946388693055485     
   7.4400000000000008E-002     1.9591302363192482     
   7.4700000000000003E-002     2.5060578940537255     
   7.5000000000000011E-002     2.9941000019423147     
   7.5299999999999992E-002     3.3826287271958444     
   7.5600000000000001E-002     3.6358142947165115     
   7.5900000000000009E-002     3.7258381646501162     
   7.6200000000000004E-002     3.6351925905524514     
   7.6499999999999999E-002     3.3592037894460942     
   7.6800000000000007E-002     2.9062390126527076     
   7.7099999999999988E-002     2.2971608193577517     
   7.7399999999999997E-002     1.5643780642396152     
   7.7700000000000005E-002    0.74852287318957034     
   7.8000000000000014E-002   -0.10441622738088810     
   7.8299999999999995E-002   -0.94652350342736380     
   7.8600000000000003E-002    -1.7321798212688275     
   7.8900000000000012E-002    -2.4209351588264005     
   7.9199999999999993E-002    -2.9803716393036002     
   7.9500000000000001E-002    -3.3882557615376303     
   7.9800000000000010E-002    -3.6330847053751487     
   8.0100000000000018E-002    -3.7142768003726099     
   8.0399999999999999E-002    -3.6414168768546249     
   8.0700000000000008E-002    -3.4321433593136108     
   8.1000000000000003E-002    -3.1101122191341029     
   8.1299999999999997E-002    -2.7027590668136949     
   8.1600000000000006E-002    -2.2384076197105598     
   8.1900000000000014E-002    -1.7441763441068767     
   8.2199999999999995E-002    -1.2441929265149891     
   8.2500000000000004E-002   -0.75799086796145176     
   8.2799999999999999E-002   -0.30004184819209667     
   8.3100000000000007E-002    0.12033321329325171     
   8.3400000000000002E-002    0.49901434970063363     
   8.3700000000000011E-002    0.83566041190790685     
   8.4000000000000005E-002     1.1328038967146234     
   8.4300000000000000E-002     1.3949549669619108     
   8.4599999999999995E-002     1.6266918807907802     
   8.4900000000000003E-002     1.8318874384878958     
   8.5199999999999998E-002     2.0129659568758163     
   8.5500000000000007E-002     2.1698521257602579     
   8.5800000000000001E-002     2.3001569315639672     
   8.6100000000000010E-002     2.3990822974827086     
   8.6399999999999991E-002     2.4598109933331473     
   8.6699999999999999E-002     2.4745192150017581     
   8.7000000000000008E-002     2.4350822410247317     
   8.7300000000000003E-002     2.3340462781822895     
   8.7599999999999997E-002     2.1659404915775200     
   8.7900000000000006E-002     1.9280511886302216     
   8.8200000000000014E-002     1.6210372903491521     
   8.8499999999999995E-002     1.2498776887314478     
   8.8800000000000004E-002    0.82359531266378816     
   8.9100000000000013E-002    0.35496980410521073     
   8.9399999999999993E-002   -0.13950531654268228     
   8.9700000000000002E-002   -0.64138471837827182     
   9.0000000000000011E-002    -1.1309379447795140     
   9.0299999999999991E-002    -1.5881834781960196     
   9.0600000000000000E-002    -1.9950882114065793     
   9.0900000000000009E-002    -2.3359306592315607     
   9.1200000000000017E-002    -2.5984072153843387     
   9.1499999999999998E-002    -2.7750252609542474     
   9.1800000000000007E-002    -2.8622097878274602     
   9.2100000000000001E-002    -2.8609103787759045     
   9.2399999999999996E-002    -2.7761239982940413     
   9.2700000000000005E-002    -2.6153219086069246     
   9.3000000000000013E-002    -2.3885723964264942     
   9.3300000000000008E-002    -2.1067602908299281     
   9.3600000000000003E-002    -1.7806476839747649     
   9.3899999999999997E-002    -1.4209373047904403     
   9.4200000000000006E-002    -1.0369154386862165     
   9.4500000000000001E-002   -0.63690329064462370     
   9.4800000000000009E-002   -0.22852353767092243     
   9.5100000000000004E-002    0.18126437364087875     
   9.5399999999999999E-002    0.58500553121873489     
   9.5699999999999993E-002    0.97453915488026999     
   9.6000000000000002E-002     1.3404062003322199     
   9.6300000000000011E-002     1.6713083994889832     
   9.6600000000000005E-002     1.9547503805690525     
   9.6900000000000000E-002     2.1769168834417014     
   9.7200000000000009E-002     2.3240900422339701     
   9.7499999999999989E-002     2.3837203895168204     
   9.7799999999999998E-002     2.3456306259214030     
   9.8100000000000007E-002     2.2040556013421613     
   9.8400000000000015E-002     1.9584351022277922     
   9.8699999999999996E-002     1.6147899815779703     
   9.9000000000000005E-002     1.1862444498309184     
   9.9300000000000013E-002    0.69265246336555908     
   9.9599999999999994E-002    0.16023910890385129     
   9.9900000000000003E-002   -0.38022578947528257     
  0.10020000000000001        -0.89534038464867050     
  0.10049999999999999         -1.3514199559677098     
  0.10080000000000000         -1.7173942498724506     
  0.10110000000000001         -1.9672665799991860     
  0.10140000000000000         -2.0826826952682951     
  0.10170000000000000         -2.0545949889279167     
  0.10200000000000001         -1.8843507343679464     
  0.10230000000000002         -1.5839501961396807     
  0.10260000000000000         -1.1753474480441850     
  0.10290000000000001        -0.68912904087981797     
  0.10320000000000000        -0.16190835394272754     
  0.10350000000000001         0.36608598158569589     
  0.10380000000000000         0.85415203328802924     
  0.10410000000000001          1.2644486784738311     
  0.10440000000000001          1.5642184021368111     
  0.10470000000000000          1.7288508763546977     
  0.10500000000000000          1.7435977336818413     
  0.10530000000000000          1.6042841281862081     
  0.10560000000000000          1.3184401499560501     
  0.10590000000000001         0.90415043028833963     
  0.10620000000000000         0.38926180017097184     
  0.10650000000000001        -0.18990191180058805     
  0.10679999999999999        -0.79166402183530082     
  0.10710000000000000         -1.3710777874082705     
  0.10740000000000001         -1.8829309243431762     
  0.10770000000000000         -2.2850119132251860     
  0.10800000000000000         -2.5407686313151254     
  0.10830000000000001         -2.6224264282066025     
  0.10859999999999999         -2.5130212795653462     
  0.10890000000000000         -2.2081610623130188     
  0.10920000000000001         -1.7170599486534290     
  0.10950000000000001         -1.0625597353080798     
  0.10979999999999999        -0.28009166959757709     
  0.11009999999999999         0.58435228266331274     
  0.11040000000000001          1.4765128804298240     
  0.11070000000000001          2.3379091348152645     
  0.11100000000000000          3.1099505514177266     
  0.11130000000000000          3.7374446595211657     
  0.11160000000000002          4.1739240929101564     
  0.11190000000000001          4.3844426332827000     
  0.11220000000000001          4.3484113379899494     
  0.11250000000000000          4.0626407953467689     
  0.11280000000000000          3.5403813933317734     
  0.11309999999999999          2.8117624788602864     
  0.11340000000000001          1.9220180134003604     
  0.11369999999999998         0.92720221992278606     
  0.11400000000000000        -0.10819474409103141     
  0.11430000000000000         -1.1169056228632863     
  0.11460000000000002         -2.0337879473488489     
  0.11489999999999999         -2.7996148003887029     
  0.11520000000000001         -3.3665149166778510     
  0.11550000000000001         -3.7007739708510741     
  0.11580000000000000         -3.7851228151773135     
  0.11609999999999999         -3.6205127360951970     
  0.11640000000000002         -3.2251325906813002     
  0.11670000000000001         -2.6332744548404721     
  0.11700000000000001         -1.8926814616503100     
  0.11730000000000000         -1.0603593884164786     
  0.11760000000000000        -0.19843520037854501     
  0.11789999999999999         0.63064882216755591     
  0.11820000000000001          1.3688871797083833     
  0.11850000000000001          1.9671236705852984     
  0.11880000000000000          2.3883562135021688     
  0.11910000000000000          2.6101469098650645     
  0.11940000000000002          2.6262214864192694     
  0.11970000000000001          2.4458664710139999     
  0.12000000000000001          2.0929935320228559     
  0.12030000000000000          1.6034726360606792     
  0.12060000000000000          1.0214052912113429     
  0.12089999999999999         0.39576074344635703     
  0.12119999999999999        -0.22440652669573602     
  0.12150000000000001        -0.79361163216674668     
  0.12180000000000001         -1.2734129076148797     
  0.12210000000000000         -1.6357861410585284     
  0.12239999999999999         -1.8641231710288073     
  0.12270000000000002         -1.9542812696361027     
  0.12300000000000001         -1.9142166106108318     
  0.12330000000000001         -1.7619391118676235     
  0.12360000000000000         -1.5236883385688389     
  0.12390000000000000         -1.2305866468839286     
  0.12419999999999999        -0.91560783902691290     
  0.12450000000000001        -0.61021445341763014     
  0.12480000000000001        -0.34116391721817596     
  0.12509999999999999        -0.12871319669771256     
  0.12540000000000001          1.5555819640988438E-002
  0.12570000000000003          8.8895803939830487E-002
  0.12600000000000000          9.7133864026640065E-002
  0.12630000000000002          5.3738660440937475E-002
  0.12659999999999999         -2.2933391371062942E-002
  0.12690000000000001        -0.11143383687549593     
  0.12719999999999998        -0.19030315069195172     
  0.12750000000000000        -0.24114663320000571     
  0.12780000000000002        -0.25016155478209068     
  0.12809999999999999        -0.21052399518324888     
  0.12840000000000001        -0.12288848656400220     
  0.12869999999999998          4.9069949367182147E-003
  0.12900000000000000         0.15827671084190190     
  0.12930000000000003         0.31848135919349951     
  0.12959999999999999         0.46467437927790128     
  0.12990000000000002         0.57636033556969268     
  0.13019999999999998         0.63634618924794484     
  0.13050000000000000         0.63258846221548126     
  0.13080000000000003         0.55991434323957723     
  0.13109999999999999         0.42053562138452294     
  0.13140000000000002         0.22368214611770226     
  0.13169999999999998         -1.5452773575953940E-002
  0.13200000000000001        -0.27766113544336235     
  0.13229999999999997        -0.54197009181706157     
  0.13260000000000000        -0.78835732588768992     
  0.13290000000000002        -0.99956580321525057     
  0.13319999999999999         -1.1630595107669373     
  0.13350000000000001         -1.2725031529073441     
  0.13380000000000003         -1.3271417818308502     
  0.13410000000000000         -1.3319488204259775     
  0.13440000000000002         -1.2963181130639412     
  0.13469999999999999         -1.2316219312747059     
  0.13500000000000001         -1.1505840981953508     
  0.13529999999999998         -1.0645970691055526     
  0.13560000000000000        -0.98244184176212013     
  0.13590000000000002        -0.90983888303943372     
  0.13619999999999999        -0.84797951713737096     
  0.13650000000000001        -0.79465487268507407     
  0.13680000000000003        -0.74460630828359120     
  0.13710000000000000        -0.68996390764448423     
  0.13740000000000002        -0.62212298526294529     
  0.13769999999999999        -0.53212330489406889     
  0.13800000000000001        -0.41122500506218601     
  0.13829999999999998        -0.25195440441867917     
  0.13860000000000000         -4.8057201543835651E-002
  0.13890000000000002         0.20581779517253837     
  0.13919999999999999         0.51386752003739000     
  0.13950000000000001         0.87928267151675932     
  0.13979999999999998          1.3046231121368468     
  0.14010000000000000          1.7906842782747370     
  0.14040000000000002          2.3361078903501187     
  0.14069999999999999          2.9370070492495266     
  0.14100000000000001          3.5846311829875512     
  0.14130000000000004          4.2653987445651875     
  0.14160000000000000          4.9600543355249664     
  0.14189999999999997          5.6424934215794389     
  0.14219999999999999          6.2817171250349144     
  0.14250000000000002          6.8416858937237022     
  0.14279999999999998          7.2836300229300424     
  0.14310000000000000          7.5696147034353540     
  0.14339999999999997          7.6638333358265314     
  0.14369999999999999          7.5367968772985936     
  0.14400000000000002          7.1677297155034996     
  0.14429999999999998          6.5464693432176642     
  0.14460000000000001          5.6757907963048702     
  0.14490000000000003          4.5707685984142890     
  0.14520000000000000          3.2584626819846645     
  0.14550000000000002          1.7770151435896118     
  0.14579999999999999         0.17190743753740817     
  0.14610000000000001         -1.5054255354618613     
  0.14640000000000003         -3.2014208915672349     
  0.14670000000000000         -4.8634381930589798     
  0.14699999999999996         -6.4413782720614599     
  0.14729999999999999         -7.8908311371745175     
  0.14760000000000001         -9.1738805882495438     
  0.14789999999999998         -10.259549032690852     
  0.14820000000000000         -11.124676650419552     