  -1.4999999999999999E-002     0.0000000000000000     
  -1.4700000000000000E-002    -9.3291631820583906E-025
  -1.4400000000000000E-002    -3.1943808170903296E-020
  -1.4100000000000000E-002    -8.8705778183120904E-018
  -1.3800000000000000E-002    -4.8361316101950205E-016
  -1.3500000000000000E-002    -4.5986496866274523E-015
  -1.3200000000000000E-002     4.6823016391006338E-014
  -1.2899999999999998E-002     3.1887953248596413E-013
  -1.2600000000000000E-002    -1.0023048931439162E-012
  -1.2299999999999998E-002    -4.7947992383586188E-012
  -1.2000000000000000E-002     4.1973141378050584E-012
  -1.1699999999999999E-002     3.4702995709599988E-011
  -1.1399999999999999E-002     4.1981738940463684E-011
  -1.1099999999999999E-002    -1.6907963445973727E-010
  -1.0799999999999999E-002    -4.8798255351528743E-010
  -1.0499999999999999E-002     6.3046744239999079E-010
  -1.0199999999999999E-002     1.9925005761813397E-009
  -9.8999999999999991E-003    -1.6900311154135089E-009
  -9.5999999999999992E-003    -2.9373603726965187E-009
  -9.2999999999999992E-003     1.4959081814213534E-009
  -8.9999999999999993E-003    -3.2177268828455282E-009
  -8.6999999999999994E-003     5.3011370860863263E-009
  -8.3999999999999995E-003     1.6676247380100333E-008
  -8.0999999999999996E-003    -1.4321283188346128E-008
  -7.7999999999999988E-003    -1.6956360215103245E-008
  -7.4999999999999997E-003     1.2331801520784776E-008
  -7.1999999999999998E-003    -1.8316650141046512E-008
  -6.8999999999999981E-003    -3.3581750650228709E-008
  -6.5999999999999982E-003     7.1365149939664711E-008
  -6.3000000000000000E-003     1.3079759131816098E-007
  -6.0000000000000001E-003    -6.0138762160914982E-008
  -5.6999999999999985E-003    -1.7683303533675047E-007
  -5.3999999999999986E-003    -4.9892840364917554E-008
  -5.1000000000000004E-003    -1.0306857750290658E-007
  -4.7999999999999987E-003    -6.3098149716276086E-008
  -4.5000000000000005E-003     6.5738278451392619E-007
  -4.1999999999999989E-003     1.1071427362152291E-006
  -3.8999999999999990E-003    -9.0438772395023397E-007
  -3.5999999999999990E-003    -3.9210169170710852E-006
  -3.2999999999999991E-003    -4.9270160079345085E-007
  -2.9999999999999992E-003     9.4590350714835561E-006
  -2.6999999999999993E-003     7.2710517651315823E-006
  -2.3999999999999994E-003    -1.8809307737636096E-005
  -2.0999999999999977E-003    -3.3572790735926800E-005
  -1.7999999999999995E-003     2.7155271845210273E-005
  -1.4999999999999979E-003     1.9063690918725765E-004
  -1.1999999999999997E-003     4.2470529428926943E-004
  -8.9999999999999976E-004     6.7981862259931846E-004
  -5.9999999999999810E-004     9.7631035556084041E-004
  -2.9999999999999992E-004     1.4654281731737967E-003
   0.0000000000000000          2.3351335136492755E-003
   3.0000000000000165E-004     3.6781393146903341E-003
   5.9999999999999984E-004     5.5847126326491053E-003
   9.0000000000000149E-004     8.3499029809305427E-003
   1.2000000000000031E-003     1.2467296883761426E-002
   1.5000000000000013E-003     1.8484022606870119E-002
   1.8000000000000030E-003     2.7025845111259505E-002
   2.1000000000000012E-003     3.8911603705162036E-002
   2.3999999999999994E-003     5.5134792348841589E-002
   2.7000000000000010E-003     7.6859430171723545E-002
   2.9999999999999992E-003    0.10553101551047377     
   3.3000000000000008E-003    0.14280972027979361     
   3.6000000000000025E-003    0.19028076729179663     
   3.9000000000000007E-003    0.24930128729531500     
   4.2000000000000023E-003    0.32095271720051655     
   4.5000000000000005E-003    0.40576309458499549     
   4.7999999999999987E-003    0.50324726746969084     
   5.1000000000000004E-003    0.61152858363034923     
   5.4000000000000020E-003    0.72696853712329890     
   5.7000000000000037E-003    0.84362233945811238     
   5.9999999999999984E-003    0.95282323679272130     
   6.3000000000000000E-003     1.0430404124375163     
   6.6000000000000017E-003     1.0998288593464824     
   6.9000000000000034E-003     1.1059652787183394     
   7.2000000000000015E-003     1.0422109598341207     
   7.5000000000000032E-003    0.88850077350220935     
   7.8000000000000014E-003    0.62528117715064335     
   8.0999999999999996E-003    0.23540562765875930     
   8.4000000000000012E-003   -0.29334406763875975     
   8.7000000000000029E-003   -0.96588033022441366     
   9.0000000000000011E-003    -1.7775570229817288     
   9.2999999999999992E-003    -2.7118435130153618     
   9.6000000000000009E-003    -3.7387898371024746     
   9.8999999999999991E-003    -4.8149362217533707     
   1.0200000000000001E-002    -5.8839865560578994     
   1.0500000000000002E-002    -6.8782406913436409     
   1.0800000000000004E-002    -7.7220908496540028     
   1.1099999999999999E-002    -8.3373309670899989     
   1.1400000000000000E-002    -8.6486503348230279     
   1.1700000000000002E-002    -8.5894262170474107     
   1.2000000000000004E-002    -8.1083251847006270     
   1.2300000000000002E-002    -7.1751586758897963     
   1.2600000000000000E-002    -5.7849957165434613     
   1.2900000000000002E-002    -3.9606367517350916     
   1.3200000000000000E-002    -1.7535606443284153     
   1.3500000000000002E-002    0.75798326965649321     
   1.3800000000000003E-002     3.4733805603334869     
   1.4100000000000001E-002     6.2759771873210157     
   1.4400000000000000E-002     9.0403491207715838     
   1.4700000000000001E-002     11.640490708405629     
   1.4999999999999999E-002     13.958198784205532     
   1.5300000000000001E-002     15.890404993567248     
   1.5600000000000003E-002     17.355059010328436     
   1.5899999999999997E-002     18.294733425855949     
   1.6199999999999999E-002     18.678320335757487     
   1.6500000000000001E-002     18.501228750461298     
   1.6800000000000002E-002     17.782356679359417     
   1.7100000000000004E-002     16.559711858400306     
   1.7400000000000006E-002     14.886508361014569     
   1.7700000000000000E-002     12.826764437391798     
   1.8000000000000002E-002     10.450126923999868     
   1.8300000000000004E-002     7.8278419695878769     
   1.8600000000000005E-002     5.0314160763201183     
   1.8900000000000000E-002     2.1311789125285019     
   1.9200000000000002E-002   -0.80565812969000949     
   1.9500000000000003E-002    -3.7137221036785988     
   1.9799999999999998E-002    -6.5280205787568732     
   2.0100000000000000E-002    -9.1846983808212368     
   2.0400000000000001E-002    -11.622605671359953     
   2.0700000000000003E-002    -13.783314160219938     
   2.0999999999999998E-002    -15.613428573895030     
   2.1299999999999999E-002    -17.069515721277259     
   2.1600000000000001E-002    -18.122570550572235     
   2.1900000000000003E-002    -18.760820905655901     
   2.2200000000000004E-002    -18.993698625904099     
   2.2500000000000006E-002    -18.855124000394927     
   2.2800000000000001E-002    -18.402916397113042     
   2.3100000000000002E-002    -17.715229428243131     
   2.3400000000000004E-002    -16.885273316263206     
   2.3699999999999999E-002    -16.012619291313417     
   2.4000000000000000E-002    -15.191375936899162     
   2.4300000000000002E-002    -14.497540607371397     
   2.4599999999999997E-002    -13.976719917378441     
   2.4900000000000005E-002    -13.633597362738881     
   2.5200000000000000E-002    -13.424293435630888     
   2.5499999999999995E-002    -13.253424493191778     
   2.5800000000000003E-002    -12.978376172232764     
   2.6099999999999998E-002    -12.419742308396412     
   2.6400000000000007E-002    -11.377959877290150     
   2.6700000000000002E-002    -9.6546445962724512     
   2.6999999999999996E-002    -7.0775838670871227     
   2.7300000000000005E-002    -3.5275126124798706     
   2.7600000000000000E-002     1.0394298397070223     
   2.7900000000000008E-002     6.5745338575096133     
   2.8200000000000003E-002     12.926157356925389     
   2.8499999999999998E-002     19.839565584861290     
   2.8800000000000006E-002     26.968561415836426     
   2.9100000000000001E-002     33.897930315264873     
   2.9400000000000003E-002     40.172336671092182     
   2.9700000000000004E-002     45.332859056497483     
   3.0000000000000006E-002     48.958061167350969     
   3.0300000000000001E-002     50.702312363028717     
   3.0600000000000002E-002     50.327743385015729     
   3.0900000000000004E-002     47.728820636220192     
   3.1199999999999999E-002     42.946872547779549     
   3.1500000000000007E-002     36.170932627066179     
   3.1800000000000002E-002     27.725730790822428     
   3.2099999999999997E-002     18.048910085979823     
   3.2400000000000005E-002     7.6578016306004111     
   3.2700000000000000E-002    -2.8880035263313264     
   3.3000000000000002E-002    -13.027891043353987     
   3.3300000000000003E-002    -22.241866905383599     
   3.3599999999999998E-002    -30.085614967899190     
   3.3900000000000000E-002    -36.215682780308569     
   3.4200000000000001E-002    -40.410812180522598     
   3.4500000000000003E-002    -42.581439798329328     
   3.4799999999999998E-002    -42.765186176175128     
   3.5099999999999999E-002    -41.114818492232288     
   3.5400000000000001E-002    -37.880722026607202     
   3.5699999999999996E-002    -33.384792373755168     
   3.6000000000000004E-002    -27.990203967265074     
   3.6299999999999999E-002    -22.074005295041594     
   3.6600000000000008E-002    -16.001615740926038     
   3.6900000000000002E-002    -10.100896134249869     
   3.7199999999999997E-002    -4.6446507336465794     
   3.7500000000000006E-002    0.15832288738543049     
   3.7800000000000000E-002     4.1692554592662177     
   3.8100000000000009E-002     7.3195874529008922     
   3.8400000000000004E-002     9.6022498742905444     
   3.8699999999999998E-002     11.062269022962774     
   3.9000000000000007E-002     11.784854742423342     
   3.9300000000000002E-002     11.880477801630400     
   3.9600000000000003E-002     11.473360953506779     
   3.9900000000000005E-002     10.691423392995164     
   4.0200000000000000E-002     9.6549053300525411     
   4.0500000000000001E-002     8.4701729213836057     
   4.0800000000000003E-002     7.2282333992471237     
   4.1100000000000005E-002     6.0031901189744259     
   4.1399999999999999E-002     4.8499437271538373     
   4.1700000000000008E-002     3.8062232493321870     
   4.2000000000000003E-002     2.8974624649172864     
   4.2299999999999997E-002     2.1366523261158790     
   4.2600000000000006E-002     1.5252550548482453     
   4.2900000000000001E-002     1.0568996305796963     
   4.3200000000000002E-002    0.71898664531086443     
   4.3500000000000004E-002    0.49385372346749168     
   4.3799999999999999E-002    0.36032652417103916     
   4.4100000000000000E-002    0.29547576695880906     
   4.4400000000000002E-002    0.27629465547516602     
   4.4700000000000004E-002    0.28206735734817617     
   4.4999999999999998E-002    0.29552867221561474     
   4.5300000000000000E-002    0.30342202059867956     
   4.5600000000000002E-002    0.29789982515792185     
   4.5899999999999996E-002    0.27671123554428023     
   4.6200000000000005E-002    0.24164734132765381     
   4.6500000000000000E-002    0.19750570516817206     
   4.6799999999999994E-002    0.15097764845294581     
   4.7100000000000003E-002    0.10830657115393950     
   4.7399999999999998E-002     7.3295294124113758E-002
   4.7700000000000006E-002     4.8078315423585608E-002
   4.8000000000000001E-002     3.2123279793740619E-002
   4.8300000000000010E-002     2.1217595524861330E-002
   4.8600000000000004E-002     9.6084757563392031E-003
   4.8899999999999999E-002    -8.2410258786820723E-003
   4.9200000000000008E-002    -3.6797620803229208E-002
   4.9500000000000002E-002    -7.8854577240046783E-002
   4.9800000000000011E-002   -0.13456914056144420     
   5.0100000000000006E-002   -0.20086533110974453     
   5.0400000000000000E-002   -0.27115649304119493     
   5.0700000000000009E-002   -0.33736414073315141     
   5.1000000000000004E-002   -0.39231172597303232     
   5.1299999999999998E-002   -0.42943877413832210     
   5.1600000000000007E-002   -0.44343483924710853     
   5.1900000000000002E-002   -0.43232286499282851     
   5.2200000000000010E-002   -0.39757735092596647     
   5.2500000000000005E-002   -0.34354046547748629     
   5.2800000000000000E-002   -0.27646118932470576     
   5.3099999999999994E-002   -0.20402805962972123     
   5.3400000000000003E-002   -0.13393691520543038     
   5.3699999999999998E-002    -7.2345370443551216E-002
   5.4000000000000006E-002    -2.3997403869394456E-002
   5.4300000000000001E-002     8.3408463652743115E-003
   5.4599999999999996E-002     2.4478877946550244E-002
   5.4900000000000004E-002     2.5166513368723699E-002
   5.5199999999999999E-002     1.2284829434783290E-002
   5.5499999999999994E-002    -1.0988587920511028E-002
   5.5800000000000002E-002    -4.1799107378232649E-002
   5.6099999999999997E-002    -7.7606595813961274E-002
   5.6400000000000006E-002   -0.11597243886764050     
   5.6700000000000000E-002   -0.15517232230244049     
   5.6999999999999995E-002   -0.19301953023130738     
   5.7300000000000004E-002   -0.22742655129061345     
   5.7599999999999998E-002   -0.25558344357107915     
   5.7900000000000007E-002   -0.27478543761770419     
   5.8200000000000002E-002   -0.28276548571350091     
   5.8499999999999996E-002   -0.27716154532468862     
   5.8800000000000005E-002   -0.25699562367952844     
   5.9100000000000000E-002   -0.22321309535807884     
   5.9400000000000008E-002   -0.17822085572008564     
   5.9700000000000003E-002   -0.12646420441544523     
   6.0000000000000012E-002    -7.3090300637520048E-002
   6.0300000000000006E-002    -2.4403561225670219E-002
   6.0600000000000001E-002     1.3163284128795099E-002
   6.0900000000000010E-002     3.4602503828931333E-002
   6.1200000000000004E-002     3.7128373390881132E-002
   6.1500000000000013E-002     2.0881260940917735E-002
   6.1800000000000008E-002    -1.1322436709688971E-002
   6.2100000000000002E-002    -5.4421701249914967E-002
   6.2399999999999997E-002   -0.10163435392281556     
   6.2700000000000006E-002   -0.14493989978112229     
   6.3000000000000000E-002   -0.17660522489749225     
   6.3300000000000009E-002   -0.19182693999999292     
   6.3600000000000004E-002   -0.18779936509246195     
   6.3899999999999998E-002   -0.16408227521235363     
   6.4199999999999993E-002   -0.12369798344973745     
   6.4500000000000002E-002    -7.2879071669134071E-002
   6.4800000000000010E-002    -1.9075118191854992E-002
   6.5100000000000005E-002     3.0976745468318474E-002
   6.5400000000000000E-002     7.0730078013895345E-002
   6.5700000000000008E-002     9.5302942538080831E-002
   6.5999999999999989E-002    0.10387590925419640     
   6.6299999999999998E-002     9.8059659512513997E-002
   6.6600000000000006E-002     8.1246591601863954E-002
   6.6900000000000001E-002     5.9643359326751341E-002
   6.7199999999999996E-002     4.0476951085520609E-002
   6.7500000000000004E-002     2.9643495390940688E-002
   6.7800000000000013E-002     3.1063295770847165E-002
   6.8099999999999994E-002     4.6561574846237262E-002
   6.8400000000000002E-002     7.5409656440063311E-002
   6.8700000000000011E-002    0.11295313874485231     
   6.8999999999999992E-002    0.15234361961419887     
   6.9300000000000000E-002    0.18621814493058220     
   6.9600000000000009E-002    0.20744261260844168     
   6.9900000000000004E-002    0.21022611871446573     
   7.0199999999999999E-002    0.19121469515779724     
   7.0500000000000007E-002    0.15073202505454111     
   7.0800000000000016E-002     9.3421459213054781E-002
   7.1099999999999997E-002     2.6794143881151068E-002
   7.1400000000000005E-002    -3.9685869511857874E-002
   7.1700000000000000E-002    -9.5482696582064472E-002
   7.1999999999999995E-002   -0.13046294077319162     
   7.2300000000000003E-002   -0.13710742795104797     
   7.2600000000000012E-002   -0.11231042845563699     
   7.2900000000000006E-002    -5.7388206630412761E-002
   7.3200000000000001E-002     2.0874297433573843E-002
   7.3499999999999996E-002    0.11149375649463412     
   7.3800000000000004E-002    0.19981459754556688     
   7.4099999999999999E-002    0.26937585276319859     
   7.4400000000000008E-002    0.30459638413145373     
   7.4700000000000003E-002    0.29216103594336695     
   7.5000000000000011E-002    0.22442040172298655     
   7.5299999999999992E-002    0.10048546351069912     
   7.5600000000000001E-002    -7.3001377429059378E-002
   7.5900000000000009E-002   -0.28122574437809472     
   7.6200000000000004E-002   -0.50291824170111266     
   7.6499999999999999E-002   -0.71162604538778040     
   7.6800000000000007E-002   -0.87842665781999552     
   7.7099999999999988E-002   -0.97602478820785898     
   7.7399999999999997E-002   -0.98138526850879093     
   7.7700000000000005E-002   -0.87923703166737366     
   7.8000000000000014E-002   -0.66468576185534156     
   7.8299999999999995E-002   -0.34479294070619659     
   7.8600000000000003E-002     6.0423800567354032E-002
   7.8900000000000012E-002    0.52035022781703366     
   7.9199999999999993E-002    0.99570757361592466     
   7.9500000000000001E-002     1.4419642623843725     
   7.9800000000000010E-002     1.8137734985108553     
   8.0100000000000018E-002     2.0707304265918487     
   8.0399999999999999E-002     2.1810488439840632     
   8.0700000000000008E-002     2.1253335190306011     
   8.1000000000000003E-002     1.8993582442519847     
   8.1299999999999997E-002     1.5151352628742860     
   8.1600000000000006E-002    0.99941913267315008     
   8.1900000000000014E-002    0.39151619568906021     
   8.2199999999999995E-002   -0.26009130962845983     
   8.2500000000000004E-002   -0.90360664982011640     
   8.2799999999999999E-002    -1.4889389166706277     
   8.3100000000000007E-002    -1.9714946575241474     
   8.3400000000000002E-002    -2.3164236332270223     
   8.3700000000000011E-002    -2.5027618175631154     
   8.4000000000000005E-002    -2.5236747035779459     
   8.4300000000000000E-002    -2.3851194177516311     
   8.4599999999999995E-002    -2.1062476473025313     
   8.4900000000000003E-002    -1.7160215269721759     
   8.5199999999999998E-002    -1.2487516354588730     
   8.5500000000000007E-002   -0.74124819151441412     
   8.5800000000000001E-002   -0.23013884483370220     
   8.6100000000000010E-002    0.25143038124213624     
   8.6399999999999991E-002    0.67676852700798362     
   8.6699999999999999E-002     1.0258568361918297     
   8.7000000000000008E-002     1.2852628060732381     
   8.7300000000000003E-002     1.4497811628962767     
   8.7599999999999997E-002     1.5201088039709287     
   8.7900000000000006E-002     1.5019894710811308     
   8.8200000000000014E-002     1.4058679242961343     
   8.8499999999999995E-002     1.2448407343622787     
   8.8800000000000004E-002     1.0342848265625419     
   8.9100000000000013E-002    0.79098695479258008     
   8.9399999999999993E-002    0.53159451737024421     
   8.9700000000000002E-002    0.27168578415110162     
   9.0000000000000011E-002     2.6020157715803141E-002
   9.0299999999999991E-002   -0.19234772667644459     
   9.0600000000000000E-002   -0.37410434155962508     
   9.0900000000000009E-002   -0.51276408690605579     
   9.1200000000000017E-002   -0.60467713190473205     
   9.1499999999999998E-002   -0.65018581576199430     
   9.1800000000000007E-002   -0.65340178589611297     
   9.2100000000000001E-002   -0.62028359932126687     
   9.2399999999999996E-002   -0.55835002420635116     
   9.2700000000000005E-002   -0.47704210822966914     
   9.3000000000000013E-002   -0.38529643522994089     
   9.3300000000000008E-002   -0.29042938586250544     
   9.3600000000000003E-002   -0.19900174760149558     
   9.3899999999999997E-002   -0.11562613761050951     
   9.4200000000000006E-002    -4.2334973750500549E-002
   9.4500000000000001E-002     2.0141275943118282E-002
   9.4800000000000009E-002     7.2090764462554607E-002
   9.5100000000000004E-002    0.11480393038996189     
   9.5399999999999999E-002    0.14962467396710635     
   9.5699999999999993E-002    0.17754910797603315     
   9.6000000000000002E-002    0.19915798277363425     
   9.6300000000000011E-002    0.21470884999948339     
   9.6600000000000005E-002    0.22364704378301051     
   9.6900000000000000E-002    0.22537344805251180     
   9.7200000000000009E-002    0.22013414059785189     
   9.7499999999999989E-002    0.20831686454175630     
   9.7799999999999998E-002    0.19076070427610042     
   9.8100000000000007E-002    0.16927065232962504     
   9.8400000000000015E-002    0.14569679211962075     
   9.8699999999999996E-002    0.12245337251285314     
   9.9000000000000005E-002    0.10162274877264027     
   9.9300000000000013E-002     8.4479588558717400E-002
   9.9599999999999994E-002     7.1830618406078045E-002
   9.9900000000000003E-002     6.3411499166754592E-002
  0.10020000000000001          5.8689842199004132E-002
  0.10049999999999999          5.6315814711620837E-002
  0.10080000000000000          5.4919534377624799E-002
  0.10110000000000001          5.3152341880336330E-002
  0.10140000000000000          5.0046045453618120E-002
  0.10170000000000000          4.5588716727736671E-002
  0.10200000000000001          3.9734244064341430E-002
  0.10230000000000002          3.3013995401676731E-002
  0.10260000000000000          2.6612618617476599E-002
  0.10290000000000001          2.1421519732697316E-002
  0.10320000000000000          1.7834657496372478E-002
  0.10350000000000001          1.5568094957900428E-002
  0.10380000000000000          1.4599883601833612E-002
  0.10410000000000001          1.4392755546996502E-002
  0.10440000000000001          1.3363808016223916E-002
  0.10470000000000000          1.1026979096620647E-002
  0.10500000000000000          7.1205783190413712E-003
  0.10530000000000000          1.3147874712781250E-003
  0.10560000000000000         -6.0056199761962326E-003
  0.10590000000000001         -1.4078772227320043E-002
  0.10620000000000000         -2.1407944462601681E-002
  0.10650000000000001         -2.6825697305502133E-002
  0.10679999999999999         -2.9664532322452614E-002
  0.10710000000000000         -2.9191332909991732E-002
  0.10740000000000001         -2.5532088376005822E-002
  0.10770000000000000         -1.9539581001765276E-002
  0.10800000000000000         -1.2247494067167256E-002
  0.10830000000000001         -5.4686743667575529E-003
  0.10859999999999999         -8.9914779474299796E-005
  0.10890000000000000          2.8688275170308504E-003
  0.10920000000000001          2.0253913663522199E-003
  0.10950000000000001         -2.2065895203128741E-003
  0.10979999999999999         -9.2655651448668372E-003
  0.11009999999999999         -1.8705991033576879E-002
  0.11040000000000001         -2.9677919145260613E-002
  0.11070000000000001         -4.1243591506084754E-002
  0.11100000000000000         -5.2414291889642375E-002
  0.11130000000000000         -6.3559578369088585E-002
  0.11160000000000002         -7.4916468800496475E-002
  0.11190000000000001         -8.6499447086515149E-002
  0.11220000000000001         -9.9034378550373850E-002
  0.11250000000000000        -0.11243180406284903     
  0.11280000000000000        -0.12661837265544479     
  0.11309999999999999        -0.14161178688525500     
  0.11340000000000001        -0.15634048192527636     
  0.11369999999999998        -0.16931082502372707     
  0.11400000000000000        -0.17918569031485410     
  0.11430000000000000        -0.18504563146398612     
  0.11460000000000002        -0.18584120443638152     
  0.11489999999999999        -0.18125122962083659     
  0.11520000000000001        -0.17200291344261265     
  0.11550000000000001        -0.15880774165008271     
  0.11580000000000000        -0.14295976085734802     
  0.11609999999999999        -0.12652169402469818     
  0.11640000000000002        -0.11067864540678063     
  0.11670000000000001         -9.6324677202174760E-002
  0.11700000000000001         -8.4452124774815437E-002
  0.11730000000000000         -7.5179921736211852E-002
  0.11760000000000000         -6.7890705557132489E-002
  0.11789999999999999         -6.1868482937752406E-002
  0.11820000000000001         -5.6160682271687648E-002
  0.11850000000000001         -4.9949319265940643E-002
  0.11880000000000000         -4.2703081848749512E-002
  0.11910000000000000         -3.4641333688011845E-002
  0.11940000000000002         -2.5644081361763812E-002
  0.11970000000000001         -1.6148361012093198E-002
  0.12000000000000001         -7.8278449045259373E-003
  0.12030000000000000         -9.0937598002786282E-004
  0.12060000000000000          4.7786435614129066E-003
  0.12089999999999999          8.7643324015397837E-003
  0.12119999999999999          1.1488596583025968E-002
  0.12150000000000001          1.4100609395829886E-002
  0.12180000000000001          1.7975586835371319E-002
  0.12210000000000000          2.3801298525367880E-002
  0.12239999999999999          3.2440544950615213E-002
  0.12270000000000002          4.5037263978136968E-002
  0.12300000000000001          6.0985652665200750E-002
  0.12330000000000001          7.9163366764559553E-002
  0.12360000000000000          9.8788136280408695E-002
  0.12390000000000000         0.11798668788226117     
  0.12419999999999999         0.13506034140445419     
  0.12450000000000001         0.14903546990224512     
  0.12480000000000001         0.15898212917666732     
  0.12509999999999999         0.16465848828121182     
  0.12540000000000001         0.16644270887356699     
  0.12570000000000003         0.16517916520733994     
  0.12600000000000000         0.16213105847438200     
  0.12630000000000002         0.15823164836476344     
  0.12659999999999999         0.15473680468970336     
  0.12690000000000001         0.15212919097154604     
  0.12719999999999998         0.15012876968060984     
  0.12750000000000000         0.14861876042175043     
  0.12780000000000002         0.14650613325664150     
  0.12809999999999999         0.14270246272835804     
  0.12840000000000001         0.13702106711492151     
  0.12869999999999998         0.12940423421591268     
  0.12900000000000000         0.12012225622152593     
  0.12930000000000003         0.10959862413924830     
  0.12959999999999999          9.9353658686730920E-002
  0.12990000000000002          9.1042230626290910E-002
  0.13019999999999998          8.5662769891126020E-002
  0.13050000000000000          8.4377559569377189E-002
  0.13080000000000003          8.7428676455126780E-002
  0.13109999999999999          9.4165051558899190E-002
  0.13140000000000002         0.10300067983876640     
  0.13169999999999998         0.11204680189397805     
  0.13200000000000001         0.11962740219394567     
  0.13229999999999997         0.12376253371849616     
  0.13260000000000000         0.12285524651840059     
  0.13290000000000002         0.11625441944767952     
  0.13319999999999999         0.10407105124149703     
  0.13350000000000001          8.7025635378378638E-002
  0.13380000000000003          6.6755466710432532E-002
  0.13410000000000000          4.5279123528349903E-002
  0.13440000000000002          2.4306480497474175E-002
  0.13469999999999999          4.9777176641719574E-003
  0.13500000000000001         -1.1775001460578910E-002
  0.13529999999999998         -2.5775534882251979E-002
  0.13560000000000000         -3.7819400587659473E-002
  0.13590000000000002         -4.8720971234281721E-002
  0.13619999999999999         -5.9114829493634134E-002
  0.13650000000000001         -7.0063487726307050E-002
  0.13680000000000003         -8.2191274743999315E-002
  0.13710000000000000         -9.5150777459004562E-002
  0.13740000000000002        -0.10835272202092601     
  0.13769999999999999        -0.12051753084006016     
  0.13800000000000001        -0.13075354827227698     
  0.13829999999999998        -0.13794893167712000     
  0.13860000000000000        -0.14132690589789459     
  0.13890000000000002        -0.14091097009715142     
  0.13919999999999999        -0.13743239871132099     
  0.13950000000000001        -0.13234564932851822     
  0.13979999999999998        -0.12709620905708463     
  0.14010000000000000        -0.12306914079238722     
  0.14040000000000002        -0.12204148989773701     
  0.14069999999999999        -0.12490063537056539     
  0.14100000000000001        -0.13138863815576732     
  0.14130000000000004        -0.14140653962839458     
  0.14160000000000000        -0.15371556902701733     
  0.14189999999999997        -0.16649203291704648     
  0.14219999999999999        -0.17797470350921582     
  0.14250000000000002        -0.18657349282366184     
  0.14279999999999998        -0.19160580849198322     
  0.14310000000000000        -0.19235834685498315     
  0.14339999999999997        -0.18910438028145465     
  0.14369999999999999        -0.18276639492955604     
  0.14400000000000002        -0.17404170549860079     
  0.14429999999999998        -0.16419334929207871     
  0.14460000000000001        -0.15417359984557114     
  0.14490000000000003        -0.14413944091162451     
  0.14520000000000000        -0.13445486314883923     
  0.14550000000000002        -0.12441643488989117     
  0.14579999999999999        -0.11340220407082741     
  0.14610000000000001        -0.10056390723270572     
  0.14640000000000003         -8.5498497782970112E-002
  0.14670000000000000         -6.8254732348918490E-002
  0.14699999999999996         -4.8567206367237208E-002
  0.14729999999999999         -2.7760135721007457E-002
  0.14760000000000001         -7.3780741437357716E-003
  0.14789999999999998          1.1487325836097496E-002
  0.14820000000000000          2.7439891544787594E-002