  -1.4999999999999999E-002     0.0000000000000000     
  -1.4700000000000000E-002     0.0000000000000000     
  -1.4400000000000000E-002    -1.0066527561252712E-033
  -1.4100000000000000E-002    -6.4157298292843889E-030
  -1.3800000000000000E-002    -1.1603378130870897E-027
  -1.3500000000000000E-002    -2.6629866052328996E-026
  -1.3200000000000000E-002     1.6377498553281128E-024
  -1.2899999999999998E-002     2.8227527392343899E-023
  -1.2600000000000000E-002    -2.1432821050714024E-022
  -1.2299999999999998E-002    -1.2610392503956669E-021
  -1.2000000000000000E-002     4.0127895420362116E-021
  -1.1699999999999999E-002     2.5709760658331612E-020
  -1.1399999999999999E-002    -5.9022533471383377E-020
  -1.1099999999999999E-002     9.9492796730703952E-019
  -1.0799999999999999E-002    -6.5263465212202568E-018
  -1.0499999999999999E-002    -1.7359784994204718E-017
  -1.0199999999999999E-002     2.2562649931435195E-016
  -9.8999999999999991E-003    -4.6906521376599240E-016
  -9.5999999999999992E-003    -9.7940412736564707E-016
  -9.2999999999999992E-003     6.6552219694536434E-015
  -8.9999999999999993E-003    -1.4154851352388189E-014
  -8.6999999999999994E-003     8.3107044765046622E-015
  -8.3999999999999995E-003     4.4504654545198945E-014
  -8.0999999999999996E-003    -1.6420538656738645E-013
  -7.7999999999999988E-003     2.5347174760143308E-013
  -7.4999999999999997E-003    -1.2573218822373145E-013
  -7.1999999999999998E-003    -2.1098454177004165E-013
  -6.8999999999999981E-003     6.1917110806156887E-013
  -6.5999999999999982E-003    -1.1953560238291446E-012
  -6.3000000000000000E-003     1.6524223643794550E-012
  -6.0000000000000001E-003    -6.1582273069502144E-013
  -5.6999999999999985E-003    -2.9390533106805589E-012
  -5.3999999999999986E-003     5.2033919412390010E-012
  -5.1000000000000004E-003     6.1070779956070008E-012
  -4.7999999999999987E-003    -3.2698931079055077E-011
  -4.5000000000000005E-003     2.6509095893247317E-011
  -4.1999999999999989E-003     7.7600685998918362E-011
  -3.8999999999999990E-003    -2.1447369238655993E-010
  -3.5999999999999990E-003     1.2646591750570345E-010
  -3.2999999999999991E-003     3.3415015867213091E-010
  -2.9999999999999992E-003    -7.1300613124221231E-010
  -2.6999999999999993E-003     2.1718570080492989E-010
  -2.3999999999999994E-003     9.4462673857803003E-010
  -2.0999999999999977E-003    -1.1914054526474845E-009
  -1.7999999999999995E-003    -3.1464946638797587E-010
  -1.4999999999999979E-003     1.9350263313266658E-009
  -1.1999999999999997E-003    -1.5347683221769800E-009
  -8.9999999999999976E-004    -3.3981704597104587E-010
  -5.9999999999999810E-004     2.3645544000520187E-009
  -2.9999999999999992E-004    -7.0671806609179108E-009
   0.0000000000000000          1.2524060723612284E-008
   3.0000000000000165E-004     4.3415860923220158E-009
   5.9999999999999984E-004    -5.9117767921391100E-008
   9.0000000000000149E-004     7.0417315430834884E-008
   1.2000000000000031E-003     1.1448721057754325E-007
   1.5000000000000013E-003    -3.6563544173845959E-007
   1.8000000000000030E-003    -1.0093443753530306E-008
   2.1000000000000012E-003     1.2419395938186752E-006
   2.3999999999999994E-003    -8.9392438647256537E-007
   2.7000000000000010E-003    -3.8069504785733560E-006
   2.9999999999999992E-003     3.5803994412006202E-006
   3.3000000000000008E-003     1.1273959225502673E-005
   3.6000000000000025E-003    -7.5426340613075164E-006
   3.9000000000000007E-003    -3.1502226756699800E-005
   4.2000000000000023E-003     8.0064751276013633E-006
   4.5000000000000005E-003     1.1574366804900019E-004
   4.7999999999999987E-003     2.0726252780456519E-004
   5.1000000000000004E-003     2.5122015731920901E-004
   5.4000000000000020E-003     3.4186924894644236E-004
   5.7000000000000037E-003     5.7871225965768608E-004
   5.9999999999999984E-003     9.6606526639506042E-004
   6.3000000000000000E-003     1.4885632484947162E-003
   6.6000000000000017E-003     2.2306130278278279E-003
   6.9000000000000034E-003     3.3572161386840713E-003
   7.2000000000000015E-003     5.0274563373786081E-003
   7.5000000000000032E-003     7.4216709503465306E-003
   7.8000000000000014E-003     1.0816559113384843E-002
   8.0999999999999996E-003     1.5561202025646564E-002
   8.4000000000000012E-003     2.2029958267596152E-002
   8.7000000000000029E-003     3.0687943666835818E-002
   9.0000000000000011E-003     4.2147871841563544E-002
   9.2999999999999992E-003     5.7050800136047936E-002
   9.6000000000000009E-003     7.5967264650546956E-002
   9.8999999999999991E-003     9.9480937641365674E-002
   1.0200000000000001E-002    0.12818294258612162     
   1.0500000000000002E-002    0.16241703207771985     
   1.0800000000000004E-002    0.20204957800742235     
   1.1099999999999999E-002    0.24646150876795336     
   1.1400000000000000E-002    0.29452096839009173     
   1.1700000000000002E-002    0.34432526757731113     
   1.2000000000000004E-002    0.39293362213170263     
   1.2300000000000002E-002    0.43634526091685177     
   1.2600000000000000E-002    0.46963440362472586     
   1.2900000000000002E-002    0.48697764904533747     
   1.3200000000000000E-002    0.48172914301232361     
   1.3500000000000002E-002    0.44687961289668920     
   1.3800000000000003E-002    0.37571062274938577     
   1.4100000000000001E-002    0.26237639714495214     
   1.4400000000000000E-002    0.10257218886960312     
   1.4700000000000001E-002   -0.10561788968298295     
   1.4999999999999999E-002   -0.36093009327120340     
   1.5300000000000001E-002   -0.65830222621310064     
   1.5600000000000003E-002   -0.98839534768969162     
   1.5899999999999997E-002    -1.3375071450883440     
   1.6199999999999999E-002    -1.6880456541732327     
   1.6500000000000001E-002    -2.0193489659699280     
   1.6800000000000002E-002    -2.3087187384129555     
   1.7100000000000004E-002    -2.5330724666541053     
   1.7400000000000006E-002    -2.6710366734683575     
   1.7700000000000000E-002    -2.7048923656547261     
   1.8000000000000002E-002    -2.6225176684452967     
   1.8300000000000004E-002    -2.4190819958078311     
   1.8600000000000005E-002    -2.0982265590505622     
   1.8900000000000000E-002    -1.6724618621527199     
   1.9200000000000002E-002    -1.1629665575317305     
   1.9500000000000003E-002   -0.59845431273655891     
   1.9799999999999998E-002    -1.2843388545555313E-002
   2.0100000000000000E-002    0.55712472630071974     
   2.0400000000000001E-002     1.0749411429070563     
   2.0700000000000003E-002     1.5078708308672808     
   2.0999999999999998E-002     1.8299379025890827     
   2.1299999999999999E-002     2.0244305585880422     
   2.1600000000000001E-002     2.0857953224944628     
   2.1900000000000003E-002     2.0209465598757745     
   2.2200000000000004E-002     1.8490277517509979     
   2.2500000000000006E-002     1.5994963180704254     
   2.2800000000000001E-002     1.3105547664151618     
   2.3100000000000002E-002     1.0260829273625673     
   2.3400000000000004E-002    0.79162873159201608     
   2.3699999999999999E-002    0.65054791061206529     
   2.4000000000000000E-002    0.64013418100271091     
   2.4300000000000002E-002    0.78837098093113089     
   2.4599999999999997E-002     1.1114463891949748     
   2.4900000000000005E-002     1.6119784912712996     
   2.5200000000000000E-002     2.2783881291365509     
   2.5499999999999995E-002     3.0850083901404428     
   2.5800000000000003E-002     3.9934602195150015     
   2.6099999999999998E-002     4.9554881895377250     
   2.6400000000000007E-002     5.9156627845786707     
   2.6700000000000002E-002     6.8137997977129441     
   2.6999999999999996E-002     7.5886899551044991     
   2.7300000000000005E-002     8.1813962004489529     
   2.7600000000000000E-002     8.5376298569761779     
   2.7900000000000008E-002     8.6106180991090540     
   2.8200000000000003E-002     8.3626826363124227     
   2.8499999999999998E-002     7.7668589136919213     
   2.8800000000000006E-002     6.8086581909928432     
   2.9100000000000001E-002     5.4868497410763055     
   2.9400000000000003E-002     3.8144588125005034     
   2.9700000000000004E-002     1.8195694037877592     
   3.0000000000000006E-002   -0.45426794867509102     
   3.0300000000000001E-002    -2.9471054098605367     
   3.0600000000000002E-002    -5.5839818711453555     
   3.0900000000000004E-002    -8.2761505906419508     
   3.1199999999999999E-002    -10.922425725055252     
   3.1500000000000007E-002    -13.413500462079220     
   3.1800000000000002E-002    -15.636590743159918     
   3.2099999999999997E-002    -17.480748290954637     
   3.2400000000000005E-002    -18.843721915177916     
   3.2700000000000000E-002    -19.638833726944156     
   3.3000000000000002E-002    -19.801703094508291     
   3.3300000000000003E-002    -19.295576818529788     
   3.3599999999999998E-002    -18.115871014712610     
   3.3900000000000000E-002    -16.293085338098642     
   3.4200000000000001E-002    -13.891974666687812     
   3.4500000000000003E-002    -11.009266699363517     
   3.4799999999999998E-002    -7.7687542123547555     
   3.5099999999999999E-002    -4.3142132821796713     
   3.5400000000000001E-002   -0.80046764399375703     
   3.5699999999999996E-002     2.6160838400335740     
   3.6000000000000004E-002     5.7863368981592878     
   3.6299999999999999E-002     8.5778075330341714     
   3.6600000000000008E-002     10.882980076780967     
   3.6900000000000002E-002     12.623495652451220     
   3.7199999999999997E-002     13.753637084062898     
   3.7500000000000006E-002     14.262324227125305     
   3.7800000000000000E-002     14.171486453811927     
   3.8100000000000009E-002     13.532253637725354     
   3.8400000000000004E-002     12.421069441912293     
   3.8699999999999998E-002     10.933432945756358     
   3.9000000000000007E-002     9.1772278694075133     
   3.9300000000000002E-002     7.2663729432724384     
   3.9600000000000003E-002     5.3143156336747577     
   3.9900000000000005E-002     3.4284979723057907     
   4.0200000000000000E-002     1.7041980458647283     
   4.0500000000000001E-002    0.22125186503756544     
   4.0800000000000003E-002   -0.95912170947697084     
   4.1100000000000005E-002    -1.7970658154205119     
   4.1399999999999999E-002    -2.2733939944633437     
   4.1700000000000008E-002    -2.3896692905163324     
   4.2000000000000003E-002    -2.1676330851917665     
   4.2299999999999997E-002    -1.6454503553560083     
   4.2600000000000006E-002   -0.87418168481894365     
   4.2900000000000001E-002     8.5596818004668285E-002
   4.3200000000000002E-002     1.1676318510266364     
   4.3500000000000004E-002     2.3042016398133760     
   4.3799999999999999E-002     3.4308203131750190     
   4.4100000000000000E-002     4.4889573483355631     
   4.4400000000000002E-002     5.4287449754079979     
   4.4700000000000004E-002     6.2113732604365186     
   4.4999999999999998E-002     6.8103478676516502     
   4.5300000000000000E-002     7.2125302063710377     
   4.5600000000000002E-002     7.4178586671959970     
   4.5899999999999996E-002     7.4388944008543501     
   4.6200000000000005E-002     7.2995125416300137     
   4.6500000000000000E-002     7.0321293266250766     
   4.6799999999999994E-002     6.6751825043425299     
   4.7100000000000003E-002     6.2682885833974602     
   4.7399999999999998E-002     5.8462897273295980     
   4.7700000000000006E-002     5.4347078196599092     
   4.8000000000000001E-002     5.0434959856139123     
   4.8300000000000010E-002     4.6611031598855366     
   4.8600000000000004E-002     4.2508003131668683     
   4.8899999999999999E-002     3.7500284278781555     
   4.9200000000000008E-002     3.0722430036086763     
   4.9500000000000002E-002     2.1118545319388335     
   4.9800000000000011E-002    0.75546248934744287     
   5.0100000000000006E-002    -1.1045940668056304     
   5.0400000000000000E-002    -3.5552215470179371     
   5.0700000000000009E-002    -6.6446555225926973     
   5.1000000000000004E-002    -10.366345837760500     
   5.1299999999999998E-002    -14.645878089062411     
   5.1600000000000007E-002    -19.334162365877358     
   5.1900000000000002E-002    -24.207556860341128     
   5.2200000000000010E-002    -28.974924166740720     
   5.2500000000000005E-002    -33.295658787613220     
   5.2800000000000000E-002    -36.802862241255781     
   5.3099999999999994E-002    -39.133437129880463     
   5.3400000000000003E-002    -39.961957007432048     
   5.3699999999999998E-002    -39.033108854605388     
   5.4000000000000006E-002    -36.192190358686950     
   5.4300000000000001E-002    -31.406032478086317     
   5.4599999999999996E-002    -24.776552185348596     
   5.4900000000000004E-002    -16.543217513557718     
   5.5199999999999999E-002    -7.0713988389332609     
   5.5499999999999994E-002     3.1700785403797358     
   5.5800000000000002E-002     13.640230680150976     
   5.6099999999999997E-002     23.764586918080440     
   5.6400000000000006E-002     32.977831173173371     
   5.6700000000000000E-002     40.766704449565168     
   5.6999999999999995E-002     46.707087017848835     
   5.7300000000000004E-002     50.493940129293470     
   5.7599999999999998E-002     51.961497763358288     
   5.7900000000000007E-002     51.092336621633301     
   5.8200000000000002E-002     48.014919557332910     
   5.8499999999999996E-002     42.986512382250680     
   5.8800000000000005E-002     36.370306322886677     
   5.9100000000000000E-002     28.604486049225009     
   5.9400000000000008E-002     20.166929215777163     
   5.9700000000000003E-002     11.540245957871591     
   6.0000000000000012E-002     3.1780799493139122     
   6.0300000000000006E-002    -4.5219144139084317     
   6.0600000000000001E-002    -11.239220615099258     
   6.0900000000000010E-002    -16.744413356915757     
   6.1200000000000004E-002    -20.901533022127012     
   6.1500000000000013E-002    -23.668432931786000     
   6.1800000000000008E-002    -25.087276013408630     
   6.2100000000000002E-002    -25.267510288044704     
   6.2399999999999997E-002    -24.372272463686695     
   6.2700000000000006E-002    -22.600638976619702     
   6.3000000000000000E-002    -20.168918730268395     
   6.3300000000000009E-002    -17.295038013518550     
   6.3600000000000004E-002    -14.186323230272862     
   6.3899999999999998E-002    -11.029614264125049     
   6.4199999999999993E-002    -7.9835256784071333     
   6.4500000000000002E-002    -5.1743337145159254     
   6.4800000000000010E-002    -2.6953621643444601     
   6.5100000000000005E-002   -0.60724354124833368     
   6.5400000000000000E-002     1.0605481563332311     
   6.5700000000000008E-002     2.3062484305769888     
   6.5999999999999989E-002     3.1500069311583521     
   6.6299999999999998E-002     3.6319772510653325     
   6.6600000000000006E-002     3.8058955298625623     
   6.6900000000000001E-002     3.7320240146160319     
   6.7199999999999996E-002     3.4750934051835349     
   6.7500000000000004E-002     3.0987334800007544     
   6.7800000000000013E-002     2.6609110724101850     
   6.8099999999999994E-002     2.2102254765336498     
   6.8400000000000002E-002     1.7841216437644785     
   6.8700000000000011E-002     1.4099832828006911     
   6.8999999999999992E-002     1.1018567227687179     
   6.9300000000000000E-002    0.86284323513141747     
   6.9600000000000009E-002    0.68973093487963866     
   6.9900000000000004E-002    0.57238292627381915     
   7.0199999999999999E-002    0.49722678041362522     
   7.0500000000000007E-002    0.45106059971308465     
   7.0800000000000016E-002    0.42214574992189768     
   7.1099999999999997E-002    0.40164999953530900     
   7.1400000000000005E-002    0.38341971392873597     
   7.1700000000000000E-002    0.36590410879892721     
   7.1999999999999995E-002    0.34987665927789513     
   7.2300000000000003E-002    0.33617156894747369     
   7.2600000000000012E-002    0.32689321089295192     
   7.2900000000000006E-002    0.32445286898201597     
   7.3200000000000001E-002    0.32974988833950625     
   7.3499999999999996E-002    0.34139565655319681     
   7.3800000000000004E-002    0.35783956179932674     
   7.4099999999999999E-002    0.37720321286571645     
   7.4400000000000008E-002    0.39703502279946562     
   7.4700000000000003E-002    0.41526339285365810     
   7.5000000000000011E-002    0.43019038547610333     
   7.5299999999999992E-002    0.44158900048310351     
   7.5600000000000001E-002    0.44944342581696639     
   7.5900000000000009E-002    0.45325019877884332     
   7.6200000000000004E-002    0.45305614985775611     
   7.6499999999999999E-002    0.44766473922634986     
   7.6800000000000007E-002    0.43553222388695478     
   7.7099999999999988E-002    0.41458268952320820     
   7.7399999999999997E-002    0.38166138446309089     
   7.7700000000000005E-002    0.33535066209321596     
   7.8000000000000014E-002    0.27380511743764008     
   7.8299999999999995E-002    0.19734281989976327     
   7.8600000000000003E-002    0.10904836008604379     
   7.8900000000000012E-002     1.2590440328306106E-002
   7.9199999999999993E-002    -8.5289317699019276E-002
   7.9500000000000001E-002   -0.17781432331241595     
   7.9800000000000010E-002   -0.25820471306810083     
   8.0100000000000018E-002   -0.31957414894346176     
   8.0399999999999999E-002   -0.35783369914840563     
   8.0700000000000008E-002   -0.37081081853249109     
   8.1000000000000003E-002   -0.35951043307087077     
   8.1299999999999997E-002   -0.32788174511205015     
   8.1600000000000006E-002   -0.28074136481193679     
   8.1900000000000014E-002   -0.22577719625367548     
   8.2199999999999995E-002   -0.17029732186633345     
   8.2500000000000004E-002   -0.12012272262811055     
   8.2799999999999999E-002    -8.0348045374886698E-002
   8.3100000000000007E-002    -5.3589684269314236E-002
   8.3400000000000002E-002    -4.0539269538930944E-002
   8.3700000000000011E-002    -3.9529893558218961E-002
   8.4000000000000005E-002    -4.7248083512755459E-002
   8.4300000000000000E-002    -6.0144810774709213E-002
   8.4599999999999995E-002    -7.4081475769576993E-002
   8.4900000000000003E-002    -8.6066496847941654E-002
   8.5199999999999998E-002    -9.4085215807603442E-002
   8.5500000000000007E-002    -9.7645229751007506E-002
   8.5800000000000001E-002    -9.7871327210705100E-002
   8.6100000000000010E-002    -9.5786046523391011E-002
   8.6399999999999991E-002    -9.3123690512562876E-002
   8.6699999999999999E-002    -9.2149395815455143E-002
   8.7000000000000008E-002    -9.3435294766232288E-002
   8.7300000000000003E-002    -9.6359839470200548E-002
   8.7599999999999997E-002    -9.9535219388577678E-002
   8.7900000000000006E-002   -0.10099499576174356     
   8.8200000000000014E-002    -9.7142405615475574E-002
   8.8499999999999995E-002    -8.4218323754060201E-002
   8.8800000000000004E-002    -6.0318565304986950E-002
   8.9100000000000013E-002    -2.4414887384577456E-002
   8.9399999999999993E-002     2.3734059510354077E-002
   8.9700000000000002E-002     8.1106655746995118E-002
   9.0000000000000011E-002    0.14293733363959871     
   9.0299999999999991E-002    0.20391158774416249     
   9.0600000000000000E-002    0.25712245770022057     
   9.0900000000000009E-002    0.29572967139209921     
   9.1200000000000017E-002    0.31536362094221948     
   9.1499999999999998E-002    0.31261013252777697     
   9.1800000000000007E-002    0.28673242349907474     
   9.2100000000000001E-002    0.24010627238281435     
   9.2399999999999996E-002    0.17836171354252447     
   9.2700000000000005E-002    0.10986088749379971     
   9.3000000000000013E-002     4.2266054640756515E-002
   9.3300000000000008E-002    -1.4772497940655275E-002
   9.3600000000000003E-002    -5.2816158609218157E-002
   9.3899999999999997E-002    -6.8187911466817144E-002
   9.4200000000000006E-002    -5.8256079128008537E-002
   9.4500000000000001E-002    -2.4827733482072220E-002
   9.4800000000000009E-002     2.4936495041110299E-002
   9.5100000000000004E-002     8.3222293914784778E-002
   9.5399999999999999E-002    0.13866502164434849     
   9.5699999999999993E-002    0.18063660409893254     
   9.6000000000000002E-002    0.19926575844552183     
   9.6300000000000011E-002    0.18781181434068020     
   9.6600000000000005E-002    0.14635871692657673     
   9.6900000000000000E-002     7.7214854344403186E-002
   9.7200000000000009E-002    -1.1365989974540497E-002
   9.7499999999999989E-002   -0.10521563924635399     
   9.7799999999999998E-002   -0.18984472073344877     
   9.8100000000000007E-002   -0.24932389160511248     
   9.8400000000000015E-002   -0.26955431421539150     
   9.8699999999999996E-002   -0.24148900487892588     
   9.9000000000000005E-002   -0.16218726075743223     
   9.9300000000000013E-002    -3.7029769337496188E-002
   9.9599999999999994E-002    0.12228748289172531     
   9.9900000000000003E-002    0.29557607670683173     
  0.10020000000000001         0.45735404431405580     
  0.10049999999999999         0.58181728834751345     
  0.10080000000000000         0.64366547057895240     
  0.10110000000000001         0.62242946021691903     
  0.10140000000000000         0.50597375000612299     
  0.10170000000000000         0.29375136834945326     
  0.10200000000000001         -2.8852225960416533E-003
  0.10230000000000002        -0.36170564412231476     
  0.10260000000000000        -0.74932320900504579     
  0.10290000000000001         -1.1255870931905871     
  0.10320000000000000         -1.4487189765431459     
  0.10350000000000001         -1.6779279580132056     
  0.10380000000000000         -1.7802992747419286     
  0.10410000000000001         -1.7337969265544269     
  0.10440000000000001         -1.5308918069767279     
  0.10470000000000000         -1.1799902038151246     
  0.10500000000000000        -0.70418432294936983     
  0.10530000000000000        -0.14065173339283488     
  0.10560000000000000         0.46355522851525766     
  0.10590000000000001          1.0575139565841702     
  0.10620000000000000          1.5898009658816927     
  0.10650000000000001          2.0142618408033806     
  0.10679999999999999          2.2950323142348923     
  0.10710000000000000          2.4089199382587587     
  0.10740000000000001          2.3480861132644955     
  0.10770000000000000          2.1197847703675885     
  0.10800000000000000          1.7444985429043807     
  0.10830000000000001          1.2544540928786745     
  0.10859999999999999         0.68920379074367522     
  0.10890000000000000          9.1574132936406538E-002
  0.10920000000000001        -0.49489940810030431     
  0.10950000000000001         -1.0313332245425344     
  0.10979999999999999         -1.4861203320464793     
  0.11009999999999999         -1.8345978733670754     
  0.11040000000000001         -2.0624526141250423     
  0.11070000000000001         -2.1651630902272276     
  0.11100000000000000         -2.1460570545769531     
  0.11130000000000000         -2.0165190688611410     
  0.11160000000000002         -1.7927717392583027     
  0.11190000000000001         -1.4955790526688100     
  0.11220000000000001         -1.1481172119221830     
  0.11250000000000000        -0.77299444027201680     
  0.11280000000000000        -0.39313535727591153     
  0.11309999999999999         -2.9111166832788637E-002
  0.11340000000000001         0.30214528160569981     
  0.11369999999999998         0.58527101832703177     
  0.11400000000000000         0.80997141900294400     
  0.11430000000000000         0.97070425028354568     
  0.11460000000000002          1.0650834130964659     
  0.11489999999999999          1.0949395883125672     
  0.11520000000000001          1.0663681292294509     
  0.11550000000000001         0.98810664419713090     
  0.11580000000000000         0.87123013406081573     
  0.11609999999999999         0.72851463181305232     
  0.11640000000000002         0.57273608234837103     
  0.11670000000000001         0.41625256854354753     
  0.11700000000000001         0.26959121799385061     
  0.11730000000000000         0.14111817276021527     
  0.11760000000000000          3.6768072173908747E-002
  0.11789999999999999         -4.1372029723455862E-002
  0.11820000000000001         -9.2675361098891185E-002
  0.11850000000000001        -0.11881501770504510     
  0.11880000000000000        -0.12499899624521456     
  0.11910000000000000        -0.11539027503749577     
  0.11940000000000002         -9.4541890399647444E-002
  0.11970000000000001         -6.8242964545385004E-002
  0.12000000000000001         -3.9418952163424240E-002
  0.12030000000000000         -1.0869968153566487E-002
  0.12060000000000000          1.5382595958194082E-002
  0.12089999999999999          3.8867714346291993E-002
  0.12119999999999999          5.9403959986386770E-002
  0.12150000000000001          7.7809641537348914E-002
  0.12180000000000001          9.4182550599140213E-002
  0.12210000000000000         0.10786790635530571     
  0.12239999999999999         0.11979813185505961     
  0.12270000000000002         0.12931217344320806     
  0.12300000000000001         0.13476702128617682     
  0.12330000000000001         0.13620748049008297     
  0.12360000000000000         0.13298564312763445     
  0.12390000000000000         0.12475900353553421     
  0.12419999999999999         0.11275016471270530     
  0.12450000000000001          9.7827396824959556E-002
  0.12480000000000001          8.1541540243683458E-002
  0.12509999999999999          6.6430646030918319E-002
  0.12540000000000001          5.4111048165912751E-002
  0.12570000000000003          4.6089080759398007E-002
  0.12600000000000000          4.3425535710778895E-002
  0.12630000000000002          4.6009765837808136E-002
  0.12659999999999999          5.3640383013834114E-002
  0.12690000000000001          6.4284607301360430E-002
  0.12719999999999998          7.5367102283122947E-002
  0.12750000000000000          8.5451509097866529E-002
  0.12780000000000002          9.1562337065470262E-002
  0.12809999999999999          9.1710487139779528E-002
  0.12840000000000001          8.6028049946906937E-002
  0.12869999999999998          7.3307740908741745E-002
  0.12900000000000000          5.4387149091725082E-002
  0.12930000000000003          3.1293338150751186E-002
  0.12959999999999999          5.5991910254688058E-003
  0.12990000000000002         -1.9922483475710424E-002
  0.13019999999999998         -4.3702082857020770E-002
  0.13050000000000000         -6.4839635979267091E-002
  0.13080000000000003         -8.1964185799502348E-002
  0.13109999999999999         -9.5525826344485670E-002
  0.13140000000000002        -0.10620495275986760     
  0.13169999999999998        -0.11500977547702168     
  0.13200000000000001        -0.12379620538633246     
  0.13229999999999997        -0.13305931214804065     
  0.13260000000000000        -0.14332987235256145     
  0.13290000000000002        -0.15515749992955541     
  0.13319999999999999        -0.16749211703769262     
  0.13350000000000001        -0.17875833781915756     
  0.13380000000000003        -0.18822245907774776     
  0.13410000000000000        -0.19369694591390879     
  0.13440000000000002        -0.19431123553469845     
  0.13469999999999999        -0.19025579846366253     
  0.13500000000000001        -0.18130411997228468     
  0.13529999999999998        -0.16915967808162921     
  0.13560000000000000        -0.15619929908870023     
  0.13590000000000002        -0.14379246057085598     
  0.13619999999999999        -0.13464048161202180     
  0.13650000000000001        -0.12992774654069567     
  0.13680000000000003        -0.13058363645822321     
  0.13710000000000000        -0.13716175456055926     
  0.13740000000000002        -0.14709619329754300     
  0.13769999999999999        -0.15904113050770902     
  0.13800000000000001        -0.17095125737298400     
  0.13829999999999998        -0.17907249610321069     
  0.13860000000000000        -0.18242298018021513     
  0.13890000000000002        -0.17978887993993614     
  0.13919999999999999        -0.16979840019817916     
  0.13950000000000001        -0.15412338204256384     
  0.13979999999999998        -0.13400544591190922     
  0.14010000000000000        -0.11196002870906691     
  0.14040000000000002         -9.0160646305587566E-002
  0.14069999999999999         -6.9427929029597185E-002
  0.14100000000000001         -5.2190257620751621E-002
  0.14130000000000004         -3.8751743687706272E-002
  0.14160000000000000         -2.7689052913132079E-002
  0.14189999999999997         -1.8197050814359083E-002
  0.14219999999999999         -8.3797534277136182E-003
  0.14250000000000002          3.4463534323727774E-003
  0.14279999999999998          1.8050734465048318E-002
  0.14310000000000000          3.6650921264536451E-002
  0.14339999999999997          5.8702110019536013E-002
  0.14369999999999999          8.2441928158714914E-002
  0.14400000000000002         0.10613283076918190     
  0.14429999999999998         0.12761184694398164     
  0.14460000000000001         0.14429880601154677     
  0.14490000000000003         0.15501698670605307     
  0.14520000000000000         0.15851837904184357     
  0.14550000000000002         0.15501582344185627     
  0.14579999999999999         0.14659796865336691     
  0.14610000000000001         0.13454353382659301     
  0.14640000000000003         0.12179993894741789     
  0.14670000000000000         0.11101768175223478     
  0.14699999999999996         0.10368816625394657     
  0.14729999999999999         0.10181321923444411     
  0.14760000000000001         0.10487243395156631     
  0.14789999999999998         0.11209616942727374     
  0.14820000000000000         0.12278324718153827     