  -1.4999999999999999E-002     0.0000000000000000     
  -1.4700000000000000E-002     0.0000000000000000     
  -1.4400000000000000E-002     0.0000000000000000     
  -1.4100000000000000E-002     0.0000000000000000     
  -1.3800000000000000E-002     0.0000000000000000     
  -1.3500000000000000E-002     0.0000000000000000     
  -1.3200000000000000E-002    -5.3118576876377497E-045
  -1.2899999999999998E-002    -2.1801917431186857E-036
  -1.2600000000000000E-002     6.5345370774893542E-035
  -1.2299999999999998E-002    -6.8490474424761645E-034
  -1.2000000000000000E-002     6.4357223666722699E-033
  -1.1699999999999999E-002    -2.0245517559849966E-032
  -1.1399999999999999E-002    -1.5826982454358077E-030
  -1.1099999999999999E-002     2.1366490609446884E-029
  -1.0799999999999999E-002     9.5320928364467362E-029
  -1.0499999999999999E-002    -5.4154770341008056E-027
  -1.0199999999999999E-002     7.1261647209886769E-026
  -9.8999999999999991E-003    -5.3179220211287277E-025
  -9.5999999999999992E-003     2.4714457069729954E-024
  -9.2999999999999992E-003    -6.2430137071351019E-024
  -8.9999999999999993E-003    -4.2010774992217085E-024
  -8.6999999999999994E-003     1.2924581238002630E-022
  -8.3999999999999995E-003    -7.5057746774797771E-022
  -8.0999999999999996E-003     2.9178278766445749E-021
  -7.7999999999999988E-003    -8.7465505584168694E-021
  -7.4999999999999997E-003     2.1266608319601934E-020
  -7.1999999999999998E-003    -4.3688209908951223E-020
  -6.8999999999999981E-003     8.1360892502476829E-020
  -6.5999999999999982E-003    -1.5222202831627692E-019
  -6.3000000000000000E-003     2.7054968510054468E-019
  -6.0000000000000001E-003    -1.7630177254017608E-019
  -5.6999999999999985E-003    -1.6345790219484829E-018
  -5.3999999999999986E-003     9.1095700538503961E-018
  -5.1000000000000004E-003    -2.5616972642944943E-017
  -4.7999999999999987E-003     3.6238575456037046E-017
  -4.5000000000000005E-003     3.2444945336023352E-017
  -4.1999999999999989E-003    -3.4837983538064475E-016
  -3.8999999999999990E-003     1.0985491306576669E-015
  -3.5999999999999990E-003    -2.1316878620351130E-015
  -3.2999999999999991E-003     2.3022657379238232E-015
  -2.9999999999999992E-003     9.2414833519342489E-016
  -2.6999999999999993E-003    -1.0244807450042270E-014
  -2.3999999999999994E-003     2.4418001344029756E-014
  -2.0999999999999977E-003    -3.2724842664690536E-014
  -1.7999999999999995E-003     1.4317936240739549E-014
  -1.4999999999999979E-003     4.9807640960902444E-014
  -1.1999999999999997E-003    -1.5436449757468522E-013
  -8.9999999999999976E-004     2.5712522597778807E-013
  -5.9999999999999810E-004    -2.9783092094367277E-013
  -2.9999999999999992E-004     2.2964930602856999E-013
   0.0000000000000000          1.0189964509995128E-015
   3.0000000000000165E-004    -5.2582069181921270E-013
   5.9999999999999984E-004     1.4851628803143559E-012
   9.0000000000000149E-004    -2.6080412748906177E-012
   1.2000000000000031E-003     2.7496908802635811E-012
   1.5000000000000013E-003    -3.6352053098968827E-013
   1.8000000000000030E-003    -4.6030288778540213E-012
   2.1000000000000012E-003     8.8701611122761391E-012
   2.3999999999999994E-003    -6.6008769550957031E-012
   2.7000000000000010E-003    -6.2649002812650759E-012
   2.9999999999999992E-003     2.3503760629363673E-011
   3.3000000000000008E-003    -1.1540976611878089E-011
   3.6000000000000025E-003    -1.1209653212337489E-010
   3.9000000000000007E-003     4.4438671476863567E-010
   4.2000000000000023E-003    -8.1797099759143227E-010
   4.5000000000000005E-003     2.5985127719508183E-011
   4.7999999999999987E-003     4.7423864574778305E-009
   5.1000000000000004E-003    -1.3749134921272959E-008
   5.4000000000000020E-003     9.7659915948424861E-009
   5.7000000000000037E-003     4.7231419933711767E-008
   5.9999999999999984E-003    -1.3082022676642397E-007
   6.3000000000000000E-003    -1.7849061286042510E-008
   6.6000000000000017E-003     5.5061332412708958E-007
   6.9000000000000034E-003    -3.4549254501806247E-007
   7.2000000000000015E-003    -1.9349913604539653E-006
   7.5000000000000032E-003     1.1115168019353729E-006
   7.8000000000000014E-003     6.0179236078928542E-006
   8.0999999999999996E-003    -7.4228167410382325E-007
   8.4000000000000012E-003    -1.5597601081435073E-005
   8.7000000000000029E-003    -6.3602231956433809E-006
   9.0000000000000011E-003     4.2203965227177024E-005
   9.2999999999999992E-003     9.2961512556637534E-005
   9.6000000000000009E-003     1.0732374823004992E-004
   9.8999999999999991E-003     1.1712398733985366E-004
   1.0200000000000001E-002     1.9828716182467869E-004
   1.0500000000000002E-002     3.7597789082035899E-004
   1.0800000000000004E-002     6.0931750231410444E-004
   1.1099999999999999E-002     8.8617122202734361E-004
   1.1400000000000000E-002     1.2909370554241666E-003
   1.1700000000000002E-002     1.9492938571680162E-003
   1.2000000000000004E-002     2.9344397361126882E-003
   1.2300000000000002E-002     4.2892632024576043E-003
   1.2600000000000000E-002     6.1422474455416261E-003
   1.2900000000000002E-002     8.7200794383496209E-003
   1.3200000000000000E-002     1.2238284713388781E-002
   1.3500000000000002E-002     1.6879911001034614E-002
   1.3800000000000003E-002     2.2894267312118102E-002
   1.4100000000000001E-002     3.0609648765506425E-002
   1.4400000000000000E-002     4.0311175397302501E-002
   1.4700000000000001E-002     5.2179856070545497E-002
   1.4999999999999999E-002     6.6357347138722461E-002
   1.5300000000000001E-002     8.2935750713057546E-002
   1.5600000000000003E-002    0.10178984130353905     
   1.5899999999999997E-002    0.12245000105143317     
   1.6199999999999999E-002    0.14411878386136295     
   1.6500000000000001E-002    0.16571406415272796     
   1.6800000000000002E-002    0.18576367493349827     
   1.7100000000000004E-002    0.20222314984539302     
   1.7400000000000006E-002    0.21256387991435471     
   1.7700000000000000E-002    0.21403743098592753     
   1.8000000000000002E-002    0.20374113410399813     
   1.8300000000000004E-002    0.17864353990101597     
   1.8600000000000005E-002    0.13591082085134687     
   1.8900000000000000E-002     7.3351563326397862E-002
   1.9200000000000002E-002    -1.0306918873576619E-002
   1.9500000000000003E-002   -0.11522830262884626     
   1.9799999999999998E-002   -0.24008843962993676     
   2.0100000000000000E-002   -0.38168828721450132     
   2.0400000000000001E-002   -0.53496656460397152     
   2.0700000000000003E-002   -0.69327643281526941     
   2.0999999999999998E-002   -0.84849831541087328     
   2.1299999999999999E-002   -0.99126682014499945     
   2.1600000000000001E-002    -1.1115380001096029     
   2.1900000000000003E-002    -1.1995009954794806     
   2.2200000000000004E-002    -1.2465182360575819     
   2.2500000000000006E-002    -1.2456727133102858     
   2.2800000000000001E-002    -1.1921555350115713     
   2.3100000000000002E-002    -1.0841371023981998     
   2.3400000000000004E-002   -0.92331416422678791     
   2.3699999999999999E-002   -0.71472249195131687     
   2.4000000000000000E-002   -0.46615209150683345     
   2.4300000000000002E-002   -0.18804870719506181     
   2.4599999999999997E-002    0.10704168951737794     
   2.4900000000000005E-002    0.40557492031194375     
   2.5200000000000000E-002    0.69406129377603620     
   2.5499999999999995E-002    0.95994161396967370     
   2.5800000000000003E-002     1.1918592408890101     
   2.6099999999999998E-002     1.3803652700439064     
   2.6400000000000007E-002     1.5186439952220590     
   2.6700000000000002E-002     1.6022967686099139     
   2.6999999999999996E-002     1.6292105494354165     
   2.7300000000000005E-002     1.5991606895016026     
   2.7600000000000000E-002     1.5136958326389927     
   2.7900000000000008E-002     1.3762289034319046     
   2.8200000000000003E-002     1.1913388933220346     
   2.8499999999999998E-002    0.96436680042883438     
   2.8800000000000006E-002    0.70207607713246400     
   2.9100000000000001E-002    0.41287165990479402     
   2.9400000000000003E-002    0.10648761116050051     
   2.9700000000000004E-002   -0.20586077586615914     
   3.0000000000000006E-002   -0.51119129772824112     
   3.0300000000000001E-002   -0.79484454771620272     
   3.0600000000000002E-002    -1.0410438222903653     
   3.0900000000000004E-002    -1.2337935491980310     
   3.1199999999999999E-002    -1.3574163944698476     
   3.1500000000000007E-002    -1.3978474643128023     
   3.1800000000000002E-002    -1.3441654458101862     
   3.2099999999999997E-002    -1.1895983505722278     
   3.2400000000000005E-002   -0.93240021251726368     
   3.2700000000000000E-002   -0.57687893074577135     
   3.3000000000000002E-002   -0.13362753634977581     
   3.3300000000000003E-002    0.38074384550169393     
   3.3599999999999998E-002    0.94398638940749491     
   3.3900000000000000E-002     1.5296651827920265     
   3.4200000000000001E-002     2.1084946817852166     
   3.4500000000000003E-002     2.6501606803572786     
   3.4799999999999998E-002     3.1254823389911994     
   3.5099999999999999E-002     3.5075219931670452     
   3.5400000000000001E-002     3.7738449800560563     
   3.5699999999999996E-002     3.9076914294391702     
   3.6000000000000004E-002     3.8981448579882709     
   3.6299999999999999E-002     3.7412778543482181     
   3.6600000000000008E-002     3.4396622353563862     
   3.6900000000000002E-002     3.0021314929411811     
   3.7199999999999997E-002     2.4434152120661339     
   3.7500000000000006E-002     1.7826473869529105     
   3.7800000000000000E-002     1.0432425194991426     
   3.8100000000000009E-002    0.25213900717801929     
   3.8400000000000004E-002   -0.56147325834147166     
   3.8699999999999998E-002    -1.3669439660516651     
   3.9000000000000007E-002    -2.1331618969615675     
   3.9300000000000002E-002    -2.8289940382258836     
   3.9600000000000003E-002    -3.4251205980762585     
   3.9900000000000005E-002    -3.8963382936142681     
   4.0200000000000000E-002    -4.2225338537318065     
   4.0500000000000001E-002    -4.3906902420822362     
   4.0800000000000003E-002    -4.3969431275713404     
   4.1100000000000005E-002    -4.2485364105716759     
   4.1399999999999999E-002    -3.9650696196198050     
   4.1700000000000008E-002    -3.5779181227586498     
   4.2000000000000003E-002    -3.1296390264125931     
   4.2299999999999997E-002    -2.6721529647607207     
   4.2600000000000006E-002    -2.2630760565301613     
   4.2900000000000001E-002    -1.9610842080348760     
   4.3200000000000002E-002    -1.8202892671577693     
   4.3500000000000004E-002    -1.8845111468676405     
   4.3799999999999999E-002    -2.1817193622595781     
   4.4100000000000000E-002    -2.7187528423789669     
   4.4400000000000002E-002    -3.4780879187440643     
   4.4700000000000004E-002    -4.4162441375912085     
   4.4999999999999998E-002    -5.4646080452954671     
   4.5300000000000000E-002    -6.5331012084009306     
   4.5600000000000002E-002    -7.5154561412222698     
   4.5899999999999996E-002    -8.2979497853576873     
   4.6200000000000005E-002    -8.7686264835396877     
   4.6500000000000000E-002    -8.8271352850167251     
   4.6799999999999994E-002    -8.3951570587636155     
   4.7100000000000003E-002    -7.4244357821964861     
   4.7399999999999998E-002    -5.9036380060220521     
   4.7700000000000006E-002    -3.8616282947425660     
   4.8000000000000001E-002    -1.3669415609240922     
   4.8300000000000010E-002     1.4743883543498479     
   4.8600000000000004E-002     4.5265056740422338     
   4.8899999999999999E-002     7.6337269917976149     
   4.9200000000000008E-002     10.630293240599736     
   4.9500000000000002E-002     13.353226984113633     
   4.9800000000000011E-002     15.653994577250547     
   5.0100000000000006E-002     17.409095068536892     
   5.0400000000000000E-002     18.527814334302704     
   5.0700000000000009E-002     18.956731502689994     
   5.1000000000000004E-002     18.682948094681201     
   5.1299999999999998E-002     17.732520380122146     
   5.1600000000000007E-002     16.166024388772229     
   5.1900000000000002E-002     14.072989241020402     
   5.2200000000000010E-002     11.564144379454177     
   5.2500000000000005E-002     8.7637094238074091     
   5.2800000000000000E-002     5.8010640580825488     
   5.3099999999999994E-002     2.8033283612205984     
   5.3400000000000003E-002   -0.11027610290718937     
   5.3699999999999998E-002    -2.8329639919107379     
   5.4000000000000006E-002    -5.2733554658897503     
   5.4300000000000001E-002    -7.3582605439594149     
   5.4599999999999996E-002    -9.0327929619866349     
   5.4900000000000004E-002    -10.259625278406252     
   5.5199999999999999E-002    -11.020378726702905     
   5.5499999999999994E-002    -11.314430825372662     
   5.5800000000000002E-002    -11.157273056030581     
   5.6099999999999997E-002    -10.581036999908996     
   5.6400000000000006E-002    -9.6329308614257290     
   5.6700000000000000E-002    -8.3738164850210417     
   5.6999999999999995E-002    -6.8762061141292428     
   5.7300000000000004E-002    -5.2212909701045183     
   5.7599999999999998E-002    -3.4967640013773194     
   5.7900000000000007E-002    -1.7918854309488896     
   5.8200000000000002E-002   -0.19214759517038504     
   5.8499999999999996E-002     1.2239152570075964     
   5.8800000000000005E-002     2.3901886609413818     
   5.9100000000000000E-002     3.2573431547034581     
   5.9400000000000008E-002     3.7950588712359528     
   5.9700000000000003E-002     3.9943142298802190     
   6.0000000000000012E-002     3.8679890694695729     
   6.0300000000000006E-002     3.4494134864181598     
   6.0600000000000001E-002     2.7887601190146123     
   6.0900000000000010E-002     1.9491316665032410     
   6.1200000000000004E-002     1.0023759354991673     
   6.1500000000000013E-002     2.2881281682224808E-002
   6.1800000000000008E-002   -0.91888242453670932     
   6.2100000000000002E-002    -1.7612729479992042     
   6.2399999999999997E-002    -2.4545307493782658     
   6.2700000000000006E-002    -2.9650269959744215     
   6.3000000000000000E-002    -3.2774951653255471     
   6.3300000000000009E-002    -3.3929238895336642     
   6.3600000000000004E-002    -3.3285733215337889     
   6.3899999999999998E-002    -3.1153402840888011     
   6.4199999999999993E-002    -2.7930190179307113     
   6.4500000000000002E-002    -2.4073729206559067     
   6.4800000000000010E-002    -2.0043527921231128     
   6.5100000000000005E-002    -1.6270384754510199     
   6.5400000000000000E-002    -1.3123521257924200     
   6.5700000000000008E-002    -1.0863568572503493     
   6.5999999999999989E-002   -0.96467981010057113     
   6.6299999999999998E-002   -0.95179879947923274     
   6.6600000000000006E-002    -1.0404528605593111     
   6.6900000000000001E-002    -1.2142978193245635     
   6.7199999999999996E-002    -1.4492613092307303     
   6.7500000000000004E-002    -1.7169534645261972     
   6.7800000000000013E-002    -1.9880232403951812     
   6.8099999999999994E-002    -2.2342288256252552     
   6.8400000000000002E-002    -2.4318101779528671     
   6.8700000000000011E-002    -2.5635627434517811     
   6.8999999999999992E-002    -2.6195686803176246     
   6.9300000000000000E-002    -2.5982502073197136     
   6.9600000000000009E-002    -2.5053177341890551     
   6.9900000000000004E-002    -2.3508359633889504     
   7.0199999999999999E-002    -2.1484398108545992     
   7.0500000000000007E-002    -1.9127543259393578     
   7.0800000000000016E-002    -1.6551033534776636     
   7.1099999999999997E-002    -1.3818282696237434     
   7.1400000000000005E-002    -1.0926846256451277     
   7.1700000000000000E-002   -0.78108922489636479     
   7.1999999999999995E-002   -0.43466911476655512     
   7.2300000000000003E-002    -3.6372742528152702E-002
   7.2600000000000012E-002    0.43070620027304535     
   7.2900000000000006E-002    0.97939373095426230     
   7.3200000000000001E-002     1.6168609712893207     
   7.3499999999999996E-002     2.3409614231137246     
   7.3800000000000004E-002     3.1387888400565398     
   7.4099999999999999E-002     3.9879159702594791     
   7.4400000000000008E-002     4.8586487741497972     
   7.4700000000000003E-002     5.7189619194216998     
   7.5000000000000011E-002     6.5402004871595780     
   7.5299999999999992E-002     7.3023832843673020     
   7.5600000000000001E-002     7.9988280491370372     
   7.5900000000000009E-002     8.6388954369760800     
   7.6200000000000004E-002     9.2480638607531809     
   7.6499999999999999E-002     9.8643558973464920     
   7.6800000000000007E-002     10.530194648921750     
   7.7099999999999988E-002     11.283151231118545     
   7.7399999999999997E-002     12.145113220283687     
   7.7700000000000005E-002     13.109959718622454     
   7.8000000000000014E-002     14.134377462554866     
   7.8299999999999995E-002     15.132223326093829     
   7.8600000000000003E-002     15.973915064670443     
   7.8900000000000012E-002     16.491693917651318     
   7.9199999999999993E-002     16.492686946683289     
   7.9500000000000001E-002     15.776843831081052     
   7.9800000000000010E-002     14.158078420849456     
   8.0100000000000018E-002     11.490120625760698     
   8.0399999999999999E-002     7.6896908025030406     
   8.0700000000000008E-002     2.7559480006698092     
   8.1000000000000003E-002    -3.2138788630241883     
   8.1299999999999997E-002    -10.020783254549027     
   8.1600000000000006E-002    -17.366342806440315     
   8.1900000000000014E-002    -24.868600461997136     
   8.2199999999999995E-002    -32.086921885451467     
   8.2500000000000004E-002    -38.551312132511512     
   8.2799999999999999E-002    -43.800961368076102     
   8.3100000000000007E-002    -47.422385439555569     
   8.3400000000000002E-002    -49.085137106391059     
   8.3700000000000011E-002    -48.572900053241675     
   8.4000000000000005E-002    -45.805206102833935     
   8.4300000000000000E-002    -40.848059012926811     
   8.4599999999999995E-002    -33.912926455880879     
   8.4900000000000003E-002    -25.343886429945769     
   8.5199999999999998E-002    -15.592371492891971     
   8.5500000000000007E-002    -5.1842585674079746     
   8.5800000000000001E-002     5.3183365162071716     
   8.6100000000000010E-002     15.357286404797474     
   8.6399999999999991E-002     24.416785713360806     
   8.6699999999999999E-002     32.059196367968063     
   8.7000000000000008E-002     37.951224717261894     
   8.7300000000000003E-002     41.879243986979034     
   8.7599999999999997E-002     43.757352682633339     
   8.7900000000000006E-002     43.624416301428667     
   8.8200000000000014E-002     41.632013918433913     
   8.8499999999999995E-002     38.025264354368630     
   8.8800000000000004E-002     33.118704612850919     
   8.9100000000000013E-002     27.270560742332663     
   8.9399999999999993E-002     20.855627723768269     
   8.9700000000000002E-002     14.241308044163429     
   9.0000000000000011E-002     7.7660995186028430     
   9.0299999999999991E-002     1.7230541601799638     
   9.0600000000000000E-002    -3.6507176868998292     
   9.0900000000000009E-002    -8.1815349468471155     
   9.1200000000000017E-002    -11.761186925858574     
   9.1499999999999998E-002    -14.344040416003779     
   9.1800000000000007E-002    -15.941524447041289     
   9.2100000000000001E-002    -16.614993775032637     
   9.2399999999999996E-002    -16.465773782696910     
   9.2700000000000005E-002    -15.624015442539946     
   9.3000000000000013E-002    -14.238421379552811     
   9.3300000000000008E-002    -12.465768088934128     
   9.3600000000000003E-002    -10.461126159925559     
   9.3899999999999997E-002    -8.3676104952040991     
   9.4200000000000006E-002    -6.3113148714667648     
   9.4500000000000001E-002    -4.3957448206875673     
   9.4800000000000009E-002    -2.6978000187306947     
   9.5100000000000004E-002    -1.2674265650227596     
   9.5399999999999999E-002   -0.12781013500122007     
   9.5699999999999993E-002    0.71970637176679997     
   9.6000000000000002E-002     1.2932672857801251     
   9.6300000000000011E-002     1.6257732470676274     
   9.6600000000000005E-002     1.7572504074646877     
   9.6900000000000000E-002     1.7327931163997028     
   9.7200000000000009E-002     1.5956500366703201     
   9.7499999999999989E-002     1.3847783745640052     
   9.7799999999999998E-002     1.1346164890538049     
   9.8100000000000007E-002    0.87074436542134337     
   9.8400000000000015E-002    0.61332235384287859     
   9.8699999999999996E-002    0.37566035321470514     
   9.9000000000000005E-002    0.16585260973136118     
   9.9300000000000013E-002    -9.1012622982515057E-003
   9.9599999999999994E-002   -0.14716058119174186     
   9.9900000000000003E-002   -0.24651729746657403     
  0.10020000000000001        -0.30634619558557863     
  0.10049999999999999        -0.32814082242556647     
  0.10080000000000000        -0.31368492834276474     
  0.10110000000000001        -0.26816631239967464     
  0.10140000000000000        -0.19658632543464855     
  0.10170000000000000        -0.10591809181477796     
  0.10200000000000001         -5.9314614955680717E-003
  0.10230000000000002          9.5021746306040544E-002
  0.10260000000000000         0.18846938175919120     
  0.10290000000000001         0.26777493114050832     
  0.10320000000000000         0.32831152362908655     
  0.10350000000000001         0.36699801519785213     
  0.10380000000000000         0.38523432225974602     
  0.10410000000000001         0.38635061480718647     
  0.10440000000000001         0.37416545231094056     
  0.10470000000000000         0.35400315781540648     
  0.10500000000000000         0.33033801056580836     
  0.10530000000000000         0.30758650679214672     
  0.10560000000000000         0.28859396667474790     
  0.10590000000000001         0.27310481784255469     
  0.10620000000000000         0.26070481520840416     
  0.10650000000000001         0.24964570563058369     
  0.10679999999999999         0.23723448157062560     
  0.10710000000000000         0.22178643989869545     
  0.10740000000000001         0.20197811807864474     
  0.10770000000000000         0.17807895305320617     
  0.10800000000000000         0.15189653541916204     
  0.10830000000000001         0.12537014973393346     
  0.10859999999999999         0.10230601057694171     
  0.10890000000000000          8.5468355671397378E-002
  0.10920000000000001          7.7129464605456555E-002
  0.10950000000000001          7.9201945546635205E-002
  0.10979999999999999          9.0972248070549863E-002
  0.11009999999999999         0.11119971865045836     
  0.11040000000000001         0.13629865776232500     
  0.11070000000000001         0.16226794422176571     
  0.11100000000000000         0.18571151854392728     
  0.11130000000000000         0.20246033262670082     
  0.11160000000000002         0.21053456616453073     
  0.11190000000000001         0.20845206354272441     
  0.11220000000000001         0.19700266439274255     
  0.11250000000000000         0.17920815081817104     
  0.11280000000000000         0.15736590800520422     
  0.11309999999999999         0.13586182675284952     
  0.11340000000000001         0.11767703311304784     
  0.11369999999999998         0.10536028236130628     
  0.11400000000000000         0.10098863598304947     
  0.11430000000000000         0.10310605731346173     
  0.11460000000000002         0.10941061750302025     
  0.11489999999999999         0.11607606022653204     
  0.11520000000000001         0.11910701060176962     
  0.11550000000000001         0.11448373934233426     
  0.11580000000000000          9.8058469299014947E-002
  0.11609999999999999          6.8916434731100401E-002
  0.11640000000000002          2.7869211262809942E-002
  0.11670000000000001         -2.2530077139322969E-002
  0.11700000000000001         -7.6977690327372464E-002
  0.11730000000000000        -0.12847975707654097     
  0.11760000000000000        -0.16950027861911246     
  0.11789999999999999        -0.19462348468629626     
  0.11820000000000001        -0.19855583930739357     
  0.11850000000000001        -0.17843415140636232     
  0.11880000000000000        -0.13668747174671528     
  0.11910000000000000         -7.7344025474920100E-002
  0.11940000000000002         -8.0226921885636036E-003
  0.11970000000000001          6.2271629578668067E-002
  0.12000000000000001         0.12322388558354372     
  0.12030000000000000         0.16467994470208569     
  0.12060000000000000         0.18100197863167752     
  0.12089999999999999         0.16817813302991430     
  0.12119999999999999         0.12668030013520665     
  0.12150000000000001          6.2389238763779525E-002
  0.12180000000000001         -1.6307733106491307E-002
  0.12210000000000000         -9.7840815720882768E-002
  0.12239999999999999        -0.16957144438836558     
  0.12270000000000002        -0.22039388248688385     
  0.12300000000000001        -0.24142467476085255     
  0.12330000000000001        -0.22822238477603246     
  0.12360000000000000        -0.18173722731332359     
  0.12390000000000000        -0.10795643253602849     
  0.12419999999999999         -1.8549541661448565E-002
  0.12450000000000001          7.1689964428429578E-002
  0.12480000000000001         0.14730017231043790     
  0.12509999999999999         0.19300819358989002     
  0.12540000000000001         0.19786739393666813     
  0.12570000000000003         0.15589845078730313     
  0.12600000000000000          6.7908239586925823E-002
  0.12630000000000002         -5.6997933090805947E-002
  0.12659999999999999        -0.20346122544709985     
  0.12690000000000001        -0.35113410231608999     
  0.12719999999999998        -0.47701945524961847     
  0.12750000000000000        -0.55903314335789134     
  0.12780000000000002        -0.57850236289804347     
  0.12809999999999999        -0.52444238395374021     
  0.12840000000000001        -0.39518099044216581     
  0.12869999999999998        -0.19918480455289955     
  0.12900000000000000          4.4606633950942470E-002
  0.12930000000000003         0.30941487262962308     
  0.12959999999999999         0.56202283993508317     
  0.12990000000000002         0.76795212549788361     
  0.13019999999999998         0.89476633448383891     
  0.13050000000000000         0.91753817278918381     
  0.13080000000000003         0.82176199885991774     
  0.13109999999999999         0.60439636383718476     
  0.13140000000000002         0.27777104776609141     
  0.13169999999999998        -0.13345667940803524     
  0.13200000000000001        -0.59365463167826482     
  0.13229999999999997         -1.0595366349658124     
  0.13260000000000000         -1.4855670703349906     
  0.13290000000000002         -1.8270286774094207     
  0.13319999999999999         -2.0471765057942020     
  0.13350000000000001         -2.1189017648050017     
  0.13380000000000003         -2.0276941522737024     
  0.13410000000000000         -1.7758881834087710     
  0.13440000000000002         -1.3786349772274265     
  0.13469999999999999        -0.86462123757302067     
  0.13500000000000001        -0.27282786013746430     
  0.13529999999999998         0.35222793989789758     
  0.13560000000000000         0.96243767111977230     
  0.13590000000000002          1.5140430370595752     
  0.13619999999999999          1.9678052740943701     
  0.13650000000000001          2.2929679429950496     
  0.13680000000000003          2.4710693874299214     
  0.13710000000000000          2.4945641843534152     
  0.13740000000000002          2.3691415768286364     
  0.13769999999999999          2.1097431017202304     
  0.13800000000000001          1.7394365139601948     
  0.13829999999999998          1.2892093012008488     
  0.13860000000000000         0.79192160737050155     
  0.13890000000000002         0.28128620740377730     
  0.13919999999999999        -0.21020156107288079     
  0.13950000000000001        -0.65449781758618963     
  0.13979999999999998         -1.0284695548893672     
  0.14010000000000000         -1.3161536373709113     
  0.14040000000000002         -1.5077538057301916     
  0.14069999999999999         -1.5995807487394536     
  0.14100000000000001         -1.5951763207666168     
  0.14130000000000004         -1.5029969427212444     
  0.14160000000000000         -1.3353042392556087     
  0.14189999999999997         -1.1083822897460422     
  0.14219999999999999        -0.83995121354315927     
  0.14250000000000002        -0.54858618354453992     
  0.14279999999999998        -0.25305583591724828     
  0.14310000000000000          3.0105486892116742E-002
  0.14339999999999997         0.28575695031022380     
  0.14369999999999999         0.50211214717469532     
  0.14400000000000002         0.67115802742138897     
  0.14429999999999998         0.78758676639483882     
  0.14460000000000001         0.85092273354438630     
  0.14490000000000003         0.86376969853846086     
  0.14520000000000000         0.83170379087554991     
  0.14550000000000002         0.76307788540994947     
  0.14579999999999999         0.66708123058351132     
  0.14610000000000001         0.55419403185746297     
  0.14640000000000003         0.43420958393532094     
  0.14670000000000000         0.31560200752133144     
  0.14699999999999996         0.20573845409043856     
  0.14729999999999999         0.10977872959204635     
  0.14760000000000001          3.0465278587950964E-002
  0.14789999999999998         -3.1795781099752680E-002
  0.14820000000000000         -7.7491523517233374E-002