  -1.4999999999999999E-002     0.0000000000000000     
  -1.4700000000000000E-002     0.0000000000000000     
  -1.4400000000000000E-002     0.0000000000000000     
  -1.4100000000000000E-002     0.0000000000000000     
  -1.3800000000000000E-002     0.0000000000000000     
  -1.3500000000000000E-002     0.0000000000000000     
  -1.3200000000000000E-002     0.0000000000000000     
  -1.2899999999999998E-002     0.0000000000000000     
  -1.2600000000000000E-002     0.0000000000000000     
  -1.2299999999999998E-002     0.0000000000000000     
  -1.2000000000000000E-002     0.0000000000000000     
  -1.1699999999999999E-002     0.0000000000000000     
  -1.1399999999999999E-002     0.0000000000000000     
  -1.1099999999999999E-002     0.0000000000000000     
  -1.0799999999999999E-002     0.0000000000000000     
  -1.0499999999999999E-002     0.0000000000000000     
  -1.0199999999999999E-002     0.0000000000000000     
  -9.8999999999999991E-003     0.0000000000000000     
  -9.5999999999999992E-003     0.0000000000000000     
  -9.2999999999999992E-003     0.0000000000000000     
  -8.9999999999999993E-003     0.0000000000000000     
  -8.6999999999999994E-003     0.0000000000000000     
  -8.3999999999999995E-003     0.0000000000000000     
  -8.0999999999999996E-003     0.0000000000000000     
  -7.7999999999999988E-003     0.0000000000000000     
  -7.4999999999999997E-003     0.0000000000000000     
  -7.1999999999999998E-003     0.0000000000000000     
  -6.8999999999999981E-003     0.0000000000000000     
  -6.5999999999999982E-003     0.0000000000000000     
  -6.3000000000000000E-003     0.0000000000000000     
  -6.0000000000000001E-003     0.0000000000000000     
  -5.6999999999999985E-003     0.0000000000000000     
  -5.3999999999999986E-003     0.0000000000000000     
  -5.1000000000000004E-003     0.0000000000000000     
  -4.7999999999999987E-003     0.0000000000000000     
  -4.5000000000000005E-003     0.0000000000000000     
  -4.1999999999999989E-003     0.0000000000000000     
  -3.8999999999999990E-003     0.0000000000000000     
  -3.5999999999999990E-003     0.0000000000000000     
  -3.2999999999999991E-003     0.0000000000000000     
  -2.9999999999999992E-003     0.0000000000000000     
  -2.6999999999999993E-003     0.0000000000000000     
  -2.3999999999999994E-003     0.0000000000000000     
  -2.0999999999999977E-003     0.0000000000000000     
  -1.7999999999999995E-003     0.0000000000000000     
  -1.4999999999999979E-003     0.0000000000000000     
  -1.1999999999999997E-003     0.0000000000000000     
  -8.9999999999999976E-004     0.0000000000000000     
  -5.9999999999999810E-004     0.0000000000000000     
  -2.9999999999999992E-004    -3.3806985286573637E-042
   0.0000000000000000          1.5750528320036597E-041
   3.0000000000000165E-004    -6.1158901234223448E-039
   5.9999999999999984E-004     4.4151071052526678E-038
   9.0000000000000149E-004     2.0527357053185349E-037
   1.2000000000000031E-003    -1.2024970233157611E-036
   1.5000000000000013E-003    -1.3181408479366657E-036
   1.8000000000000030E-003     1.6296493352882551E-035
   2.1000000000000012E-003    -1.6434198384517979E-035
   2.3999999999999994E-003    -9.4580006892463764E-035
   2.7000000000000010E-003     3.4256337386659439E-034
   2.9999999999999992E-003     9.8648540852638066E-035
   3.3000000000000008E-003    -1.2511516017391969E-033
   3.6000000000000025E-003    -1.3230401685485035E-032
   3.9000000000000007E-003     5.9696831985557452E-032
   4.2000000000000023E-003     2.7532234009048916E-031
   4.5000000000000005E-003    -3.6917133023735361E-030
   4.7999999999999987E-003     1.3822086941067741E-029
   5.1000000000000004E-003     1.4825958084087563E-029
   5.4000000000000020E-003    -4.0800087365537619E-028
   5.7000000000000037E-003     2.0664567785627363E-027
   5.9999999999999984E-003    -4.3892931248444942E-027
   6.3000000000000000E-003    -8.6049230977956982E-027
   6.6000000000000017E-003     1.0784443899221409E-025
   6.9000000000000034E-003    -4.5122367018177546E-025
   7.2000000000000015E-003     1.0674538393505737E-024
   7.5000000000000032E-003    -7.9771546486415239E-025
   7.8000000000000014E-003    -4.8832165131799692E-024
   8.0999999999999996E-003     2.4021528782515525E-023
   8.4000000000000012E-003    -5.4201515330224981E-023
   8.7000000000000029E-003     3.4034863407531712E-023
   9.0000000000000011E-003     2.3830628344324622E-022
   9.2999999999999992E-003    -1.1114242283431540E-021
   9.6000000000000009E-003     2.6620100586666647E-021
   9.8999999999999991E-003    -2.9918740212898801E-021
   1.0200000000000001E-002    -7.6615743935248585E-021
   1.0500000000000002E-002     7.1357637970022190E-020
   1.0800000000000004E-002    -3.7855951703577652E-019
   1.1099999999999999E-002     1.8184116735121845E-018
   1.1400000000000000E-002    -8.4517726421929458E-018
   1.1700000000000002E-002     3.7994440476896422E-017
   1.2000000000000004E-002    -1.6354499250963947E-016
   1.2300000000000002E-002     6.6632403611403421E-016
   1.2600000000000000E-002    -2.5238162069147156E-015
   1.2900000000000002E-002     8.5946528975076946E-015
   1.3200000000000000E-002    -2.4510412183356634E-014
   1.3500000000000002E-002     4.7088031831367267E-014
   1.3800000000000003E-002     2.2744550752356727E-014
   1.4100000000000001E-002    -7.4829817678180026E-013
   1.4400000000000000E-002     4.1218377450334974E-012
   1.4700000000000001E-002    -1.4227602279607333E-011
   1.4999999999999999E-002     2.9966475240844481E-011
   1.5300000000000001E-002    -8.1646302997858328E-012
   1.5600000000000003E-002    -2.0583372560632670E-010
   1.5899999999999997E-002     7.8303495443384562E-010
   1.6199999999999999E-002    -1.0575827356585992E-009
   1.6500000000000001E-002    -1.9006656606180763E-009
   1.6800000000000002E-002     1.0264962546243746E-008
   1.7100000000000004E-002    -1.0260726620212022E-008
   1.7400000000000006E-002    -3.1211529614651014E-008
   1.7700000000000000E-002     8.1668079329040969E-008
   1.8000000000000002E-002     4.6410512304671671E-008
   1.8300000000000004E-002    -3.2094113750668718E-007
   1.8600000000000005E-002    -9.1260061550436096E-008
   1.8900000000000000E-002     9.4920830999797265E-007
   1.9200000000000002E-002     5.8655719653835633E-007
   1.9500000000000003E-002    -2.3664109097927377E-006
   1.9799999999999998E-002    -3.6188984624954303E-006
   2.0100000000000000E-002     4.9569619991098568E-006
   2.0400000000000001E-002     2.8379659469554649E-005
   2.0700000000000003E-002     6.5088024398586488E-005
   2.0999999999999998E-002     1.1239092334371114E-004
   2.1299999999999999E-002     1.7419200906085812E-004
   2.1600000000000001E-002     2.6421152013949222E-004
   2.1900000000000003E-002     4.0576628923843399E-004
   2.2200000000000004E-002     6.2963256371938864E-004
   2.2500000000000006E-002     9.7349049721075394E-004
   2.2800000000000001E-002     1.4864908644076332E-003
   2.3100000000000002E-002     2.2361137012275800E-003
   2.3400000000000004E-002     3.3153138255321399E-003
   2.3699999999999999E-002     4.8493583721878012E-003
   2.4000000000000000E-002     6.9999431791989055E-003
   2.4300000000000002E-002     9.9675293610705807E-003
   2.4599999999999997E-002     1.3993404039666403E-002
   2.4900000000000005E-002     1.9359829345768187E-002
   2.5200000000000000E-002     2.6385429218582626E-002
   2.5499999999999995E-002     3.5412515395161534E-002
   2.5800000000000003E-002     4.6783019094363734E-002
   2.6099999999999998E-002     6.0804538874121447E-002
   2.6400000000000007E-002     7.7705490560593060E-002
   2.6700000000000002E-002     9.7571966728516438E-002
   2.6999999999999996E-002    0.12027493698790165     
   2.7300000000000005E-002    0.14538667491493087     
   2.7600000000000000E-002    0.17209305799295574     
   2.7900000000000008E-002    0.19910525264239667     
   2.8200000000000003E-002    0.22460302782390823     
   2.8499999999999998E-002    0.24619978682839688     
   2.8800000000000006E-002    0.26094989378762740     
   2.9100000000000001E-002    0.26543215664009961     
   2.9400000000000003E-002    0.25587763807587938     
   2.9700000000000004E-002    0.22841083354454383     
   3.0000000000000006E-002    0.17935339746519996     
   3.0300000000000001E-002    0.10561889480845055     
   3.0600000000000002E-002     5.1251006030805409E-003
   3.0900000000000004E-002   -0.12274963772207131     
   3.1199999999999999E-002   -0.27673929338624315     
   3.1500000000000007E-002   -0.45338803558960067     
   3.1800000000000002E-002   -0.64679703722628457     
   3.2099999999999997E-002   -0.84863791572926561     
   3.2400000000000005E-002    -1.0483626770829302     
   3.2700000000000000E-002    -1.2336022061383705     
   3.3000000000000002E-002    -1.3909194514523351     
   3.3300000000000003E-002    -1.5066797102639844     
   3.3599999999999998E-002    -1.5680501219923810     
   3.3900000000000000E-002    -1.5642114572856529     
   3.4200000000000001E-002    -1.4873348695312620     
   3.4500000000000003E-002    -1.3335331682627918     
   3.4799999999999998E-002    -1.1035838883676190     
   3.5099999999999999E-002   -0.80321896493092138     
   3.5400000000000001E-002   -0.44304224844736206     
   3.5699999999999996E-002    -3.8116465822091432E-002
   3.6000000000000004E-002    0.39299014433931917     
   3.6299999999999999E-002    0.82936485768347934     
   3.6600000000000008E-002     1.2491591109882720     
   3.6900000000000002E-002     1.6311761640750249     
   3.7199999999999997E-002     1.9563272010856760     
   3.7500000000000006E-002     2.2089691847842543     
   3.7800000000000000E-002     2.3778421019183202     
   3.8100000000000009E-002     2.4568749222987405     
   3.8400000000000004E-002     2.4452606781505608     
   3.8699999999999998E-002     2.3472944356425649     
   3.9000000000000007E-002     2.1719154229085786     
   3.9300000000000002E-002     1.9315684430462672     
   3.9600000000000003E-002     1.6412648872565514     
   3.9900000000000005E-002     1.3174109223245898     
   4.0200000000000000E-002    0.97643321228033342     
   4.0500000000000001E-002    0.63393942756047283     
   4.0800000000000003E-002    0.30370324569831952     
   4.1100000000000005E-002    -2.9799439266454640E-003
   4.1399999999999999E-002   -0.27759200704485976     
   4.1700000000000008E-002   -0.51456055324675054     
   4.2000000000000003E-002   -0.71108603062103648     
   4.2299999999999997E-002   -0.86679586581779233     
   4.2600000000000006E-002   -0.98335425053641989     
   4.2900000000000001E-002    -1.0638536454072769     
   4.3200000000000002E-002    -1.1123923441819601     
   4.3500000000000004E-002    -1.1334919469794380     
   4.3799999999999999E-002    -1.1317223386059294     
   4.4100000000000000E-002    -1.1113229621125120     
   4.4400000000000002E-002    -1.0760446727372623     
   4.4700000000000004E-002    -1.0289909070053245     
   4.4999999999999998E-002   -0.97257406045507455     
   4.5300000000000000E-002   -0.90867769005477816     
   4.5600000000000002E-002   -0.83870196953925635     
   4.5899999999999996E-002   -0.76370126345556910     
   4.6200000000000005E-002   -0.68471965061835227     
   4.6500000000000000E-002   -0.60280012099287361     
   4.6799999999999994E-002   -0.51924363760072845     
   4.7100000000000003E-002   -0.43586247089785024     
   4.7399999999999998E-002   -0.35481228221741995     
   4.7700000000000006E-002   -0.27888908479195351     
   4.8000000000000001E-002   -0.21138036996543857     
   4.8300000000000010E-002   -0.15575555735906471     
   4.8600000000000004E-002   -0.11577862986485926     
   4.8899999999999999E-002    -9.4919919743782749E-002
   4.9200000000000008E-002    -9.5953237827270388E-002
   4.9500000000000002E-002   -0.12064292367398027     
   4.9800000000000011E-002   -0.16910172742648882     
   5.0100000000000006E-002   -0.23941067114987796     
   5.0400000000000000E-002   -0.32734692209534466     
   5.0700000000000009E-002   -0.42612049846209843     
   5.1000000000000004E-002   -0.52648411493760350     
   5.1299999999999998E-002   -0.61716647019351645     
   5.1600000000000007E-002   -0.68539194530274050     
   5.1900000000000002E-002   -0.71785269635694615     
   5.2200000000000010E-002   -0.70198650040435828     
   5.2500000000000005E-002   -0.62703708464751129     
   5.2800000000000000E-002   -0.48554812206789022     
   5.3099999999999994E-002   -0.27459517561501207     
   5.3400000000000003E-002     3.6085398174593025E-003
   5.3699999999999998E-002    0.34089530073289276     
   5.4000000000000006E-002    0.72327214797296135     
   5.4300000000000001E-002     1.1318047065808861     
   5.4599999999999996E-002     1.5431409511979299     
   5.4900000000000004E-002     1.9315377919295682     
   5.5199999999999999E-002     2.2708475470082834     
   5.5499999999999994E-002     2.5360938639354709     
   5.5800000000000002E-002     2.7061743977179660     
   5.6099999999999997E-002     2.7653885116419152     
   5.6400000000000006E-002     2.7045844587874672     
   5.6700000000000000E-002     2.5226160399102056     
   5.6999999999999995E-002     2.2259101230807419     
   5.7300000000000004E-002     1.8281587428649297     
   5.7599999999999998E-002     1.3497538744993527     
   5.7900000000000007E-002    0.81529212606393464     
   5.8200000000000002E-002    0.25236870023697777     
   5.8499999999999996E-002   -0.31045874155829212     
   5.8800000000000005E-002   -0.84642521392603964     
   5.9100000000000000E-002    -1.3314408342491757     
   5.9400000000000008E-002    -1.7460349502013692     
   5.9700000000000003E-002    -2.0767405734450093     
   6.0000000000000012E-002    -2.3155650808541051     
   6.0300000000000006E-002    -2.4609925788406821     
   6.0600000000000001E-002    -2.5172225219361559     
   6.0900000000000010E-002    -2.4926785349129394     
   6.1200000000000004E-002    -2.4000437542905866     
   6.1500000000000013E-002    -2.2541323921078549     
   6.1800000000000008E-002    -2.0705846973370070     
   6.2100000000000002E-002    -1.8653044091131514     
   6.2399999999999997E-002    -1.6523159994330505     
   6.2700000000000006E-002    -1.4433484915513244     
   6.3000000000000000E-002    -1.2474009392015872     
   6.3300000000000009E-002    -1.0693995723071614     
   6.3600000000000004E-002   -0.91081400898158527     
   6.3899999999999998E-002   -0.76958719106893425     
   6.4199999999999993E-002   -0.63978972577033644     
   6.4500000000000002E-002   -0.51331152036249872     
   6.4800000000000010E-002   -0.37999598951392310     
   6.5100000000000005E-002   -0.22853997725592756     
   6.5400000000000000E-002    -4.8486499964287860E-002
   6.5700000000000008E-002    0.16948083339531772     
   6.5999999999999989E-002    0.43195429350994652     
   6.6299999999999998E-002    0.74119926230404576     
   6.6600000000000006E-002     1.0951059935424934     
   6.6900000000000001E-002     1.4858003071876040     
   6.7199999999999996E-002     1.8998296693588017     
   6.7500000000000004E-002     2.3187869259634430     
   6.7800000000000013E-002     2.7195588202326260     
   6.8099999999999994E-002     3.0762912694565854     
   6.8400000000000002E-002     3.3621124524290109     
   6.8700000000000011E-002     3.5509307059777786     
   6.8999999999999992E-002     3.6202132551505892     
   6.9300000000000000E-002     3.5528828933486043     
   6.9600000000000009E-002     3.3391254608803282     
   6.9900000000000004E-002     2.9779838479558718     
   7.0199999999999999E-002     2.4777526931477989     
   7.0500000000000007E-002     1.8560330231936422     
   7.0800000000000016E-002     1.1387375645045696     
   7.1099999999999997E-002    0.35842872650910101     
   7.1400000000000005E-002   -0.44815048652125095     
   7.1700000000000000E-002    -1.2424247803622321     
   7.1999999999999995E-002    -1.9869682603138612     
   7.2300000000000003E-002    -2.6481956554046193     
   7.2600000000000012E-002    -3.1982541411237184     
   7.2900000000000006E-002    -3.6170781802645751     
   7.3200000000000001E-002    -3.8929969047399453     
   7.3499999999999996E-002    -4.0227002029903431     
   7.3800000000000004E-002    -4.0107889714406069     
   7.4099999999999999E-002    -3.8680521780057022     
   7.4400000000000008E-002    -3.6098566210817138     
   7.4700000000000003E-002    -3.2541693128578029     
   7.5000000000000011E-002    -2.8194840541413413     
   7.5299999999999992E-002    -2.3234871133449326     
   7.5600000000000001E-002    -1.7817744153755153     
   7.5900000000000009E-002    -1.2073629221702440     
   7.6200000000000004E-002   -0.61106582926564212     
   7.6499999999999999E-002    -2.1080916789976423E-003
   7.6800000000000007E-002    0.61074157860860778     
   7.7099999999999988E-002     1.2178936422910576     
   7.7399999999999997E-002     1.8074571136789153     
   7.7700000000000005E-002     2.3647454786909141     
   7.8000000000000014E-002     2.8720017056986324     
   7.8299999999999995E-002     3.3081512172745615     
   7.8600000000000003E-002     3.6507227636215189     
   7.8900000000000012E-002     3.8770216917682445     
   7.9199999999999993E-002     3.9662778269748618     
   7.9500000000000001E-002     3.9027680537586384     
   7.9800000000000010E-002     3.6773150485872872     
   8.0100000000000018E-002     3.2898174187866966     
   8.0399999999999999E-002     2.7506884721513645     
   8.0700000000000008E-002     2.0805829447794353     
   8.1000000000000003E-002     1.3106194179642054     
   8.1299999999999997E-002    0.48044008732720722     
   8.1600000000000006E-002   -0.36461336856500881     
   8.1900000000000014E-002    -1.1759419196024852     
   8.2199999999999995E-002    -1.9059891087069776     
   8.2500000000000004E-002    -2.5119223112645428     
   8.2799999999999999E-002    -2.9583425806104948     
   8.3100000000000007E-002    -3.2208033478458704     
   8.3400000000000002E-002    -3.2873974464864997     
   8.3700000000000011E-002    -3.1593062912367569     
   8.4000000000000005E-002    -2.8513438684445114     
   8.4300000000000000E-002    -2.3900208675470633     
   8.4599999999999995E-002    -1.8112762417810764     
   8.4900000000000003E-002    -1.1585344484631934     
   8.5199999999999998E-002   -0.47855305548485139     
   8.5500000000000007E-002    0.18156488695485570     
   8.5800000000000001E-002    0.77690085506425666     
   8.6100000000000010E-002     1.2686529169049729     
   8.6399999999999991E-002     1.6254285916798965     
   8.6699999999999999E-002     1.8249902417256743     
   8.7000000000000008E-002     1.8562290557439067     
   8.7300000000000003E-002     1.7181502468334608     
   8.7599999999999997E-002     1.4208248849362959     
   8.7900000000000006E-002    0.98483403952594850     
   8.8200000000000014E-002    0.43888708339266103     
   8.8499999999999995E-002   -0.17992372425296016     
   8.8800000000000004E-002   -0.82894402109229159     
   8.9100000000000013E-002    -1.4626451096467608     
   8.9399999999999993E-002    -2.0338513797362570     
   8.9700000000000002E-002    -2.4978494431369214     
   9.0000000000000011E-002    -2.8149951369820387     
   9.0299999999999991E-002    -2.9531208236449391     
   9.0600000000000000E-002    -2.8913988368671015     
   9.0900000000000009E-002    -2.6218124187612455     
   9.1200000000000017E-002    -2.1505556007245343     
   9.1499999999999998E-002    -1.4994317680395683     
   9.1800000000000007E-002   -0.70444228682583376     
   9.2100000000000001E-002    0.18565282524516491     
   9.2399999999999996E-002     1.1119567875361094     
   9.2700000000000005E-002     2.0102139370132215     
   9.3000000000000013E-002     2.8149038481791555     
   9.3300000000000008E-002     3.4640823363784827     
   9.3600000000000003E-002     3.9052478777320445     
   9.3899999999999997E-002     4.0990123205917062     
   9.4200000000000006E-002     4.0225883285566963     
   9.4500000000000001E-002     3.6728149785032302     
   9.4800000000000009E-002     3.0659236759280168     
   9.5100000000000004E-002     2.2373484120992204     
   9.5399999999999999E-002     1.2396479697961575     
   9.5699999999999993E-002    0.13768710201652379     
   9.6000000000000002E-002   -0.99490459533687337     
   9.6300000000000011E-002    -2.0816045732235975     
   9.6600000000000005E-002    -3.0493364199228097     
   9.6900000000000000E-002    -3.8324549996021906     
   9.7200000000000009E-002    -4.3788014390358336     
   9.7499999999999989E-002    -4.6530908763482168     
   9.7799999999999998E-002    -4.6387905172527253     
   9.8100000000000007E-002    -4.3402037308853130     
   9.8400000000000015E-002    -3.7810353515897077     
   9.8699999999999996E-002    -3.0024416030421670     
   9.9000000000000005E-002    -2.0601630188238413     
   9.9300000000000013E-002    -1.0196108395237096     
   9.9599999999999994E-002     4.9148546474100219E-002
   9.9900000000000003E-002     1.0763108973330746     
  0.10020000000000001          1.9979365955747439     
  0.10049999999999999          2.7604614311455888     
  0.10080000000000000          3.3237859659397992     
  0.10110000000000001          3.6642447478355447     
  0.10140000000000000          3.7753718774305822     
  0.10170000000000000          3.6670369241075189     
  0.10200000000000001          3.3644611462399743     
  0.10230000000000002          2.9044615841272781     
  0.10260000000000000          2.3322886915529302     
  0.10290000000000001          1.6978270863503007     
  0.10320000000000000          1.0502362857226546     
  0.10350000000000001         0.43534155698689669     
  0.10380000000000000        -0.10782618389568582     
  0.10410000000000001        -0.55008795706574576     
  0.10440000000000001        -0.87237307042944501     
  0.10470000000000000         -1.0669931239807449     
  0.10500000000000000         -1.1364989165508859     
  0.10530000000000000         -1.0918550458647007     
  0.10560000000000000        -0.95154710277298049     
  0.10590000000000001        -0.73807825366269464     
  0.10620000000000000        -0.47596431131389083     
  0.10650000000000001        -0.18972833687053961     
  0.10679999999999999          9.9035435442377931E-002
  0.10710000000000000         0.37232531354003529     
  0.10740000000000001         0.61701618555459559     
  0.10770000000000000         0.82556791143570907     
  0.10800000000000000         0.99542797593699239     
  0.10830000000000001          1.1286293445094615     
  0.10859999999999999          1.2305511445731456     
  0.10890000000000000          1.3087139765465952     
  0.10920000000000001          1.3712228573064154     
  0.10950000000000001          1.4251986842701920     
  0.10979999999999999          1.4756929898529170     
  0.11009999999999999          1.5248580344528513     
  0.11040000000000001          1.5715537869659348     
  0.11070000000000001          1.6111544178597690     
  0.11100000000000000          1.6362791747484762     
  0.11130000000000000          1.6377750467190444     
  0.11160000000000002          1.6056278240536983     
  0.11190000000000001          1.5307675218347134     
  0.11220000000000001          1.4059417426971930     
  0.11250000000000000          1.2267268144979786     
  0.11280000000000000         0.99250922019435950     
  0.11309999999999999         0.70597835466754999     
  0.11340000000000001         0.37323879676615562     
  0.11369999999999998          3.1460617507185762E-003
  0.11400000000000000        -0.39460936864488988     
  0.11430000000000000        -0.80977000320219850     
  0.11460000000000002         -1.2333955617183687     
  0.11489999999999999         -1.6589105409437688     
  0.11520000000000001         -2.0818469426671324     
  0.11550000000000001         -2.5007757462834039     
  0.11580000000000000         -2.9164339817753699     
  0.11609999999999999         -3.3309412695705909     
  0.11640000000000002         -3.7467652073064777     
  0.11670000000000001         -4.1652622371734775     
  0.11700000000000001         -4.5855562761053985     
  0.11730000000000000         -5.0033623207051292     
  0.11760000000000000         -5.4104428647597214     
  0.11789999999999999         -5.7941851318843263     
  0.11820000000000001         -6.1382299620563590     
  0.11850000000000001         -6.4228737642111042     
  0.11880000000000000         -6.6258810536589721     
  0.11910000000000000         -6.7245466979309585     
  0.11940000000000002         -6.6960478123204910     
  0.11970000000000001         -6.5196678204685403     
  0.12000000000000001         -6.1784760207403586     
  0.12030000000000000         -5.6596072178567347     
  0.12060000000000000         -4.9561361183019859     
  0.12089999999999999         -4.0678155656388668     
  0.12119999999999999         -3.0010133931507843     
  0.12150000000000001         -1.7703441988968360     
  0.12180000000000001        -0.39806715414756222     
  0.12210000000000000          1.0864549782970414     
  0.12239999999999999          2.6466273467490771     
  0.12270000000000002          4.2398502430813982     
  0.12300000000000001          5.8192740728862535     
  0.12330000000000001          7.3343036403903001     
  0.12360000000000000          8.7338095241288904     
  0.12390000000000000          9.9677147334709666     
  0.12419999999999999          10.989203636862289     
  0.12450000000000001          11.757882085893778     
  0.12480000000000001          12.240986296428702     
  0.12509999999999999          12.415651581253393     
  0.12540000000000001          12.270628465991127     
  0.12570000000000003          11.805809470548880     
  0.12600000000000000          11.033529732969157     
  0.12630000000000002          9.9778747188397006     
  0.12659999999999999          8.6725756137982977     
  0.12690000000000001          7.1604618467155152     
  0.12719999999999998          5.4911494087475328     
  0.12750000000000000          3.7180673117179692     
  0.12780000000000002          1.8969210531892111     
  0.12809999999999999          8.3733557384578106E-002
  0.12840000000000001         -1.6680847939027856     
  0.12869999999999998         -3.3088242048758048     
  0.12900000000000000         -4.7927203315796216     
  0.12930000000000003         -6.0809580413863351     
  0.12959999999999999         -7.1407118449208635     
  0.12990000000000002         -7.9452325901153369     
  0.13019999999999998         -8.4762286984121715     
  0.13050000000000000         -8.7215862737372625     
  0.13080000000000003         -8.6769414635983786     
  0.13109999999999999         -8.3467941749661012     
  0.13140000000000002         -7.7424358496761165     
  0.13169999999999998         -6.8853333545107738     
  0.13200000000000001         -5.8060882885644345     
  0.13229999999999997         -4.5430323233676519     
  0.13260000000000000         -3.1453457689534319     
  0.13290000000000002         -1.6691603200140386     
  0.13319999999999999        -0.17675743099621566     
  0.13350000000000001          1.2633217518139541     
  0.13380000000000003          2.5830568236913547     
  0.13410000000000000          3.7159041887946129     
  0.13440000000000002          4.5998160847284879     
  0.13469999999999999          5.1842604187734489     
  0.13500000000000001          5.4310320146953597     
  0.13529999999999998          5.3181651563174261     
  0.13560000000000000          4.8440093538472802     
  0.13590000000000002          4.0255272039621914     
  0.13619999999999999          2.9003655886876873     
  0.13650000000000001          1.5251495499208314     
  0.13680000000000003         -2.9105332641108150E-002
  0.13710000000000000         -1.6781942836506247     
  0.13740000000000002         -3.3313822426349851     
  0.13769999999999999         -4.8970279694634016     
  0.13800000000000001         -6.2858736148645722     
  0.13829999999999998         -7.4186292296861751     
  0.13860000000000000         -8.2302417190971155     
  0.13890000000000002         -8.6721491497466747     
  0.13919999999999999         -8.7171055411423950     
  0.13950000000000001         -8.3598849592700049     
  0.13979999999999998         -7.6163788837094142     
  0.14010000000000000         -6.5246672315293290     
  0.14040000000000002         -5.1417426322672206     
  0.14069999999999999         -3.5393710809254042     
  0.14100000000000001         -1.8023251973419496     
  0.14130000000000004         -2.1358982337315036E-002
  0.14160000000000000          1.7114998891855926     
  0.14189999999999997          3.3065479024267743     
  0.14219999999999999          4.6841662912318860     
  0.14250000000000002          5.7782359722525474     
  0.14279999999999998          6.5391079101864342     
  0.14310000000000000          6.9390884557632084     
  0.14339999999999997          6.9719443961255596     
  0.14369999999999999          6.6540226294565343     
  0.14400000000000002          6.0245814207859407     
  0.14429999999999998          5.1402670375753470     
  0.14460000000000001          4.0742898460638655     
  0.14490000000000003          2.9101229861056268     
  0.14520000000000000          1.7343370818996369     
  0.14550000000000002         0.63402872262439658     
  0.14579999999999999        -0.31207862271718106     
  0.14610000000000001         -1.0391622425388261     
  0.14640000000000003         -1.4988628342919832     
  0.14670000000000000         -1.6649381676065449     
  0.14699999999999996         -1.5345162342350518     
  0.14729999999999999         -1.1276264676079610     
  0.14760000000000001        -0.48644889618327014     
  0.14789999999999998         0.32786814137734227     
  0.14820000000000000          1.2399528812200291     