  -1.4999999999999999E-002     0.0000000000000000     
  -1.4700000000000000E-002    -2.0437047293085126E-005
  -1.4400000000000000E-002    -9.1439690816880523E-005
  -1.4100000000000000E-002    -7.3542838813259054E-005
  -1.3800000000000000E-002    -2.1683128552312152E-005
  -1.3500000000000000E-002     1.1940455819755758E-004
  -1.3200000000000000E-002     6.1189000866323595E-004
  -1.2899999999999998E-002     6.7573124567504546E-004
  -1.2600000000000000E-002     8.3308166147239699E-004
  -1.2299999999999998E-002     1.3523287621194507E-003
  -1.2000000000000000E-002     1.1443089980022667E-003
  -1.1699999999999999E-002     1.7697203228753755E-003
  -1.1399999999999999E-002     2.3548149294874360E-003
  -1.1099999999999999E-002     3.0977008345524589E-003
  -1.0799999999999999E-002     4.9699797293932309E-003
  -1.0499999999999999E-002     5.6640037593732456E-003
  -1.0199999999999999E-002     8.0551564977094404E-003
  -9.8999999999999991E-003     9.9114503701200445E-003
  -9.5999999999999992E-003     1.0306903111139758E-002
  -9.2999999999999992E-003     1.1170178325098579E-002
  -8.9999999999999993E-003     6.2031280265146599E-003
  -8.6999999999999994E-003    -2.9077448757991384E-003
  -8.3999999999999995E-003    -2.2411931303714418E-002
  -8.0999999999999996E-003    -5.9608838172471930E-002
  -7.7999999999999988E-003   -0.11714390807729612     
  -7.4999999999999997E-003   -0.21258488468066922     
  -7.1999999999999998E-003   -0.35390700770259337     
  -6.8999999999999981E-003   -0.56015739723862734     
  -6.5999999999999982E-003   -0.85551971638870217     
  -6.3000000000000000E-003    -1.2558244769373710     
  -6.0000000000000001E-003    -1.7954785248977190     
  -5.6999999999999985E-003    -2.4939529645271068     
  -5.3999999999999986E-003    -3.3751912192460156     
  -5.1000000000000004E-003    -4.4628875678955611     
  -4.7999999999999987E-003    -5.7551019901828164     
  -4.5000000000000005E-003    -7.2544773595838947     
  -4.1999999999999989E-003    -8.9286369037348710     
  -3.8999999999999990E-003    -10.723304151968444     
  -3.5999999999999990E-003    -12.564889304321820     
  -3.2999999999999991E-003    -14.329440439233332     
  -2.9999999999999992E-003    -15.879758157446403     
  -2.6999999999999993E-003    -17.039436549089569     
  -2.3999999999999994E-003    -17.608509179819428     
  -2.0999999999999977E-003    -17.391389851585956     
  -1.7999999999999995E-003    -16.180082192142240     
  -1.4999999999999979E-003    -13.806306560576676     
  -1.1999999999999997E-003    -10.144778768306885     
  -8.9999999999999976E-004    -5.1294611624078055     
  -5.9999999999999810E-004     1.2011445039981254     
  -2.9999999999999992E-004     8.7210454516083864     
   0.0000000000000000          17.186509219246055     
   3.0000000000000165E-004     26.238606638280114     
   5.9999999999999984E-004     35.433846725090859     
   9.0000000000000149E-004     44.237309731263728     
   1.2000000000000031E-003     52.079953448996484     
   1.5000000000000013E-003     58.392682268586121     
   1.8000000000000030E-003     62.637021149899162     
   2.1000000000000012E-003     64.380303323273907     
   2.3999999999999994E-003     63.310822249767874     
   2.7000000000000010E-003     59.283909356178249     
   2.9999999999999992E-003     52.353515919785238     
   3.3000000000000008E-003     42.751121588907608     
   3.6000000000000025E-003     30.908052289306891     
   3.9000000000000007E-003     17.407155624623520     
   4.2000000000000023E-003     2.9431466219581432     
   4.5000000000000005E-003    -11.708678019106340     
   4.7999999999999987E-003    -25.778986843321597     
   5.1000000000000004E-003    -38.536183376455966     
   5.4000000000000020E-003    -49.348549933816898     
   5.7000000000000037E-003    -57.734601152751289     
   5.9999999999999984E-003    -63.372220179675637     
   6.3000000000000000E-003    -66.131089330214522     
   6.6000000000000017E-003    -66.065178946579536     
   6.9000000000000034E-003    -63.386063583345496     
   7.2000000000000015E-003    -58.454262657265645     
   7.5000000000000032E-003    -51.724369829700613     
   7.8000000000000014E-003    -43.709061342147677     
   8.0999999999999996E-003    -34.947681989450842     
   8.4000000000000012E-003    -25.948103400104774     
   8.7000000000000029E-003    -17.171692231222895     
   9.0000000000000011E-003    -9.0067713186694682     
   9.2999999999999992E-003    -1.7380367619307522     
   9.6000000000000009E-003     4.4312080951745614     
   9.8999999999999991E-003     9.4020052373964393     
   1.0200000000000001E-002     13.161742323594877     
   1.0500000000000002E-002     15.755535294895733     
   1.0800000000000004E-002     17.302530505241595     
   1.1099999999999999E-002     17.941257727890623     
   1.1400000000000000E-002     17.836279188942061     
   1.1700000000000002E-002     17.165466598084357     
   1.2000000000000004E-002     16.080505664242377     
   1.2300000000000002E-002     14.738463693629974     
   1.2600000000000000E-002     13.262287424989191     
   1.2900000000000002E-002     11.748132022813982     
   1.3200000000000000E-002     10.284472722953669     
   1.3500000000000002E-002     8.9134562018971675     
   1.3800000000000003E-002     7.6755068115295808     
   1.4100000000000001E-002     6.5888769267681866     
   1.4400000000000000E-002     5.6475345520553955     
   1.4700000000000001E-002     4.8575646148169067     
   1.4999999999999999E-002     4.1966282420779875     
   1.5300000000000001E-002     3.6500712758499865     
   1.5600000000000003E-002     3.2055963280008144     
   1.5899999999999997E-002     2.8345178220664988     
   1.6199999999999999E-002     2.5298660739842580     
   1.6500000000000001E-002     2.2727020625244849     
   1.6800000000000002E-002     2.0483322873624492     
   1.7100000000000004E-002     1.8559659189562232     
   1.7400000000000006E-002     1.6802058799268031     
   1.7700000000000000E-002     1.5224706446144531     
   1.8000000000000002E-002     1.3819854726996517     
   1.8300000000000004E-002     1.2515591786382054     
   1.8600000000000005E-002     1.1399464980569052     
   1.8900000000000000E-002     1.0417794328176377     
   1.9200000000000002E-002    0.95784577776278990     
   1.9500000000000003E-002    0.89246657467479229     
   1.9799999999999998E-002    0.83656701148063195     
   2.0100000000000000E-002    0.79400196287704849     
   2.0400000000000001E-002    0.76000514215139037     
   2.0700000000000003E-002    0.72724565271504660     
   2.0999999999999998E-002    0.69827237173913448     
   2.1299999999999999E-002    0.66380854800004652     
   2.1600000000000001E-002    0.62271984647381029     
   2.1900000000000003E-002    0.57560434180059483     
   2.2200000000000004E-002    0.51600529776862103     
   2.2500000000000006E-002    0.44921590795697808     
   2.2800000000000001E-002    0.37422992555102841     
   2.3100000000000002E-002    0.29046957147545704     
   2.3400000000000004E-002    0.20509409696936207     
   2.3699999999999999E-002    0.11535702116350716     
   2.4000000000000000E-002     2.5240421852390105E-002
   2.4300000000000002E-002    -6.1422124443999727E-002
   2.4599999999999997E-002   -0.14836972992780789     
   2.4900000000000005E-002   -0.23024882731060622     
   2.5200000000000000E-002   -0.30819518024001252     
   2.5499999999999995E-002   -0.38455213185853993     
   2.5800000000000003E-002   -0.45404089782799906     
   2.6099999999999998E-002   -0.52147640405993267     
   2.6400000000000007E-002   -0.58463247538664620     
   2.6700000000000002E-002   -0.64070208911777404     
   2.6999999999999996E-002   -0.69504674627092189     
   2.7300000000000005E-002   -0.74097081470967974     
   2.7600000000000000E-002   -0.78163769388002025     
   2.7900000000000008E-002   -0.81839671467364838     
   2.8200000000000003E-002   -0.84563818230346866     
   2.8499999999999998E-002   -0.87107077010328116     
   2.8800000000000006E-002   -0.89002498737382751     
   2.9100000000000001E-002   -0.90345862150253509     
   2.9400000000000003E-002   -0.91627028302519176     
   2.9700000000000004E-002   -0.92196878342304756     
   3.0000000000000006E-002   -0.92650618673184204     
   3.0300000000000001E-002   -0.92769738532250956     
   3.0600000000000002E-002   -0.92286392394563299     
   3.0900000000000004E-002   -0.91693129524900485     
   3.1199999999999999E-002   -0.90443464422161779     
   3.1500000000000007E-002   -0.88765778387034411     
   3.1800000000000002E-002   -0.86809172536008417     
   3.2099999999999997E-002   -0.84156348510267220     
   3.2400000000000005E-002   -0.81306322634248640     
   3.2700000000000000E-002   -0.78116502588946901     
   3.3000000000000002E-002   -0.74460717139897725     
   3.3300000000000003E-002   -0.70813610267958549     
   3.3599999999999998E-002   -0.66769119098835938     
   3.3900000000000000E-002   -0.62463058874599409     
   3.4200000000000001E-002   -0.58089681266301441     
   3.4500000000000003E-002   -0.53150464661810737     
   3.4799999999999998E-002   -0.48086912879308075     
   3.5099999999999999E-002   -0.42713720931371774     
   3.5400000000000001E-002   -0.36829556122478491     
   3.5699999999999996E-002   -0.31058121793340332     
   3.6000000000000004E-002   -0.24964640456797688     
   3.6299999999999999E-002   -0.19010300235970215     
   3.6600000000000008E-002   -0.13567654131407422     
   3.6900000000000002E-002    -8.2271857997930992E-002
   3.7199999999999997E-002    -3.8657858177861083E-002
   3.7500000000000006E-002    -1.0962003648043220E-003
   3.7800000000000000E-002     3.0519492737146575E-002
   3.8100000000000009E-002     5.1961015742294794E-002
   3.8400000000000004E-002     7.2560152975336772E-002
   3.8699999999999998E-002     8.8797778876217315E-002
   3.9000000000000007E-002    0.10567511168628088     
   3.9300000000000002E-002    0.13014652536943647     
   3.9600000000000003E-002    0.15776277456694471     
   3.9900000000000005E-002    0.19699321392747227     
   4.0200000000000000E-002    0.24463526886939313     
   4.0500000000000001E-002    0.29671724177113601     
   4.0800000000000003E-002    0.35590879899803357     
   4.1100000000000005E-002    0.40898253239785326     
   4.1399999999999999E-002    0.45389472084077437     
   4.1700000000000008E-002    0.48448480763521490     
   4.2000000000000003E-002    0.48916090771782050     
   4.2299999999999997E-002    0.47193450834312184     
   4.2600000000000006E-002    0.42667222838519286     
   4.2900000000000001E-002    0.35775030153647780     
   4.3200000000000002E-002    0.27702606127033602     
   4.3500000000000004E-002    0.18869647522056696     
   4.3799999999999999E-002    0.11269623130817391     
   4.4100000000000000E-002     6.0726070219240057E-002
   4.4400000000000002E-002     4.2231269805488122E-002
   4.4700000000000004E-002     7.1675951691934914E-002
   4.4999999999999998E-002    0.14368956147368023     
   4.5300000000000000E-002    0.25583041184434696     
   4.5600000000000002E-002    0.39460176910986822     
   4.5899999999999996E-002    0.53344447060339906     
   4.6200000000000005E-002    0.65215773131036447     
   4.6500000000000000E-002    0.71845383129862395     
   4.6799999999999994E-002    0.70794326586511880     
   4.7100000000000003E-002    0.60558474502278981     
   4.7399999999999998E-002    0.39976191710367753     
   4.7700000000000006E-002    0.10085710877249979     
   4.8000000000000001E-002   -0.26989054815160246     
   4.8300000000000010E-002   -0.67943263393158138     
   4.8600000000000004E-002    -1.0778157747175505     
   4.8899999999999999E-002    -1.4156774316497780     
   4.9200000000000008E-002    -1.6415020256472974     
   4.9500000000000002E-002    -1.7079584600918163     
   4.9800000000000011E-002    -1.5881538371544568     
   5.0100000000000006E-002    -1.2677420325444271     
   5.0400000000000000E-002   -0.75627528667145039     
   5.0700000000000009E-002    -8.9888306810616672E-002
   5.1000000000000004E-002    0.68328578952643249     
   5.1299999999999998E-002     1.4919338427351392     
   5.1600000000000007E-002     2.2584057072907311     
   5.1900000000000002E-002     2.9097428567556589     
   5.2200000000000010E-002     3.3708567863407373     
   5.2500000000000005E-002     3.5926068069154451     
   5.2800000000000000E-002     3.5428388348653792     
   5.3099999999999994E-002     3.2119434069364776     
   5.3400000000000003E-002     2.6268875760389623     
   5.3699999999999998E-002     1.8265583623015575     
   5.4000000000000006E-002    0.87806916722912987     
   5.4300000000000001E-002   -0.13886636520718837     
   5.4599999999999996E-002    -1.1476501302572173     
   5.4900000000000004E-002    -2.0627994669312173     
   5.5199999999999999E-002    -2.8195421884058618     
   5.5499999999999994E-002    -3.3671243438831233     
   5.5800000000000002E-002    -3.6699581423723751     
   5.6099999999999997E-002    -3.7257354574207748     
   5.6400000000000006E-002    -3.5427346558497588     
   5.6700000000000000E-002    -3.1527846182762396     
   5.6999999999999995E-002    -2.6041891894601807     
   5.7300000000000004E-002    -1.9446010873147956     
   5.7599999999999998E-002    -1.2345458517465802     
   5.7900000000000007E-002   -0.52570196041829964     
   5.8200000000000002E-002    0.13749991428684727     
   5.8499999999999996E-002    0.71401028899407137     
   5.8800000000000005E-002     1.1826465097278149     
   5.9100000000000000E-002     1.5270506166718363     
   5.9400000000000008E-002     1.7420370641614935     
   5.9700000000000003E-002     1.8364596476006372     
   6.0000000000000012E-002     1.8177800313097321     
   6.0300000000000006E-002     1.7046617421731993     
   6.0600000000000001E-002     1.5171228815149935     
   6.0900000000000010E-002     1.2725250881227583     
   6.1200000000000004E-002    0.99502195499829471     
   6.1500000000000013E-002    0.70140971171593380     
   6.1800000000000008E-002    0.40989060395125637     
   6.2100000000000002E-002    0.13838934412551712     
   6.2399999999999997E-002   -0.10308878888706152     
   6.2700000000000006E-002   -0.30295836458001546     
   6.3000000000000000E-002   -0.45457973817091701     
   6.3300000000000009E-002   -0.55725502969571461     
   6.3600000000000004E-002   -0.61025285909206672     
   6.3899999999999998E-002   -0.61911148167826524     
   6.4199999999999993E-002   -0.59232700390801185     
   6.4500000000000002E-002   -0.53724951125274822     
   6.4800000000000010E-002   -0.46666086383064326     
   6.5100000000000005E-002   -0.38990706929083851     
   6.5400000000000000E-002   -0.31426338037186868     
   6.5700000000000008E-002   -0.24959196863035438     
   6.5999999999999989E-002   -0.19683820668341306     
   6.6299999999999998E-002   -0.15786839098864533     
   6.6600000000000006E-002   -0.13349707999658833     
   6.6900000000000001E-002   -0.11635661557571748     
   6.7199999999999996E-002   -0.10646074658271269     
   6.7500000000000004E-002    -9.7605202152343196E-002
   6.7800000000000013E-002    -8.4984043734879666E-002
   6.8099999999999994E-002    -7.1412938387462405E-002
   6.8400000000000002E-002    -5.0419819879029090E-002
   6.8700000000000011E-002    -2.7239507954068591E-002
   6.8999999999999992E-002    -4.0697971513320831E-003
   6.9300000000000000E-002     2.0531570601452009E-002
   6.9600000000000009E-002     3.7654432697093683E-002
   6.9900000000000004E-002     5.0870291717980055E-002
   7.0199999999999999E-002     5.7679299658716945E-002
   7.0500000000000007E-002     5.5922697794335167E-002
   7.0800000000000016E-002     5.2745097071833093E-002
   7.1099999999999997E-002     4.4646296954962625E-002
   7.1400000000000005E-002     3.7296678956251036E-002
   7.1700000000000000E-002     3.4601667205658007E-002
   7.1999999999999995E-002     3.2685935634914745E-002
   7.2300000000000003E-002     3.8325336768466146E-002
   7.2600000000000012E-002     4.7149718935340958E-002
   7.2900000000000006E-002     5.7313580517556473E-002
   7.3200000000000001E-002     7.1359055011172220E-002
   7.3499999999999996E-002     8.1192203927769310E-002
   7.3800000000000004E-002     8.9988531229493643E-002
   7.4099999999999999E-002     9.5880719470662859E-002
   7.4400000000000008E-002     9.5592411150006162E-002
   7.4700000000000003E-002     9.6067416836323777E-002
   7.5000000000000011E-002     9.3785795828304860E-002
   7.5299999999999992E-002     9.2711310380325498E-002
   7.5600000000000001E-002     9.7201642572054478E-002
   7.5900000000000009E-002    0.10337149017312661     
   7.6200000000000004E-002    0.11724352583864198     
   7.6499999999999999E-002    0.13529423422170456     
   7.6800000000000007E-002    0.15469891305118111     
   7.7099999999999988E-002    0.17748083763624645     
   7.7399999999999997E-002    0.19474486023810411     
   7.7700000000000005E-002    0.20756347983406873     
   7.8000000000000014E-002    0.21289203108888885     
   7.8299999999999995E-002    0.20589484685327708     
   7.8600000000000003E-002    0.19124179032026470     
   7.8900000000000012E-002    0.16550794608219416     
   7.9199999999999993E-002    0.13196236165462483     
   7.9500000000000001E-002     9.5097782882258106E-002
   7.9800000000000010E-002     5.3968598476143652E-002
   8.0100000000000018E-002     1.4984275940359112E-002
   8.0399999999999999E-002    -2.1357204634335786E-002
   8.0700000000000008E-002    -5.4630601197567553E-002
   8.1000000000000003E-002    -8.1317687015740631E-002
   8.1299999999999997E-002   -0.10481301950100107     
   8.1600000000000006E-002   -0.12418005201768073     
   8.1900000000000014E-002   -0.13981296468898924     
   8.2199999999999995E-002   -0.15464887462934154     
   8.2500000000000004E-002   -0.16642010658411510     
   8.2799999999999999E-002   -0.17609055795599626     
   8.3100000000000007E-002   -0.18350168068125947     
   8.3400000000000002E-002   -0.18557967699348868     
   8.3700000000000011E-002   -0.18324196787017677     
   8.4000000000000005E-002   -0.17466585775549834     
   8.4300000000000000E-002   -0.15857744580025582     
   8.4599999999999995E-002   -0.13736456995446125     
   8.4900000000000003E-002   -0.11011782585804127     
   8.5199999999999998E-002    -7.9834582801726756E-002
   8.5500000000000007E-002    -4.9706420371645750E-002
   8.5800000000000001E-002    -2.0210863611532983E-002
   8.6100000000000010E-002     4.1513948122844915E-003
   8.6399999999999991E-002     2.2292698718872340E-002
   8.6699999999999999E-002     3.4228212945699693E-002
   8.7000000000000008E-002     3.7750322182702752E-002
   8.7300000000000003E-002     3.5489857371794997E-002
   8.7599999999999997E-002     2.8629957425080906E-002
   8.7900000000000006E-002     1.7895551781763084E-002
   8.8200000000000014E-002     8.1255874419558453E-003
   8.8499999999999995E-002    -1.2945887925691760E-003
   8.8800000000000004E-002    -7.9469599020141491E-003
   8.9100000000000013E-002    -9.3088731943716703E-003
   8.9399999999999993E-002    -8.8634893206602922E-003
   8.9700000000000002E-002    -3.5155507334317594E-003
   9.0000000000000011E-002     4.0742377058585830E-003
   9.0299999999999991E-002     1.1484517436255450E-002
   9.0600000000000000E-002     2.1493589157606560E-002
   9.0900000000000009E-002     2.8678407050790236E-002
   9.1200000000000017E-002     3.5528254903211764E-002
   9.1499999999999998E-002     4.1954351509261238E-002
   9.1800000000000007E-002     4.5051002009815808E-002
   9.2100000000000001E-002     5.0260340792878333E-002
   9.2399999999999996E-002     5.3812665702742103E-002
   9.2700000000000005E-002     5.7314516383051642E-002
   9.3000000000000013E-002     6.3219154509478445E-002
   9.3300000000000008E-002     6.6321225148296803E-002
   9.3600000000000003E-002     7.0720651706024526E-002
   9.3899999999999997E-002     7.2941155690886605E-002
   9.4200000000000006E-002     7.0953220632404140E-002
   9.4500000000000001E-002     6.7703419574868529E-002
   9.4800000000000009E-002     5.7578489409718332E-002
   9.5100000000000004E-002     4.4118940862623975E-002
   9.5399999999999999E-002     2.7385929916273876E-002
   9.5699999999999993E-002     5.5325270815829919E-003
   9.6000000000000002E-002    -1.5456218533400476E-002
   9.6300000000000011E-002    -3.7301917229270495E-002
   9.6600000000000005E-002    -5.6917180439796683E-002
   9.6900000000000000E-002    -7.0708111524291337E-002
   9.7200000000000009E-002    -8.0756784706340262E-002
   9.7499999999999989E-002    -8.3485000992873579E-002
   9.7799999999999998E-002    -8.0122918852445504E-002
   9.8100000000000007E-002    -7.3044547545881452E-002
   9.8400000000000015E-002    -6.0620484165742110E-002
   9.8699999999999996E-002    -4.7378716480691564E-002
   9.9000000000000005E-002    -3.4355381332476453E-002
   9.9300000000000013E-002    -2.1495158962954009E-002
   9.9599999999999994E-002    -1.3062948094396268E-002
   9.9900000000000003E-002    -6.6491696125615153E-003
  0.10020000000000001         -3.0217609568402091E-003
  0.10049999999999999         -3.2945495817569255E-003
  0.10080000000000000         -3.1214980458322303E-003
  0.10110000000000001         -4.5940877347618973E-003
  0.10140000000000000         -5.9795490304999071E-003
  0.10170000000000000         -5.3666519923038381E-003
  0.10200000000000001         -6.1741991063023922E-003
  0.10230000000000002         -5.5857594294084906E-003
  0.10260000000000000         -5.7661819395012229E-003
  0.10290000000000001         -8.9509732845022803E-003
  0.10320000000000000         -1.1879955020054286E-002
  0.10350000000000001         -1.8697162031994438E-002
  0.10380000000000000         -2.7184651254626151E-002
  0.10410000000000001         -3.4903116568620447E-002
  0.10440000000000001         -4.4528131172872791E-002
  0.10470000000000000         -4.9640264333157116E-002
  0.10500000000000000         -5.1701251132777286E-002
  0.10530000000000000         -4.9920953935327535E-002
  0.10560000000000000         -4.0015294095559949E-002
  0.10590000000000001         -2.7604100792063400E-002
  0.10620000000000000         -9.2554698583077518E-003
  0.10650000000000001          1.2143511887498126E-002
  0.10679999999999999          3.1603098557451588E-002
  0.10710000000000000          5.2432274259670009E-002
  0.10740000000000001          6.7317561615774499E-002
  0.10770000000000000          7.7440352290827186E-002
  0.10800000000000000          8.3674924497001160E-002
  0.10830000000000001          8.1582263994240581E-002
  0.10859999999999999          7.7690163354003638E-002
  0.10890000000000000          6.9368751313149166E-002
  0.10920000000000001          5.8711123523441010E-002
  0.10950000000000001          5.0623187669679381E-002
  0.10979999999999999          4.0909637541669971E-002
  0.11009999999999999          3.4938928778460880E-002
  0.11040000000000001          3.0944974500652252E-002
  0.11070000000000001          2.6777567836064966E-002
  0.11100000000000000          2.5809712007843297E-002
  0.11130000000000000          2.2891572463860088E-002
  0.11160000000000002          1.9746522083063576E-002
  0.11190000000000001          1.6479582742082135E-002
  0.11220000000000001          1.0505292146467863E-002
  0.11250000000000000          6.1735223147373125E-003
  0.11280000000000000          1.8131997494099678E-003
  0.11309999999999999         -1.0920630914337600E-003
  0.11340000000000001          3.0115056864043788E-004
  0.11369999999999998          3.8605533523785912E-003
  0.11400000000000000          1.1716956476428179E-002
  0.11430000000000000          2.2876085191755990E-002
  0.11460000000000002          3.4842145657869486E-002
  0.11489999999999999          4.7892191661061283E-002
  0.11520000000000001          5.8475465667502870E-002
  0.11550000000000001          6.4760462108907887E-002
  0.11580000000000000          6.6996098511175120E-002
  0.11609999999999999          6.1913721790637401E-002
  0.11640000000000002          5.1030390245543067E-002
  0.11670000000000001          3.5348449402479415E-002
  0.11700000000000001          1.4457380172206640E-002
  0.11730000000000000         -7.0544617179351919E-003
  0.11760000000000000         -2.9041769396487560E-002
  0.11789999999999999         -4.9300906222628400E-002
  0.11820000000000001         -6.4881102024445469E-002
  0.11850000000000001         -7.7398756019855658E-002
  0.11880000000000000         -8.4692159332734246E-002
  0.11910000000000000         -8.7715962505846637E-002
  0.11940000000000002         -8.8834719921906100E-002
  0.11970000000000001         -8.6639227229848542E-002
  0.12000000000000001         -8.4435300888859088E-002
  0.12030000000000000         -8.2274856232978755E-002
  0.12060000000000000         -7.9009675942717975E-002
  0.12089999999999999         -7.6939770878917374E-002
  0.12119999999999999         -7.2790266454152666E-002
  0.12150000000000001         -6.7104981441144740E-002
  0.12180000000000001         -5.9837942393334467E-002
  0.12210000000000000         -4.8330762229769279E-002
  0.12239999999999999         -3.5350264056000100E-002
  0.12270000000000002         -1.9985021023172258E-002
  0.12300000000000001         -3.6751254452395497E-003
  0.12330000000000001          1.0411970263140339E-002
  0.12360000000000000          2.2634567005425727E-002
  0.12390000000000000          2.9693189185738548E-002
  0.12419999999999999          3.1122102353851603E-002
  0.12450000000000001          2.7369997649982405E-002
  0.12480000000000001          1.7459425120346407E-002
  0.12509999999999999          3.9397459624395887E-003
  0.12540000000000001         -1.1622583369748640E-002
  0.12570000000000003         -2.7619252933633397E-002
  0.12600000000000000         -4.1350101054848744E-002
  0.12630000000000002         -5.1730257435688612E-002
  0.12659999999999999         -5.7944071539828730E-002
  0.12690000000000001         -5.9601922580099949E-002
  0.12719999999999998         -5.7599817540822225E-002
  0.12750000000000000         -5.3341464478070637E-002
  0.12780000000000002         -4.7370423785372762E-002
  0.12809999999999999         -4.1995455865453848E-002
  0.12840000000000001         -3.7558881175381004E-002
  0.12869999999999998         -3.3598729562020681E-002
  0.12900000000000000         -3.1816267954185427E-002
  0.12930000000000003         -2.9117443779792120E-002
  0.12959999999999999         -2.5798426059434349E-002
  0.12990000000000002         -2.1104785846597456E-002
  0.13019999999999998         -1.2067316545528088E-002
  0.13050000000000000         -1.5957207029653050E-003
  0.13080000000000003          1.2644453574667047E-002
  0.13109999999999999          2.8684929179254234E-002
  0.13140000000000002          4.3325107342086951E-002
  0.13169999999999998          5.8490612339596883E-002
  0.13200000000000001          6.8835095205416919E-002
  0.13229999999999997          7.5370081562212143E-002
  0.13260000000000000          7.8116537802570649E-002
  0.13290000000000002          7.4281984216955754E-002
  0.13319999999999999          6.9296958157212693E-002
  0.13350000000000001          6.1127888280792790E-002
  0.13380000000000003          5.2778756385293342E-002
  0.13410000000000000          4.7936554209352750E-002
  0.13440000000000002          4.4016251801509441E-002
  0.13469999999999999          4.5963085328338205E-002
  0.13500000000000001          5.1562379328070326E-002
  0.13529999999999998          5.9683914032235823E-002
  0.13560000000000000          7.2085272020266891E-002
  0.13590000000000002          8.3217832159428490E-002
  0.13619999999999999          9.4479451840685152E-002
  0.13650000000000001         0.10381359174753170     
  0.13680000000000003         0.10806203868084734     
  0.13710000000000000         0.11065705412658045     
  0.13740000000000002         0.10817256828934717     
  0.13769999999999999         0.10270477312592870     
  0.13800000000000001          9.6248197279821313E-002
  0.13829999999999998          8.6742373264183215E-002
  0.13860000000000000          7.8340599591150861E-002
  0.13890000000000002          6.9289894796172410E-002
  0.13919999999999999          5.9598171531517918E-002
  0.13950000000000001          5.0918625326033966E-002
  0.13979999999999998          4.0019576395730679E-002
  0.14010000000000000          2.8417545065658762E-002
  0.14040000000000002          1.5245652438589849E-002
  0.14069999999999999         -8.0158405643219988E-004
  0.14100000000000001         -1.7211107504364286E-002
  0.14130000000000004         -3.4762032538884671E-002
  0.14160000000000000         -5.1784895913417804E-002
  0.14189999999999997         -6.5829486056914119E-002
  0.14219999999999999         -7.6877505322961961E-002
  0.14250000000000002         -8.2583808196157391E-002
  0.14279999999999998         -8.2363837150247504E-002
  0.14310000000000000         -7.7196792704760889E-002
  0.14339999999999997         -6.6499062769657682E-002
  0.14369999999999999         -5.2187253536918214E-002
  0.14400000000000002         -3.6705509860241167E-002
  0.14429999999999998         -2.0541242085376138E-002
  0.14460000000000001         -7.2553165768286885E-003
  0.14490000000000003          2.3133613416051854E-003
  0.14520000000000000          7.7913408243570426E-003
  0.14550000000000002          6.8304879468365784E-003
  0.14579999999999999          2.1735088607419987E-003
  0.14610000000000001         -6.6606892200434271E-003
  0.14640000000000003         -1.9080453665895832E-002
  0.14670000000000000         -3.1462882387717585E-002
  0.14699999999999996         -4.5535655009590607E-002
  0.14729999999999999         -5.8473242050501403E-002
  0.14760000000000001         -6.9672921161545776E-002
  0.14789999999999998         -8.1185909312746496E-002
  0.14820000000000000         -9.0062776703453834E-002