  -1.4999999999999999E-002     0.0000000000000000     
  -1.4700000000000000E-002     0.0000000000000000     
  -1.4400000000000000E-002     0.0000000000000000     
  -1.4100000000000000E-002     0.0000000000000000     
  -1.3800000000000000E-002     0.0000000000000000     
  -1.3500000000000000E-002     0.0000000000000000     
  -1.3200000000000000E-002     0.0000000000000000     
  -1.2899999999999998E-002     0.0000000000000000     
  -1.2600000000000000E-002     0.0000000000000000     
  -1.2299999999999998E-002     0.0000000000000000     
  -1.2000000000000000E-002     0.0000000000000000     
  -1.1699999999999999E-002     0.0000000000000000     
  -1.1399999999999999E-002     0.0000000000000000     
  -1.1099999999999999E-002     0.0000000000000000     
  -1.0799999999999999E-002     0.0000000000000000     
  -1.0499999999999999E-002     0.0000000000000000     
  -1.0199999999999999E-002     0.0000000000000000     
  -9.8999999999999991E-003     0.0000000000000000     
  -9.5999999999999992E-003     0.0000000000000000     
  -9.2999999999999992E-003     0.0000000000000000     
  -8.9999999999999993E-003     0.0000000000000000     
  -8.6999999999999994E-003     0.0000000000000000     
  -8.3999999999999995E-003     0.0000000000000000     
  -8.0999999999999996E-003     0.0000000000000000     
  -7.7999999999999988E-003     0.0000000000000000     
  -7.4999999999999997E-003     0.0000000000000000     
  -7.1999999999999998E-003     0.0000000000000000     
  -6.8999999999999981E-003     0.0000000000000000     
  -6.5999999999999982E-003     0.0000000000000000     
  -6.3000000000000000E-003     0.0000000000000000     
  -6.0000000000000001E-003     0.0000000000000000     
  -5.6999999999999985E-003     0.0000000000000000     
  -5.3999999999999986E-003     0.0000000000000000     
  -5.1000000000000004E-003     0.0000000000000000     
  -4.7999999999999987E-003     0.0000000000000000     
  -4.5000000000000005E-003     0.0000000000000000     
  -4.1999999999999989E-003     0.0000000000000000     
  -3.8999999999999990E-003     0.0000000000000000     
  -3.5999999999999990E-003     0.0000000000000000     
  -3.2999999999999991E-003     0.0000000000000000     
  -2.9999999999999992E-003     0.0000000000000000     
  -2.6999999999999993E-003     0.0000000000000000     
  -2.3999999999999994E-003     0.0000000000000000     
  -2.0999999999999977E-003     0.0000000000000000     
  -1.7999999999999995E-003     0.0000000000000000     
  -1.4999999999999979E-003     0.0000000000000000     
  -1.1999999999999997E-003     0.0000000000000000     
  -8.9999999999999976E-004     0.0000000000000000     
  -5.9999999999999810E-004     0.0000000000000000     
  -2.9999999999999992E-004     0.0000000000000000     
   0.0000000000000000          0.0000000000000000     
   3.0000000000000165E-004     0.0000000000000000     
   5.9999999999999984E-004     0.0000000000000000     
   9.0000000000000149E-004     0.0000000000000000     
   1.2000000000000031E-003     0.0000000000000000     
   1.5000000000000013E-003     0.0000000000000000     
   1.8000000000000030E-003     0.0000000000000000     
   2.1000000000000012E-003     0.0000000000000000     
   2.3999999999999994E-003     0.0000000000000000     
   2.7000000000000010E-003     0.0000000000000000     
   2.9999999999999992E-003     0.0000000000000000     
   3.3000000000000008E-003     0.0000000000000000     
   3.6000000000000025E-003     0.0000000000000000     
   3.9000000000000007E-003     0.0000000000000000     
   4.2000000000000023E-003     0.0000000000000000     
   4.5000000000000005E-003     0.0000000000000000     
   4.7999999999999987E-003     0.0000000000000000     
   5.1000000000000004E-003     0.0000000000000000     
   5.4000000000000020E-003     0.0000000000000000     
   5.7000000000000037E-003    -2.0067631358319897E-045
   5.9999999999999984E-003    -6.3199108039025294E-044
   6.3000000000000000E-003     1.1187521148825936E-037
   6.6000000000000017E-003     3.7560100610361566E-035
   6.9000000000000034E-003    -2.6422651689085406E-034
   7.2000000000000015E-003    -1.8766011769890530E-033
   7.5000000000000032E-003     2.2384595905558666E-032
   7.8000000000000014E-003    -2.2693095414023151E-032
   8.0999999999999996E-003    -7.9088024476124431E-031
   8.4000000000000012E-003     4.7007399092832593E-030
   8.7000000000000029E-003     1.0164102732374894E-030
   9.0000000000000011E-003    -1.3266244669292437E-028
   9.2999999999999992E-003     6.3845141545048215E-028
   9.6000000000000009E-003    -3.6576977224005544E-028
   9.8999999999999991E-003    -1.0213080203860559E-026
   1.0200000000000001E-002     5.6217246775254538E-026
   1.0500000000000002E-002    -1.1999331564761393E-025
   1.0800000000000004E-002    -1.7375124653477908E-025
   1.1099999999999999E-002     2.2156404514322639E-024
   1.1400000000000000E-002    -8.1658895563683330E-024
   1.1700000000000002E-002     1.5055541100743895E-023
   1.2000000000000004E-002     3.3129673868479954E-024
   1.2300000000000002E-002    -1.1473176460831798E-022
   1.2600000000000000E-002     3.5955579621345604E-022
   1.2900000000000002E-002    -3.6087710873734947E-022
   1.3200000000000000E-002    -1.6595446798885586E-021
   1.3500000000000002E-002     9.9526343487461046E-021
   1.3800000000000003E-002    -2.8637173318868521E-020
   1.4100000000000001E-002     4.3780169969339108E-020
   1.4400000000000000E-002     3.2009931541261859E-020
   1.4700000000000001E-002    -4.6360575618115175E-019
   1.4999999999999999E-002     1.7289493369701411E-018
   1.5300000000000001E-002    -3.9136508472371753E-018
   1.5600000000000003E-002     4.3858468663468309E-018
   1.5899999999999997E-002     1.4074752835282551E-018
   1.6199999999999999E-002     4.7506253987563635E-017
   1.6500000000000001E-002    -8.2321801147204054E-016
   1.6800000000000002E-002     6.5995628288154510E-015
   1.7100000000000004E-002    -3.7861460238694301E-014
   1.7400000000000006E-002     1.7130581926342697E-013
   1.7700000000000000E-002    -6.1753198978519795E-013
   1.8000000000000002E-002     1.6778380448513610E-012
   1.8300000000000004E-002    -2.7058593114341729E-012
   1.8600000000000005E-002    -2.0152808009136326E-012
   1.8900000000000000E-002     2.9784483735900465E-011
   1.9200000000000002E-002    -9.6204406706993194E-011
   1.9500000000000003E-002     1.1978779161739014E-010
   1.9799999999999998E-002     2.3540724761440539E-010
   2.0100000000000000E-002    -1.2366312958098526E-009
   2.0400000000000001E-002     1.3695942721042633E-009
   2.0700000000000003E-002     3.5283458912203001E-009
   2.0999999999999998E-002    -1.0680447409684560E-008
   2.1299999999999999E-002    -4.0881075748096326E-009
   2.1600000000000001E-002     4.3942054788683172E-008
   2.1900000000000003E-002    -9.3989309512511477E-010
   2.2200000000000004E-002    -1.6427747957559425E-007
   2.2500000000000006E-002    -6.1136421197396374E-008
   2.2800000000000001E-002     4.5500647590637398E-007
   2.3100000000000002E-002     4.6026727411307254E-007
   2.3400000000000004E-002    -8.4051970563873913E-007
   2.3699999999999999E-002    -1.7469982447701708E-006
   2.4000000000000000E-002     1.0284887595509803E-006
   2.4300000000000002E-002     7.7478698075573352E-006
   2.4599999999999997E-002     1.4183521546623669E-005
   2.4900000000000005E-002     1.7569039909871849E-005
   2.5200000000000000E-002     2.2829375066161063E-005
   2.5499999999999995E-002     3.9246587146312110E-005
   2.5800000000000003E-002     7.0823675188797270E-005
   2.6099999999999998E-002     1.1441298336244109E-004
   2.6400000000000007E-002     1.7018080342199725E-004
   2.6700000000000002E-002     2.5111442119945274E-004
   2.6999999999999996E-002     3.7852080173160924E-004
   2.7300000000000005E-002     5.7032976686956813E-004
   2.7600000000000000E-002     8.4036761451995571E-004
   2.7900000000000008E-002     1.2114225849585425E-003
   2.8200000000000003E-002     1.7244731616732913E-003
   2.8499999999999998E-002     2.4318221865792188E-003
   2.8800000000000006E-002     3.3858184852629098E-003
   2.9100000000000001E-002     4.6405437250372512E-003
   2.9400000000000003E-002     6.2628838614606280E-003
   2.9700000000000004E-002     8.3339370652944569E-003
   3.0000000000000006E-002     1.0934943999470027E-002
   3.0300000000000001E-002     1.4133529390761535E-002
   3.0600000000000002E-002     1.7980679422676660E-002
   3.0900000000000004E-002     2.2509827642707186E-002
   3.1199999999999999E-002     2.7724483273507666E-002
   3.1500000000000007E-002     3.3576219404127979E-002
   3.1800000000000002E-002     3.9945552937996433E-002
   3.2099999999999997E-002     4.6636449790235679E-002
   3.2400000000000005E-002     5.3374709974726112E-002
   3.2700000000000000E-002     5.9800470457553254E-002
   3.3000000000000002E-002     6.5462363901910167E-002
   3.3300000000000003E-002     6.9829141573733003E-002
   3.3599999999999998E-002     7.2317843986536526E-002
   3.3900000000000000E-002     7.2334011684173527E-002
   3.4200000000000001E-002     6.9310022202173499E-002
   3.4500000000000003E-002     6.2749845704012028E-002
   3.4799999999999998E-002     5.2289521342158182E-002
   3.5099999999999999E-002     3.7756042920083853E-002
   3.5400000000000001E-002     1.9221092477784939E-002
   3.5699999999999996E-002    -2.9622672300460293E-003
   3.6000000000000004E-002    -2.8147916976852632E-002
   3.6299999999999999E-002    -5.5401894142845159E-002
   3.6600000000000008E-002    -8.3531280943987748E-002
   3.6900000000000002E-002   -0.11113294682741130     
   3.7199999999999997E-002   -0.13668831822477953     
   3.7500000000000006E-002   -0.15868849614964800     
   3.7800000000000000E-002   -0.17574306819831240     
   3.8100000000000009E-002   -0.18668312772371531     
   3.8400000000000004E-002   -0.19068522169076307     
   3.8699999999999998E-002   -0.18737053280214169     
   3.9000000000000007E-002   -0.17684235591594691     
   3.9300000000000002E-002   -0.15971411222721255     
   3.9600000000000003E-002   -0.13709060360720352     
   3.9900000000000005E-002   -0.11049329818216032     
   4.0200000000000000E-002    -8.1739876798916589E-002
   4.0500000000000001E-002    -5.2848127989460682E-002
   4.0800000000000003E-002    -2.5895048182619475E-002
   4.1100000000000005E-002    -2.8419498063759763E-003
   4.1399999999999999E-002     1.4593222334283956E-002
   4.1700000000000008E-002     2.5054666812094856E-002
   4.2000000000000003E-002     2.7617938208252805E-002
   4.2299999999999997E-002     2.1849871896999142E-002
   4.2600000000000006E-002     7.8494646812570616E-003
   4.2900000000000001E-002    -1.3765848245328690E-002
   4.3200000000000002E-002    -4.1908457228258783E-002
   4.3500000000000004E-002    -7.5065946598429689E-002
   4.3799999999999999E-002   -0.11138716098303653     
   4.4100000000000000E-002   -0.14877196803573328     
   4.4400000000000002E-002   -0.18496219370074798     
   4.4700000000000004E-002   -0.21764732359644803     
   4.4999999999999998E-002   -0.24457108356748253     
   4.5300000000000000E-002   -0.26366519250366866     
   4.5600000000000002E-002   -0.27315523508694589     
   4.5899999999999996E-002   -0.27166026114914799     
   4.6200000000000005E-002   -0.25829540996614664     
   4.6500000000000000E-002   -0.23274158808547560     
   4.6799999999999994E-002   -0.19527200829260541     
   4.7100000000000003E-002   -0.14678586623529224     
   4.7399999999999998E-002    -8.8774954372765918E-002
   4.7700000000000006E-002    -2.3222905914417901E-002
   4.8000000000000001E-002     4.7528273015110999E-002
   4.8300000000000010E-002    0.12091292104402078     
   4.8600000000000004E-002    0.19432193991711841     
   4.8899999999999999E-002    0.26526551703344375     
   4.9200000000000008E-002    0.33154456888892664     
   4.9500000000000002E-002    0.39138661731118896     
   4.9800000000000011E-002    0.44352595770378311     
   5.0100000000000006E-002    0.48723115168791381     
   5.0400000000000000E-002    0.52225653872466726     
   5.0700000000000009E-002    0.54880832107462829     
   5.1000000000000004E-002    0.56741915562873502     
   5.1299999999999998E-002    0.57878015822141904     
   5.1600000000000007E-002    0.58359311391782975     
   5.1900000000000002E-002    0.58243809510201983     
   5.2200000000000010E-002    0.57570908846446189     
   5.2500000000000005E-002    0.56354741661568541     
   5.2800000000000000E-002    0.54578290830192455     
   5.3099999999999994E-002    0.52196465440078166     
   5.3400000000000003E-002    0.49147559784888750     
   5.3699999999999998E-002    0.45369176744736289     
   5.4000000000000006E-002    0.40808899997315440     
   5.4300000000000001E-002    0.35435177825600250     
   5.4599999999999996E-002    0.29252838206535864     
   5.4900000000000004E-002    0.22315958943582356     
   5.5199999999999999E-002    0.14731299403876513     
   5.5499999999999994E-002     6.6576478472136977E-002
   5.5800000000000002E-002    -1.6965392902548615E-002
   5.6099999999999997E-002   -0.10082459189764910     
   5.6400000000000006E-002   -0.18224431064129321     
   5.6700000000000000E-002   -0.25839736308429456     
   5.6999999999999995E-002   -0.32654305324321803     
   5.7300000000000004E-002   -0.38421829376250444     
   5.7599999999999998E-002   -0.42942385552293544     
   5.7900000000000007E-002   -0.46073035959620945     
   5.8200000000000002E-002   -0.47740985449475132     
   5.8499999999999996E-002   -0.47947137033892134     
   5.8800000000000005E-002   -0.46758247914346190     
   5.9100000000000000E-002   -0.44303025377651239     
   5.9400000000000008E-002   -0.40769507172111802     
   5.9700000000000003E-002   -0.36383058453219080     
   6.0000000000000012E-002   -0.31385915469947878     
   6.0300000000000006E-002   -0.26022153273896986     
   6.0600000000000001E-002   -0.20528742042943640     
   6.0900000000000010E-002   -0.15125605026846087     
   6.1200000000000004E-002   -0.10005962595167345     
   6.1500000000000013E-002    -5.3316614685032911E-002
   6.1800000000000008E-002    -1.2325674962285108E-002
   6.2100000000000002E-002     2.1883688799634725E-002
   6.2399999999999997E-002     4.8433807556400865E-002
   6.2700000000000006E-002     6.6562254110801009E-002
   6.3000000000000000E-002     7.5650218649436246E-002
   6.3300000000000009E-002     7.5219657033873621E-002
   6.3600000000000004E-002     6.4960572962848101E-002
   6.3899999999999998E-002     4.4771612458874156E-002
   6.4199999999999993E-002     1.4880174675960449E-002
   6.4500000000000002E-002    -2.3969669558988591E-002
   6.4800000000000010E-002    -7.0404171067667831E-002
   6.5100000000000005E-002   -0.12241612860365579     
   6.5400000000000000E-002   -0.17732470787129631     
   6.5700000000000008E-002   -0.23179338252120457     
   6.5999999999999989E-002   -0.28197997021190457     
   6.6299999999999998E-002   -0.32382111812294928     
   6.6600000000000006E-002   -0.35339527288028177     
   6.6900000000000001E-002   -0.36726124982918351     
   6.7199999999999996E-002   -0.36277397372797870     
   6.7500000000000004E-002   -0.33850236690208729     
   6.7800000000000013E-002   -0.29455589328278664     
   6.8099999999999994E-002   -0.23276600984164350     
   6.8400000000000002E-002   -0.15673186845002637     
   6.8700000000000011E-002    -7.1599815948706208E-002
   6.8999999999999992E-002     1.6187351408411588E-002
   6.9300000000000000E-002     9.9258293886701376E-002
   6.9600000000000009E-002    0.16986439671411205     
   6.9900000000000004E-002    0.22059611358670081     
   7.0199999999999999E-002    0.24506650153974391     
   7.0500000000000007E-002    0.23848819016563616     
   7.0800000000000016E-002    0.19817610952293629     
   7.1099999999999997E-002    0.12399674523379912     
   7.1400000000000005E-002     1.8561967193181532E-002
   7.1700000000000000E-002   -0.11284641687558299     
   7.1999999999999995E-002   -0.26245226787522580     
   7.2300000000000003E-002   -0.42043869549460589     
   7.2600000000000012E-002   -0.57566498099669894     
   7.2900000000000006E-002   -0.71644089555124257     
   7.3200000000000001E-002   -0.83130571801631015     
   7.3499999999999996E-002   -0.90989545269143779     
   7.3800000000000004E-002   -0.94370290772335319     
   7.4099999999999999E-002   -0.92678335447499161     
   7.4400000000000008E-002   -0.85621670192284216     
   7.4700000000000003E-002   -0.73230562248460795     
   7.5000000000000011E-002   -0.55858741333829542     
   7.5299999999999992E-002   -0.34164242709649462     
   7.5600000000000001E-002    -9.0779396544302532E-002
   7.5900000000000009E-002    0.18252101195844139     
   7.6200000000000004E-002    0.46536232808207073     
   7.6499999999999999E-002    0.74406544274477815     
   7.6800000000000007E-002     1.0047913499655663     
   7.7099999999999988E-002     1.2343157166505843     
   7.7399999999999997E-002     1.4206981235224458     
   7.7700000000000005E-002     1.5538163909368128     
   7.8000000000000014E-002     1.6258452637639067     
   7.8299999999999995E-002     1.6316824653761528     
   7.8600000000000003E-002     1.5693138356912821     
   7.8900000000000012E-002     1.4399899993315184     
   7.9199999999999993E-002     1.2482603402692889     
   7.9500000000000001E-002     1.0019709752741031     
   7.9800000000000010E-002    0.71192578230775994     
   8.0100000000000018E-002    0.39146773751635378     
   8.0399999999999999E-002     5.5950412042130956E-002
   8.0700000000000008E-002   -0.27820234710052821     
   8.1000000000000003E-002   -0.59445200611013138     
   8.1299999999999997E-002   -0.87700704126540752     
   8.1600000000000006E-002    -1.1117827562143396     
   8.1900000000000014E-002    -1.2874691103377436     
   8.2199999999999995E-002    -1.3962498487674522     
   8.2500000000000004E-002    -1.4340923597609274     
   8.2799999999999999E-002    -1.4008655130817353     
   8.3100000000000007E-002    -1.3004196494400235     
   8.3400000000000002E-002    -1.1401365654410469     
   8.3700000000000011E-002   -0.93009874406738913     
   8.4000000000000005E-002   -0.68221203393900398     
   8.4300000000000000E-002   -0.40931676527543853     
   8.4599999999999995E-002   -0.12432346767207163     
   8.4900000000000003E-002    0.16062387477996126     
   8.5199999999999998E-002    0.43480168643022532     
   8.5500000000000007E-002    0.68935756018502770     
   8.5800000000000001E-002    0.91748282785067281     
   8.6100000000000010E-002     1.1142339399192807     
   8.6399999999999991E-002     1.2762896660558778     
   8.6699999999999999E-002     1.4017363395771512     
   8.7000000000000008E-002     1.4895871460039734     
   8.7300000000000003E-002     1.5393726391625455     
   8.7599999999999997E-002     1.5508774078740837     
   8.7900000000000006E-002     1.5239618580723164     
   8.8200000000000014E-002     1.4584749516037401     
   8.8499999999999995E-002     1.3543593488185508     
   8.8800000000000004E-002     1.2119358419281614     
   8.9100000000000013E-002     1.0320968316728616     
   8.9399999999999993E-002    0.81652895066042863     
   8.9700000000000002E-002    0.56803260385658272     
   9.0000000000000011E-002    0.29070069310691027     
   9.0299999999999991E-002    -1.0004201372717439E-002
   9.0600000000000000E-002   -0.32731675421774575     
   9.0900000000000009E-002   -0.65329442787975989     
   9.1200000000000017E-002   -0.97900316530336839     
   9.1499999999999998E-002    -1.2949007399818042     
   9.1800000000000007E-002    -1.5912191430263036     
   9.2100000000000001E-002    -1.8582701165643256     
   9.2399999999999996E-002    -2.0867230305789719     
   9.2700000000000005E-002    -2.2679108931455403     
   9.3000000000000013E-002    -2.3941625867125360     
   9.3300000000000008E-002    -2.4591268789438541     
   9.3600000000000003E-002    -2.4579037913482500     
   9.3899999999999997E-002    -2.3871855046534769     
   9.4200000000000006E-002    -2.2454497162706479     
   9.4500000000000001E-002    -2.0331985357069775     
   9.4800000000000009E-002    -1.7531653126820006     
   9.5100000000000004E-002    -1.4103514727963107     
   9.5399999999999999E-002    -1.0120054174868343     
   9.5699999999999993E-002   -0.56757114482532922     
   9.6000000000000002E-002    -8.8634203012315185E-002
   9.6300000000000011E-002    0.41138782163342835     
   9.6600000000000005E-002    0.91770527370830335     
   9.6900000000000000E-002     1.4148537732549007     
   9.7200000000000009E-002     1.8872079332765255     
   9.7499999999999989E-002     2.3194090677514705     
   9.7799999999999998E-002     2.6971322735947014     
   9.8100000000000007E-002     3.0078288661002599     
   9.8400000000000015E-002     3.2410251174101545     
   9.8699999999999996E-002     3.3884557709067011     
   9.9000000000000005E-002     3.4442528687242286     
   9.9300000000000013E-002     3.4051159826150590     
   9.9599999999999994E-002     3.2701050282008137     
   9.9900000000000003E-002     3.0402449669681388     
  0.10020000000000001          2.7185870798442480     
  0.10049999999999999          2.3102142124042699     
  0.10080000000000000          1.8220318009841923     
  0.10110000000000001          1.2628017281119599     
  0.10140000000000000         0.64343474288953784     
  0.10170000000000000         -2.2693746154382261E-002
  0.10200000000000001        -0.71966413612080071     
  0.10230000000000002         -1.4288973394546429     
  0.10260000000000000         -2.1290728424544145     
  0.10290000000000001         -2.7964710370828048     
  0.10320000000000000         -3.4055875734674514     
  0.10350000000000001         -3.9300841135607660     
  0.10380000000000000         -4.3439277334881812     
  0.10410000000000001         -4.6227730360053485     
  0.10440000000000001         -4.7456744726865185     
  0.10470000000000000         -4.6967862683482453     
  0.10500000000000000         -4.4669550571162500     
  0.10530000000000000         -4.0549935144373732     
  0.10560000000000000         -3.4684754830187647     
  0.10590000000000001         -2.7242769445773871     
  0.10620000000000000         -1.8486510024953480     
  0.10650000000000001        -0.87637750238039147     
  0.10679999999999999         0.15087231072838483     
  0.10710000000000000          1.1866964904737054     
  0.10740000000000001          2.1821660324254322     
  0.10770000000000000          3.0883831053520003     
  0.10800000000000000          3.8596323785085254     
  0.10830000000000001          4.4565075533959684     
  0.10859999999999999          4.8483742276101705     
  0.10890000000000000          5.0150655277204477     
  0.10920000000000001          4.9480722947805207     
  0.10950000000000001          4.6514390613388157     
  0.10979999999999999          4.1417125530456866     
  0.11009999999999999          3.4464937726554852     
  0.11040000000000001          2.6024145416014184     
  0.11070000000000001          1.6530942528511872     
  0.11100000000000000         0.64676510273439203     
  0.11130000000000000        -0.36670548880349091     
  0.11160000000000002         -1.3389316348000035     
  0.11190000000000001         -2.2253133563742908     
  0.11220000000000001         -2.9868341991459313     
  0.11250000000000000         -3.5918218053893143     
  0.11280000000000000         -4.0173581897088493     
  0.11309999999999999         -4.2497938886933300     
  0.11340000000000001         -4.2847985056604205     
  0.11369999999999998         -4.1271213384213929     
  0.11400000000000000         -3.7899989091423891     
  0.11430000000000000         -3.2942847365687138     
  0.11460000000000002         -2.6670820055126909     
  0.11489999999999999         -1.9403095983558913     
  0.11520000000000001         -1.1492581129775217     
  0.11550000000000001        -0.33072781369919180     
  0.11580000000000000         0.47891769874128604     
  0.11609999999999999          1.2454098075684870     
  0.11640000000000002          1.9381076729734159     
  0.11670000000000001          2.5314854871808983     
  0.11700000000000001          3.0064589161970212     
  0.11730000000000000          3.3509511055101164     
  0.11760000000000000          3.5597080249042503     
  0.11789999999999999          3.6339537152137731     
  0.11820000000000001          3.5808362035863968     
  0.11850000000000001          3.4121367053336260     
  0.11880000000000000          3.1424898292803536     
  0.11910000000000000          2.7877811665406473     
  0.11940000000000002          2.3638250211146530     
  0.11970000000000001          1.8852521872474459     
  0.12000000000000001          1.3646899087344373     
  0.12030000000000000         0.81225774282670438     
  0.12060000000000000         0.23595683815048396     
  0.12089999999999999        -0.35725211532472467     
  0.12119999999999999        -0.96062360042071782     
  0.12150000000000001         -1.5665335275635066     
  0.12180000000000001         -2.1650261331909233     
  0.12210000000000000         -2.7426246883023699     
  0.12239999999999999         -3.2817234118885081     
  0.12270000000000002         -3.7609900407032426     
  0.12300000000000001         -4.1559089467527199     
  0.12330000000000001         -4.4396485040313465     
  0.12360000000000000         -4.5854953421512832     
  0.12390000000000000         -4.5695742254124863     
  0.12419999999999999         -4.3731053998200924     
  0.12450000000000001         -3.9847925934874384     
  0.12480000000000001         -3.4033094839305140     
  0.12509999999999999         -2.6390546971864022     
  0.12540000000000001         -1.7147142372182573     
  0.12570000000000003        -0.66481159006533885     
  0.12600000000000000         0.46546052714277225     
  0.12630000000000002          1.6225467466517280     
  0.12659999999999999          2.7479275876186029     
  0.12690000000000001          3.7818456999621879     
  0.12719999999999998          4.6672404860460359     
  0.12750000000000000          5.3540461914928148     
  0.12780000000000002          5.8028829823089056     
  0.12809999999999999          5.9877083978164931     
  0.12840000000000001          5.8978927843304279     
  0.12869999999999998          5.5391252857414663     
  0.12900000000000000          4.9331668418908778     
  0.12930000000000003          4.1164354127730869     
  0.12959999999999999          3.1371563997578726     
  0.12990000000000002          2.0522088447353486     
  0.13019999999999998         0.92356315863495642     
  0.13050000000000000        -0.18587528914714643     
  0.13080000000000003         -1.2163757916789055     
  0.13109999999999999         -2.1151465761292352     
  0.13140000000000002         -2.8395179897422191     
  0.13169999999999998         -3.3588520537812601     
  0.13200000000000001         -3.6561421329600217     
  0.13229999999999997         -3.7286836069075364     
  0.13260000000000000         -3.5872904267404273     
  0.13290000000000002         -3.2549227777698366     
  0.13319999999999999         -2.7646290503917785     
  0.13350000000000001         -2.1567565812079077     
  0.13380000000000003         -1.4759319625930347     
  0.13410000000000000        -0.76807574414118296     
  0.13440000000000002         -7.7376796664057168E-002
  0.13469999999999999         0.55631808806687477     
  0.13500000000000001          1.0996168541083275     
  0.13529999999999998          1.5268799830406363     
  0.13560000000000000          1.8208033528751084     
  0.13590000000000002          1.9726614399128508     
  0.13619999999999999          1.9815787711838213     
  0.13650000000000001          1.8531804753179490     
  0.13680000000000003          1.5983969710328132     
  0.13710000000000000          1.2319137695677382     
  0.13740000000000002         0.77044961573931492     
  0.13769999999999999         0.23169554019365396     
  0.13800000000000001        -0.36653520711880117     
  0.13829999999999998         -1.0065887888822402     
  0.13860000000000000         -1.6707851417530577     
  0.13890000000000002         -2.3410977653171141     
  0.13919999999999999         -2.9983569719173784     
  0.13950000000000001         -3.6214429291895254     
  0.13979999999999998         -4.1868547184897933     
  0.14010000000000000         -4.6684201794819344     
  0.14040000000000002         -5.0379270041006867     
  0.14069999999999999         -5.2666605363546060     
  0.14100000000000001         -5.3269646987059192     
  0.14130000000000004         -5.1946276083053187     
  0.14160000000000000         -4.8521131023433632     
  0.14189999999999997         -4.2913030284700744     
  0.14219999999999999         -3.5154436940078408     
  0.14250000000000002         -2.5407809405195563     
  0.14279999999999998         -1.3972658627914323     
  0.14310000000000000        -0.12792404270178281     
  0.14339999999999997          1.2138187621280561     
  0.14369999999999999          2.5680977641150950     
  0.14400000000000002          3.8725062760822868     
  0.14429999999999998          5.0669053589238091     
  0.14460000000000001          6.0987704475074302     
  0.14490000000000003          6.9274666725148926     
  0.14520000000000000          7.5276410798957460     
  0.14550000000000002          7.8906853287971472     
  0.14579999999999999          8.0239942097757062     
  0.14610000000000001          7.9493296165595115     
  0.14640000000000003          7.6995699472309074     
  0.14670000000000000          7.3140895522860685     
  0.14699999999999996          6.8334024229718153     
  0.14729999999999999          6.2937791767415234     
  0.14760000000000001          5.7234771828079847     
  0.14789999999999998          5.1403497007200620     
  0.14820000000000000          4.5498851260013806     