  -1.4999999999999999E-002     0.0000000000000000     
  -1.4700000000000000E-002     0.0000000000000000     
  -1.4400000000000000E-002     0.0000000000000000     
  -1.4100000000000000E-002     0.0000000000000000     
  -1.3800000000000000E-002     0.0000000000000000     
  -1.3500000000000000E-002     0.0000000000000000     
  -1.3200000000000000E-002     0.0000000000000000     
  -1.2899999999999998E-002     0.0000000000000000     
  -1.2600000000000000E-002     0.0000000000000000     
  -1.2299999999999998E-002     0.0000000000000000     
  -1.2000000000000000E-002     0.0000000000000000     
  -1.1699999999999999E-002     0.0000000000000000     
  -1.1399999999999999E-002     0.0000000000000000     
  -1.1099999999999999E-002     0.0000000000000000     
  -1.0799999999999999E-002     0.0000000000000000     
  -1.0499999999999999E-002     0.0000000000000000     
  -1.0199999999999999E-002     0.0000000000000000     
  -9.8999999999999991E-003     0.0000000000000000     
  -9.5999999999999992E-003     0.0000000000000000     
  -9.2999999999999992E-003     0.0000000000000000     
  -8.9999999999999993E-003     0.0000000000000000     
  -8.6999999999999994E-003     0.0000000000000000     
  -8.3999999999999995E-003     0.0000000000000000     
  -8.0999999999999996E-003     0.0000000000000000     
  -7.7999999999999988E-003     0.0000000000000000     
  -7.4999999999999997E-003     0.0000000000000000     
  -7.1999999999999998E-003     0.0000000000000000     
  -6.8999999999999981E-003     0.0000000000000000     
  -6.5999999999999982E-003     0.0000000000000000     
  -6.3000000000000000E-003     0.0000000000000000     
  -6.0000000000000001E-003     0.0000000000000000     
  -5.6999999999999985E-003     0.0000000000000000     
  -5.3999999999999986E-003     0.0000000000000000     
  -5.1000000000000004E-003     0.0000000000000000     
  -4.7999999999999987E-003     0.0000000000000000     
  -4.5000000000000005E-003     0.0000000000000000     
  -4.1999999999999989E-003     0.0000000000000000     
  -3.8999999999999990E-003     0.0000000000000000     
  -3.5999999999999990E-003     0.0000000000000000     
  -3.2999999999999991E-003     0.0000000000000000     
  -2.9999999999999992E-003     0.0000000000000000     
  -2.6999999999999993E-003     0.0000000000000000     
  -2.3999999999999994E-003     0.0000000000000000     
  -2.0999999999999977E-003     0.0000000000000000     
  -1.7999999999999995E-003     0.0000000000000000     
  -1.4999999999999979E-003     0.0000000000000000     
  -1.1999999999999997E-003     0.0000000000000000     
  -8.9999999999999976E-004     0.0000000000000000     
  -5.9999999999999810E-004     0.0000000000000000     
  -2.9999999999999992E-004     0.0000000000000000     
   0.0000000000000000          0.0000000000000000     
   3.0000000000000165E-004     0.0000000000000000     
   5.9999999999999984E-004    -1.1651254981511732E-045
   9.0000000000000149E-004    -1.5040444349549028E-044
   1.2000000000000031E-003     2.1507740354001347E-044
   1.5000000000000013E-003     6.0677094351817660E-044
   1.8000000000000030E-003     6.4348825848792929E-037
   2.1000000000000012E-003    -1.9149894269371513E-036
   2.3999999999999994E-003    -1.6204647690218728E-035
   2.7000000000000010E-003     2.2457220107971786E-035
   2.9999999999999992E-003     7.7757011873972167E-035
   3.3000000000000008E-003    -2.2343985642145712E-034
   3.6000000000000025E-003    -1.6655966952864543E-033
   3.9000000000000007E-003     1.2241742379765348E-032
   4.2000000000000023E-003     2.1708058986851696E-033
   4.5000000000000005E-003    -4.6799570246385976E-031
   4.7999999999999987E-003     2.6329410767544613E-030
   5.1000000000000004E-003    -1.8245122114066758E-030
   5.4000000000000020E-003    -5.5016947546084430E-029
   5.7000000000000037E-003     3.4900300481491905E-028
   5.9999999999999984E-003    -8.7512234489908044E-028
   6.3000000000000000E-003    -1.1505548641161844E-027
   6.6000000000000017E-003     1.9151959031263985E-026
   6.9000000000000034E-003    -8.4116549590241193E-026
   7.2000000000000015E-003     2.0213792440172437E-025
   7.5000000000000032E-003    -1.2484806588387621E-025
   7.8000000000000014E-003    -1.2862417603266714E-024
   8.0999999999999996E-003     7.1824288511643298E-024
   8.4000000000000012E-003    -2.3344737606785725E-023
   8.7000000000000029E-003     5.2546378069092670E-023
   9.0000000000000011E-003    -6.1377293223828207E-023
   9.2999999999999992E-003    -1.3242560812015662E-022
   9.6000000000000009E-003     1.1088459529375382E-021
   9.8999999999999991E-003    -4.1068651232134367E-021
   1.0200000000000001E-002     1.0678037906631494E-020
   1.0500000000000002E-002    -2.1623365949264733E-020
   1.0800000000000004E-002     4.5468659682669575E-020
   1.1099999999999999E-002    -1.8490881974292559E-019
   1.1400000000000000E-002     1.1195028624801069E-018
   1.1700000000000002E-002    -6.2826953851910616E-018
   1.2000000000000004E-002     3.0788379225919389E-017
   1.2300000000000002E-002    -1.3640192907970242E-016
   1.2600000000000000E-002     5.6341002221345635E-016
   1.2900000000000002E-002    -2.1954703802670970E-015
   1.3200000000000000E-002     7.9868855596063031E-015
   1.3500000000000002E-002    -2.6166997561450259E-014
   1.3800000000000003E-002     7.1394064095063633E-014
   1.4100000000000001E-002    -1.2897782326661415E-013
   1.4400000000000000E-002    -6.6026368693049729E-014
   1.4700000000000001E-002     1.7785552538665901E-012
   1.4999999999999999E-002    -8.4671228196074367E-012
   1.5300000000000001E-002     2.3317256538186072E-011
   1.5600000000000003E-002    -2.8332341814912298E-011
   1.5899999999999997E-002    -6.6053286053097193E-011
   1.6199999999999999E-002     3.9913942519285297E-010
   1.6500000000000001E-002    -7.0808851818828804E-010
   1.6800000000000002E-002    -5.2843366464869815E-010
   1.7100000000000004E-002     4.6709454464474612E-009
   1.7400000000000006E-002    -4.9509506347961639E-009
   1.7700000000000000E-002    -1.4249957670930354E-008
   1.8000000000000002E-002     3.2505367658669780E-008
   1.8300000000000004E-002     3.5630957693503639E-008
   1.8600000000000005E-002    -1.3094884178901764E-007
   1.8900000000000000E-002    -1.5087780782386384E-007
   1.9200000000000002E-002     3.3308751610267375E-007
   1.9500000000000003E-002     6.0416404916117057E-007
   1.9799999999999998E-002    -4.9826010936345960E-007
   2.0100000000000000E-002    -1.8751254646185393E-006
   2.0400000000000001E-002     2.0531127358961931E-007
   2.0700000000000003E-002     7.6231896647185727E-006
   2.0999999999999998E-002     1.6999028318967862E-005
   2.1299999999999999E-002     2.4218597239611279E-005
   2.1600000000000001E-002     3.2300922155169742E-005
   2.1900000000000003E-002     5.1124242702180646E-005
   2.2200000000000004E-002     8.8130980906481594E-005
   2.2500000000000006E-002     1.4334435103339989E-004
   2.2800000000000001E-002     2.1762164694027862E-004
   2.3100000000000002E-002     3.2406465615998837E-004
   2.3400000000000004E-002     4.8701772785089237E-004
   2.3699999999999999E-002     7.3112441341389718E-004
   2.4000000000000000E-002     1.0783881692047847E-003
   2.4300000000000002E-002     1.5596445617940809E-003
   2.4599999999999997E-002     2.2250376275075733E-003
   2.4900000000000005E-002     3.1396422493404782E-003
   2.5200000000000000E-002     4.3728104097501171E-003
   2.5499999999999995E-002     5.9980260207244118E-003
   2.5800000000000003E-002     8.1016559790756653E-003
   2.6099999999999998E-002     1.0783892897475649E-002
   2.6400000000000007E-002     1.4145179448960168E-002
   2.6700000000000002E-002     1.8270199863911818E-002
   2.6999999999999996E-002     2.3219169735478287E-002
   2.7300000000000005E-002     2.9021527239981113E-002
   2.7600000000000000E-002     3.5660575627875071E-002
   2.7900000000000008E-002     4.3047412711685232E-002
   2.8200000000000003E-002     5.0996414730886008E-002
   2.8499999999999998E-002     5.9210627625759168E-002
   2.8800000000000006E-002     6.7277423348351489E-002
   2.9100000000000001E-002     7.4666402523753769E-002
   2.9400000000000003E-002     8.0728180005381941E-002
   2.9700000000000004E-002     8.4705866219512246E-002
   3.0000000000000006E-002     8.5770897006806721E-002
   3.0300000000000001E-002     8.3086318852106170E-002
   3.0600000000000002E-002     7.5878843448098407E-002
   3.0900000000000004E-002     6.3507281277717265E-002
   3.1199999999999999E-002     4.5534871850913157E-002
   3.1500000000000007E-002     2.1815065963970745E-002
   3.1800000000000002E-002    -7.4197141381206876E-003
   3.2099999999999997E-002    -4.1489435823065642E-002
   3.2400000000000005E-002    -7.9264437892670320E-002
   3.2700000000000000E-002   -0.11919723245191982     
   3.3000000000000002E-002   -0.15935952730925648     
   3.3300000000000003E-002   -0.19752393416514816     
   3.3599999999999998E-002   -0.23131182538148065     
   3.3900000000000000E-002   -0.25839066260483529     
   3.4200000000000001E-002   -0.27666175139573862     
   3.4500000000000003E-002   -0.28442644878174539     
   3.4799999999999998E-002   -0.28057229366111763     
   3.5099999999999999E-002   -0.26470914381127209     
   3.5400000000000001E-002   -0.23726950540751093     
   3.5699999999999996E-002   -0.19953112318511301     
   3.6000000000000004E-002   -0.15354925466573890     
   3.6299999999999999E-002   -0.10203231997056353     
   3.6600000000000008E-002    -4.8176465404580995E-002
   3.6900000000000002E-002     4.5259895726871861E-003
   3.7199999999999997E-002     5.2555666848587201E-002
   3.7500000000000006E-002     9.2640002753034148E-002
   3.7800000000000000E-002    0.12197915990596138     
   3.8100000000000009E-002    0.13841277167918042     
   3.8400000000000004E-002    0.14056613888627725     
   3.8699999999999998E-002    0.12794829804945657     
   3.9000000000000007E-002    0.10100339315315070     
   3.9300000000000002E-002     6.1078153861376022E-002
   3.9600000000000003E-002     1.0280354981033116E-002
   3.9900000000000005E-002    -4.8637384654651498E-002
   4.0200000000000000E-002   -0.11236358188906939     
   4.0500000000000001E-002   -0.17723053385560916     
   4.0800000000000003E-002   -0.23939765627495047     
   4.1100000000000005E-002   -0.29503410649829725     
   4.1399999999999999E-002   -0.34051802320716462     
   4.1700000000000008E-002   -0.37259763031657467     
   4.2000000000000003E-002   -0.38854291589650947     
   4.2299999999999997E-002   -0.38625436594760854     
   4.2600000000000006E-002   -0.36443423834356570     
   4.2900000000000001E-002   -0.32272693176589273     
   4.3200000000000002E-002   -0.26170411434930896     
   4.3500000000000004E-002   -0.18281709957473208     
   4.3799999999999999E-002    -8.8403454931047343E-002
   4.4100000000000000E-002     1.8386080833801412E-002
   4.4400000000000002E-002    0.13380616793905031     
   4.4700000000000004E-002    0.25372373839091727     
   4.4999999999999998E-002    0.37385737568509175     
   4.5300000000000000E-002    0.49001442953345975     
   4.5600000000000002E-002    0.59830718701039987     
   4.5899999999999996E-002    0.69535523031973334     
   4.6200000000000005E-002    0.77847497956099732     
   4.6500000000000000E-002    0.84576355646469081     
   4.6799999999999994E-002    0.89603912014789688     
   4.7100000000000003E-002    0.92879771334939754     
   4.7399999999999998E-002    0.94414245210978243     
   4.7700000000000006E-002    0.94262473899862009     
   4.8000000000000001E-002    0.92501287788808162     
   4.8300000000000010E-002    0.89213734029591685     
   4.8600000000000004E-002    0.84481017990084217     
   4.8899999999999999E-002    0.78370707495261027     
   4.9200000000000008E-002    0.70932000218644498     
   4.9500000000000002E-002    0.62202476888282110     
   4.9800000000000011E-002    0.52221077217587908     
   5.0100000000000006E-002    0.41044246803483159     
   5.0400000000000000E-002    0.28762367146686613     
   5.0700000000000009E-002    0.15518255443421600     
   5.1000000000000004E-002     1.5225030957096387E-002
   5.1299999999999998E-002   -0.12932961997117942     
   5.1600000000000007E-002   -0.27469229388285510     
   5.1900000000000002E-002   -0.41636746696105736     
   5.2200000000000010E-002   -0.54933630895413654     
   5.2500000000000005E-002   -0.66823595159709148     
   5.2800000000000000E-002   -0.76764606774559341     
   5.3099999999999994E-002   -0.84258204019212657     
   5.3400000000000003E-002   -0.88896446744616198     
   5.3699999999999998E-002   -0.90387671541366410     
   5.4000000000000006E-002   -0.88580124981716735     
   5.4300000000000001E-002   -0.83494698489781294     
   5.4599999999999996E-002   -0.75334059773239159     
   5.4900000000000004E-002   -0.64474385659923761     
   5.5199999999999999E-002   -0.51449167516447347     
   5.5499999999999994E-002   -0.36919167527267949     
   5.5800000000000002E-002   -0.21635706704224753     
   5.6099999999999997E-002    -6.3964725133482170E-002
   5.6400000000000006E-002     8.0005599858417861E-002
   5.6700000000000000E-002    0.20802968582243461     
   5.6999999999999995E-002    0.31344768229227365     
   5.7300000000000004E-002    0.39079055018606990     
   5.7599999999999998E-002    0.43606421204839851     
   5.7900000000000007E-002    0.44696295158137989     
   5.8200000000000002E-002    0.42290714339164909     
   5.8499999999999996E-002    0.36508023767201930     
   5.8800000000000005E-002    0.27641889563083566     
   5.9100000000000000E-002    0.16144718427499569     
   5.9400000000000008E-002     2.6024594052982627E-002
   5.9700000000000003E-002   -0.12290869276988868     
   6.0000000000000012E-002   -0.27763428823763303     
   6.0300000000000006E-002   -0.43010952532243302     
   6.0600000000000001E-002   -0.57248633497887880     
   6.0900000000000010E-002   -0.69752966702903607     
   6.1200000000000004E-002   -0.79906820558526159     
   6.1500000000000013E-002   -0.87252741338178630     
   6.1800000000000008E-002   -0.91526495691439735     
   6.2100000000000002E-002   -0.92675804383898064     
   6.2399999999999997E-002   -0.90872579130400277     
   6.2700000000000006E-002   -0.86493688176736605     
   6.3000000000000000E-002   -0.80082666276362602     
   6.3300000000000009E-002   -0.72308492117641021     
   6.3600000000000004E-002   -0.63903843872278165     
   6.3899999999999998E-002   -0.55588876776449025     
   6.4199999999999993E-002   -0.47992965213136335     
   6.4500000000000002E-002   -0.41585668612725413     
   6.4800000000000010E-002   -0.36635356888431092     
   6.5100000000000005E-002   -0.33177187840714395     
   6.5400000000000000E-002   -0.31000617004311415     
   6.5700000000000008E-002   -0.29669722831666512     
   6.5999999999999989E-002   -0.28558060508869176     
   6.6299999999999998E-002   -0.26909646447800095     
   6.6600000000000006E-002   -0.23919436476509440     
   6.6900000000000001E-002   -0.18810090660863268     
   6.7199999999999996E-002   -0.10921547909169525     
   6.7500000000000004E-002     2.2581689926155718E-003
   6.7800000000000013E-002    0.14884188178133764     
   6.8099999999999994E-002    0.33021201959154362     
   6.8400000000000002E-002    0.54286949972241982     
   6.8700000000000011E-002    0.78022985673186196     
   6.8999999999999992E-002     1.0329555164322599     
   6.9300000000000000E-002     1.2892898203250347     
   6.9600000000000009E-002     1.5354894274987674     
   6.9900000000000004E-002     1.7566193213746653     
   7.0199999999999999E-002     1.9375208487322737     
   7.0500000000000007E-002     2.0636312835810546     
   7.0800000000000016E-002     2.1219460845474210     
   7.1099999999999997E-002     2.1020572077793926     
   7.1400000000000005E-002     1.9970166590402052     
   7.1700000000000000E-002     1.8040660545642584     
   7.1999999999999995E-002     1.5252072759223927     
   7.2300000000000003E-002     1.1674660417595191     
   7.2600000000000012E-002    0.74286711226196467     
   7.2900000000000006E-002    0.26803055709145135     
   7.3200000000000001E-002   -0.23664202682404201     
   7.3499999999999996E-002   -0.74806975418007582     
   7.3800000000000004E-002    -1.2417963625081887     
   7.4099999999999999E-002    -1.6934165811245170     
   7.4400000000000008E-002    -2.0801174476318791     
   7.4700000000000003E-002    -2.3821735202252037     
   7.5000000000000011E-002    -2.5840256025476367     
   7.5299999999999992E-002    -2.6751186657848263     
   7.5600000000000001E-002    -2.6505217369540279     
   7.5900000000000009E-002    -2.5110471081823373     
   7.6200000000000004E-002    -2.2629077292122570     
   7.6499999999999999E-002    -1.9171625265707199     
   7.6800000000000007E-002    -1.4890096116853060     
   7.7099999999999988E-002   -0.99688499905451911     
   7.7399999999999997E-002   -0.46143573743441180     
   7.7700000000000005E-002     9.5394805385148912E-002
   7.8000000000000014E-002    0.65119342802438696     
   7.8299999999999995E-002     1.1840255096990371     
   7.8600000000000003E-002     1.6731730498191695     
   7.8900000000000012E-002     2.0997290380437379     
   7.9199999999999993E-002     2.4473376023890521     
   7.9500000000000001E-002     2.7028760651584647     
   7.9800000000000010E-002     2.8568830235020055     
   8.0100000000000018E-002     2.9039833305326601     
   8.0399999999999999E-002     2.8432683729507908     
   8.0700000000000008E-002     2.6784741697284677     
   8.1000000000000003E-002     2.4177448609002608     
   8.1299999999999997E-002     2.0731444263298200     
   8.1600000000000006E-002     1.6600497912315892     
   8.1900000000000014E-002     1.1961911914109189     
   8.2199999999999995E-002    0.70054620910001064     
   8.2500000000000004E-002    0.19231057956976941     
   8.2799999999999999E-002   -0.31020258743865597     
   8.3100000000000007E-002   -0.79042147221901982     
   8.3400000000000002E-002    -1.2341278636135213     
   8.3700000000000011E-002    -1.6296747755867198     
   8.4000000000000005E-002    -1.9678487605074240     
   8.4300000000000000E-002    -2.2416851347572826     
   8.4599999999999995E-002    -2.4462022612320244     
   8.4900000000000003E-002    -2.5777633028265790     
   8.5199999999999998E-002    -2.6336076107368114     
   8.5500000000000007E-002    -2.6118390419477393     
   8.5800000000000001E-002    -2.5115866533481435     
   8.6100000000000010E-002    -2.3332970029127056     
   8.6399999999999991E-002    -2.0792183778402871     
   8.6699999999999999E-002    -1.7541938939372710     
   8.7000000000000008E-002    -1.3663490947846448     
   8.7300000000000003E-002   -0.92730521716501502     
   8.7599999999999997E-002   -0.45221009607239282     
   8.7900000000000006E-002     4.0432066168164388E-002
   8.8200000000000014E-002    0.52958196250100609     
   8.8499999999999995E-002    0.99307274480467889     
   8.8800000000000004E-002     1.4092210480225047     
   8.9100000000000013E-002     1.7585451536502257     
   8.9399999999999993E-002     2.0252926269799358     
   8.9700000000000002E-002     2.1988391785011587     
   9.0000000000000011E-002     2.2747466463416415     
   9.0299999999999991E-002     2.2550814042830716     
   9.0600000000000000E-002     2.1479968908443183     
   9.0900000000000009E-002     1.9666916009010880     
   9.1200000000000017E-002     1.7281111349390921     
   9.1499999999999998E-002     1.4511983259058563     
   9.1800000000000007E-002     1.1548101761043887     
   9.2100000000000001E-002    0.85603253585592776     
   9.2399999999999996E-002    0.56893299549932219     
   9.2700000000000005E-002    0.30341662522636142     
   9.3000000000000013E-002     6.4659805461806261E-002
   9.3300000000000008E-002   -0.14651222245219514     
   9.3600000000000003E-002   -0.33271018657820062     
   9.3899999999999997E-002   -0.49913770648265504     
   9.4200000000000006E-002   -0.65252417637227722     
   9.4500000000000001E-002   -0.79945266112716040     
   9.4800000000000009E-002   -0.94482224549875604     
   9.5100000000000004E-002    -1.0911831740662037     
   9.5399999999999999E-002    -1.2383487057529881     
   9.5699999999999993E-002    -1.3828303598240153     
   9.6000000000000002E-002    -1.5177025537390534     
   9.6300000000000011E-002    -1.6334519096805045     
   9.6600000000000005E-002    -1.7190679002979474     
   9.6900000000000000E-002    -1.7628881617797958     
   9.7200000000000009E-002    -1.7536410982939592     
   9.7499999999999989E-002    -1.6818315707401863     
   9.7799999999999998E-002    -1.5410433774338042     
   9.8100000000000007E-002    -1.3288214028642447     
   9.8400000000000015E-002    -1.0474101192508807     
   9.8699999999999996E-002   -0.70426630570979365     
   9.9000000000000005E-002   -0.31207418785458030     
   9.9300000000000013E-002    0.11179852160652996     
   9.9599999999999994E-002    0.54624305422757391     
   9.9900000000000003E-002    0.96768651100214687     
  0.10020000000000001          1.3516748872017026     
  0.10049999999999999          1.6748798787821333     
  0.10080000000000000          1.9172982862861028     
  0.10110000000000001          2.0640153586505265     
  0.10140000000000000          2.1065680706582284     
  0.10170000000000000          2.0438451530852038     
  0.10200000000000001          1.8826050570591681     
  0.10230000000000002          1.6369875536330638     
  0.10260000000000000          1.3269423169913876     
  0.10290000000000001         0.97638159772489863     
  0.10320000000000000         0.61113781008766765     
  0.10350000000000001         0.25639826733105936     
  0.10380000000000000         -6.6026677937411349E-002
  0.10410000000000001        -0.33973096652229318     
  0.10440000000000001        -0.55475740405881080     
  0.10470000000000000        -0.70805590154011899     
  0.10500000000000000        -0.80345563994947400     
  0.10530000000000000        -0.85061441920496506     
  0.10560000000000000        -0.86297570900857501     
  0.10590000000000001        -0.85545372370008210     
  0.10620000000000000        -0.84227931041797932     
  0.10650000000000001        -0.83519416678530800     
  0.10679999999999999        -0.84208738467151012     
  0.10710000000000000        -0.86604755755208707     
  0.10740000000000001        -0.90535705845990744     
  0.10770000000000000        -0.95456546000593245     
  0.10800000000000000         -1.0062153272197907     
  0.10830000000000001         -1.0525029817522942     
  0.10859999999999999         -1.0867415574872099     
  0.10890000000000000         -1.1049804587103229     
  0.10920000000000001         -1.1072431697295200     
  0.10950000000000001         -1.0976523054083598     
  0.10979999999999999         -1.0835181369659317     
  0.11009999999999999         -1.0738699335450290     
  0.11040000000000001         -1.0776997709568692     
  0.11070000000000001         -1.1020516067792947     
  0.11100000000000000         -1.1497584496659834     
  0.11130000000000000         -1.2177278913790766     
  0.11160000000000002         -1.2964976945454718     
  0.11190000000000001         -1.3702994504234784     
  0.11220000000000001         -1.4179439463204373     
  0.11250000000000000         -1.4148127951830554     
  0.11280000000000000         -1.3356460255893152     
  0.11309999999999999         -1.1575891903743654     
  0.11340000000000001        -0.86296408853010564     
  0.11369999999999998        -0.44170528385050317     
  0.11400000000000000         0.10663519719036579     
  0.11430000000000000         0.77202569917456765     
  0.11460000000000002          1.5343718424147121     
  0.11489999999999999          2.3646747902167413     
  0.11520000000000001          3.2270018827484357     
  0.11550000000000001          4.0811228461454077     
  0.11580000000000000          4.8855118400225024     
  0.11609999999999999          5.6004013610125050     
  0.11640000000000002          6.1903581170651432     
  0.11670000000000001          6.6263145921434052     
  0.11700000000000001          6.8869924051182974     
  0.11730000000000000          6.9596504672460062     
  0.11760000000000000          6.8402580740385535     
  0.11789999999999999          6.5327724969876204     
  0.11820000000000001          6.0478844250349821     
  0.11850000000000001          5.4021405841837442     
  0.11880000000000000          4.6168579792829112     
  0.11910000000000000          3.7159290126698381     
  0.11940000000000002          2.7242069135875413     
  0.11970000000000001          1.6670192450271479     
  0.12000000000000001         0.56884450182762458     
  0.12030000000000000        -0.54845922009239245     
  0.12060000000000000         -1.6664668138471201     
  0.12089999999999999         -2.7700321432308095     
  0.12119999999999999         -3.8476540748354990     
  0.12150000000000001         -4.8918943065615093     
  0.12180000000000001         -5.8985199548257468     
  0.12210000000000000         -6.8645243228073545     
  0.12239999999999999         -7.7869395758993702     
  0.12270000000000002         -8.6613912098534680     
  0.12300000000000001         -9.4795216996753027     
  0.12330000000000001         -10.226936285189039     
  0.12360000000000000         -10.881943644100938     
  0.12390000000000000         -11.414697585133828     
  0.12419999999999999         -11.787631923509741     
  0.12450000000000001         -11.956811837453007     
  0.12480000000000001         -11.874376228111819     
  0.12509999999999999         -11.492381027021416     
  0.12540000000000001         -10.767305307203632     
  0.12570000000000003         -9.6653012602292456     
  0.12600000000000000         -8.1673774160789741     
  0.12630000000000002         -6.2738165393732910     
  0.12659999999999999         -4.0076617857964374     
  0.12690000000000001         -1.4166531377627267     
  0.12719999999999998          1.4268997918779474     
  0.12750000000000000          4.4278192340638025     
  0.12780000000000002          7.4723686792952710     
  0.12809999999999999          10.434537829717042     
  0.12840000000000001          13.182968062789051     
  0.12869999999999998          15.589422132015676     
  0.12900000000000000          17.537486921813937     
  0.12930000000000003          18.929845690997247     
  0.12959999999999999          19.694845074059003     
  0.12990000000000002          19.791507593303606     
  0.13019999999999998          19.211681240746408     
  0.13050000000000000          17.979732395014594     
  0.13080000000000003          16.150314223454519     
  0.13109999999999999          13.804355527971572     
  0.13140000000000002          11.043242378086338     
  0.13169999999999998          7.9820904155339791     
  0.13200000000000001          4.7428545573837866     
  0.13229999999999997          1.4482900918854933     
  0.13260000000000000         -1.7837936860389176     
  0.13290000000000002         -4.8443674839772806     
  0.13319999999999999         -7.6358146299786362     
  0.13350000000000001         -10.074261614102486     
  0.13380000000000003         -12.090705808297043     
  0.13410000000000000         -13.630499767075218     
  0.13440000000000002         -14.653807560666792     
  0.13469999999999999         -15.136249458865413     
  0.13500000000000001         -15.069469367256755     
  0.13529999999999998         -14.462158119779826     
  0.13560000000000000         -13.341583172317328     
  0.13590000000000002         -11.754758761077452     
  0.13619999999999999         -9.7686557109663763     
  0.13650000000000001         -7.4696316151799005     
  0.13680000000000003         -4.9621819986486777     
  0.13710000000000000         -2.3649804238970646     
  0.13740000000000002         0.19483550818365561     
  0.13769999999999999          2.5872025623739932     
  0.13800000000000001          4.6871380841713055     
  0.13829999999999998          6.3839487980842229     
  0.13860000000000000          7.5879444960533808     
  0.13890000000000002          8.2367420035059951     
  0.13919999999999999          8.3014983945801131     
  0.13950000000000001          7.7898998073830645     
  0.13979999999999998          6.7453384231479623     
  0.14010000000000000          5.2446012365428052     
  0.14040000000000002          3.3939516462577934     
  0.14069999999999999          1.3220722651018775     
  0.14100000000000001        -0.82942223197850540     
  0.14130000000000004         -2.9152917771073210     
  0.14160000000000000         -4.7954134803863218     
  0.14189999999999997         -6.3450202772358653     
  0.14219999999999999         -7.4630594068904506     
  0.14250000000000002         -8.0775956926985852     
  0.14279999999999998         -8.1507377467672981     
  0.14310000000000000         -7.6813316230154367     
  0.14339999999999997         -6.7039594592038565     
  0.14369999999999999         -5.2860732088304534     
  0.14400000000000002         -3.5231309021063644     
  0.14429999999999998         -1.5319556156898291     
  0.14460000000000001         0.55754957287241047     
  0.14490000000000003          2.6119191355542841     
  0.14520000000000000          4.5024590152835664     
  0.14550000000000002          6.1139392480980312     
  0.14579999999999999          7.3531503290422107     
  0.14610000000000001          8.1541709514946454     
  0.14640000000000003          8.4821290602778525     
  0.14670000000000000          8.3352622649979828     
  0.14699999999999996          7.7437166872915144     
  0.14729999999999999          6.7663178196421692     
  0.14760000000000001          5.4856109421162413     
  0.14789999999999998          4.0014867632490736     
  0.14820000000000000          2.4231290710168771     