  -1.4999999999999999E-002     0.0000000000000000     
  -1.4700000000000000E-002    -7.3316181219739761E-025
  -1.4400000000000000E-002    -2.2925963699393493E-020
  -1.4100000000000000E-002    -2.7001927427867234E-018
  -1.3800000000000000E-002     2.4176478098220784E-017
  -1.3500000000000000E-002     6.6410531068271495E-016
  -1.3200000000000000E-002    -1.1202114707324126E-015
  -1.2899999999999998E-002    -2.1958328618518825E-014
  -1.2600000000000000E-002    -8.6996815829930115E-015
  -1.2299999999999998E-002     3.0018218594334145E-013
  -1.2000000000000000E-002     2.9240371533738709E-013
  -1.1699999999999999E-002    -7.2919350981047470E-013
  -1.1399999999999999E-002    -4.0356550431702909E-012
  -1.1099999999999999E-002    -1.8352712666497678E-011
  -1.0799999999999999E-002     4.9843118330042825E-011
  -1.0499999999999999E-002     1.8569926116362627E-010
  -1.0199999999999999E-002    -4.1650427393513403E-010
  -9.8999999999999991E-003    -5.9828579608722592E-010
  -9.5999999999999992E-003     1.7102174691247716E-009
  -9.2999999999999992E-003    -2.6371003606009602E-011
  -8.9999999999999993E-003    -2.2621595400926752E-009
  -8.6999999999999994E-003     3.4069316937313086E-009
  -8.3999999999999995E-003    -3.4662201424363954E-009
  -8.0999999999999996E-003    -4.6856802937863222E-009
  -7.7999999999999988E-003     1.0319440638402837E-008
  -7.4999999999999997E-003     1.0902682993477140E-009
  -7.1999999999999998E-003    -4.9320509826488275E-009
  -6.8999999999999981E-003     1.5783551358437758E-009
  -6.5999999999999982E-003     1.0855415117678516E-008
  -6.3000000000000000E-003    -3.5527532032951939E-008
  -6.0000000000000001E-003    -4.5165608606071764E-008
  -5.6999999999999985E-003     1.0599697773929036E-007
  -5.3999999999999986E-003     5.9509875593336182E-008
  -5.1000000000000004E-003    -7.1889963053213060E-008
  -4.7999999999999987E-003    -6.3905708790036527E-008
  -4.5000000000000005E-003    -4.9264326761592458E-008
  -4.1999999999999989E-003     8.5083953677607919E-008
  -3.8999999999999990E-003    -7.8256699825142007E-008
  -3.5999999999999990E-003    -1.8937939025085773E-007
  -3.2999999999999991E-003     5.2422157992792314E-007
  -2.9999999999999992E-003     1.0591652973820713E-006
  -2.6999999999999993E-003    -1.1671643055363582E-006
  -2.3999999999999994E-003    -3.9142380121713751E-006
  -2.0999999999999977E-003     1.7898734289038453E-006
  -1.7999999999999995E-003     9.9750794343453270E-006
  -1.4999999999999979E-003    -6.9298903393842643E-008
  -1.1999999999999997E-003    -2.3915435928310652E-005
  -8.9999999999999976E-004    -1.4822075853520215E-005
  -5.9999999999999810E-004     9.3904352447515591E-005
  -2.9999999999999992E-004     3.2644616955874344E-004
   0.0000000000000000          6.1972492924217853E-004
   3.0000000000000165E-004     9.1187737806712335E-004
   5.9999999999999984E-004     1.2560466226476884E-003
   9.0000000000000149E-004     1.8052105359252348E-003
   1.2000000000000031E-003     2.7559178455849082E-003
   1.5000000000000013E-003     4.3046259344783760E-003
   1.8000000000000030E-003     6.6248605452745492E-003
   2.1000000000000012E-003     9.9205815133079009E-003
   2.3999999999999994E-003     1.4542510213671679E-002
   2.7000000000000010E-003     2.1069190734575315E-002
   2.9999999999999992E-003     3.0218558335645299E-002
   3.3000000000000008E-003     4.2744137395674106E-002
   3.6000000000000025E-003     5.9484540531240138E-002
   3.9000000000000007E-003     8.1380834857173637E-002
   4.2000000000000023E-003    0.10942465187085758     
   4.5000000000000005E-003    0.14458481319041511     
   4.7999999999999987E-003    0.18766572641728937     
   5.1000000000000004E-003    0.23906139215603092     
   5.4000000000000020E-003    0.29843113284784190     
   5.7000000000000037E-003    0.36442312172601449     
   5.9999999999999984E-003    0.43438714634921688     
   6.3000000000000000E-003    0.50406767461164748     
   6.6000000000000017E-003    0.56724446445986809     
   6.9000000000000034E-003    0.61541531420837681     
   7.2000000000000015E-003    0.63776595765317945     
   7.5000000000000032E-003    0.62129096058146627     
   7.8000000000000014E-003    0.55125577584940255     
   8.0999999999999996E-003    0.41208493279415148     
   8.4000000000000012E-003    0.18864620698021553     
   8.7000000000000029E-003   -0.13220640375569642     
   9.0000000000000011E-003   -0.55978163694212135     
   9.2999999999999992E-003    -1.0973349579824296     
   9.6000000000000009E-003    -1.7398262176184176     
   9.8999999999999991E-003    -2.4718989478478113     
   1.0200000000000001E-002    -3.2663764863587836     
   1.0500000000000002E-002    -4.0837369497595528     
   1.0800000000000004E-002    -4.8725017773940209     
   1.1099999999999999E-002    -5.5709004162789721     
   1.1400000000000000E-002    -6.1101032096287122     
   1.1700000000000002E-002    -6.4186238236722213     
   1.2000000000000004E-002    -6.4279003733415463     
   1.2300000000000002E-002    -6.0787586432023826     
   1.2600000000000000E-002    -5.3278910436259563     
   1.2900000000000002E-002    -4.1541256330164398     
   1.3200000000000000E-002    -2.5632109219596919     
   1.3500000000000002E-002   -0.59076546905376182     
   1.3800000000000003E-002     1.6960941901436586     
   1.4100000000000001E-002     4.2013741449484279     
   1.4400000000000000E-002     6.8037034734670279     
   1.4700000000000001E-002     9.3639185471120321     
   1.4999999999999999E-002     11.733770060405909     
   1.5300000000000001E-002     13.765805302763244     
   1.5600000000000003E-002     15.324133621856397     
   1.5899999999999997E-002     16.293888659136297     
   1.6199999999999999E-002     16.589496114700591     
   1.6500000000000001E-002     16.161324121230226     
   1.6800000000000002E-002     14.998898219371576     
   1.7100000000000004E-002     13.131757570543243     
   1.7400000000000006E-002     10.627270429326979     
   1.7700000000000000E-002     7.5863978832993588     
   1.8000000000000002E-002     4.1367501564636280     
   1.8300000000000004E-002    0.42604522975823889     
   1.8600000000000005E-002    -3.3860069581026506     
   1.8900000000000000E-002    -7.1358117470305169     
   1.9200000000000002E-002    -10.662821060806657     
   1.9500000000000003E-002    -13.816104997801133     
   1.9799999999999998E-002    -16.459943766917650     
   2.0100000000000000E-002    -18.478304781650507     
   2.0400000000000001E-002    -19.778790019834481     
   2.0700000000000003E-002    -20.295257777901107     
   2.0999999999999998E-002    -19.991660065293825     
   2.1299999999999999E-002    -18.863358283542311     
   2.1600000000000001E-002    -16.939316026190035     
   2.1900000000000003E-002    -14.283205363867024     
   2.2200000000000004E-002    -10.992312270278411     
   2.2500000000000006E-002    -7.1964694218245668     
   2.2800000000000001E-002    -3.0520995141274270     
   2.3100000000000002E-002     1.2616967517297937     
   2.3400000000000004E-002     5.5527850701512103     
   2.3699999999999999E-002     9.6276478742936344     
   2.4000000000000000E-002     13.300309248007093     
   2.4300000000000002E-002     16.406451191085040     
   2.4599999999999997E-002     18.812316499000481     
   2.4900000000000005E-002     20.423865072207416     
   2.5200000000000000E-002     21.192430163577534     
   2.5499999999999995E-002     21.112822957190243     
   2.5800000000000003E-002     20.223519980579344     
   2.6099999999999998E-002     18.594793388019752     
   2.6400000000000007E-002     16.319098846346115     
   2.6700000000000002E-002     13.498434511442865     
   2.6999999999999996E-002     10.229468198471885     
   2.7300000000000005E-002     6.5961197108286322     
   2.7600000000000000E-002     2.6598718649875006     
   2.7900000000000008E-002    -1.5384135283830020     
   2.8200000000000003E-002    -5.9735917639042135     
   2.8499999999999998E-002    -10.625991857147360     
   2.8800000000000006E-002    -15.462703911493556     
   2.9100000000000001E-002    -20.421923345193253     
   2.9400000000000003E-002    -25.395628128327861     
   2.9700000000000004E-002    -30.215635987795586     
   3.0000000000000006E-002    -34.649920689694767     
   3.0300000000000001E-002    -38.406898943045526     
   3.0600000000000002E-002    -41.149576380221866     
   3.0900000000000004E-002    -42.522932476743705     
   3.1199999999999999E-002    -42.186821536550944     
   3.1500000000000007E-002    -39.856145991146008     
   3.1800000000000002E-002    -35.341123007736307     
   3.2099999999999997E-002    -28.582763484847938     
   3.2400000000000005E-002    -19.679287633045590     
   3.2700000000000000E-002    -8.9008742854321277     
   3.3000000000000002E-002     3.3146242541722319     
   3.3300000000000003E-002     16.380290239073766     
   3.3599999999999998E-002     29.595357546631192     
   3.3900000000000000E-002     42.196708481423457     
   3.4200000000000001E-002     53.410809590422382     
   3.4500000000000003E-002     62.521233146349267     
   3.4799999999999998E-002     68.921992424507636     
   3.5099999999999999E-002     72.170444707922172     
   3.5400000000000001E-002     72.023980376434736     
   3.5699999999999996E-002     68.457796866756922     
   3.6000000000000004E-002     61.670603347076366     
   3.6299999999999999E-002     52.066374475290722     
   3.6600000000000008E-002     40.221636017684745     
   3.6900000000000002E-002     26.842196191976456     
   3.7199999999999997E-002     12.707387036740407     
   3.7500000000000006E-002    -1.3894816459596786     
   3.7800000000000000E-002    -14.693354795532159     
   3.8100000000000009E-002    -26.541379337323455     
   3.8400000000000004E-002    -36.404410806584245     
   3.8699999999999998E-002    -43.907981251015094     
   3.9000000000000007E-002    -48.855599907312182     
   3.9300000000000002E-002    -51.219020642132570     
   3.9600000000000003E-002    -51.128924848492638     
   3.9900000000000005E-002    -48.854017015255792     
   4.0200000000000000E-002    -44.756621253422097     
   4.0500000000000001E-002    -39.271791913547183     
   4.0800000000000003E-002    -32.857358135023979     
   4.1100000000000005E-002    -25.962848866996016     
   4.1399999999999999E-002    -19.006299359457874     
   4.1700000000000008E-002    -12.338843689735040     
   4.2000000000000003E-002    -6.2433789795690373     
   4.2299999999999997E-002   -0.92009226185237392     
   4.2600000000000006E-002     3.5126861910916469     
   4.2900000000000001E-002     7.0037593964921854     
   4.3200000000000002E-002     9.5695913015077885     
   4.3500000000000004E-002     11.270161858945817     
   4.3799999999999999E-002     12.199196294817698     
   4.4100000000000000E-002     12.475274402833705     
   4.4400000000000002E-002     12.220311488706043     
   4.4700000000000004E-002     11.559557147980563     
   4.4999999999999998E-002     10.612760944415939     
   4.5300000000000000E-002     9.4843878504489076     
   4.5600000000000002E-002     8.2694847868830461     
   4.5899999999999996E-002     7.0468101662040148     
   4.6200000000000005E-002     5.8774992399384045     
   4.6500000000000000E-002     4.8118269912597729     
   4.6799999999999994E-002     3.8796804069234261     
   4.7100000000000003E-002     3.0990815977087012     
   4.7399999999999998E-002     2.4758885036171039     
   4.7700000000000006E-002     1.9984229638255258     
   4.8000000000000001E-002     1.6529375021936810     
   4.8300000000000010E-002     1.4131689798763254     
   4.8600000000000004E-002     1.2502591872001454     
   4.8899999999999999E-002     1.1407654198962729     
   4.9200000000000008E-002     1.0559053305463704     
   4.9500000000000002E-002    0.97936240762585225     
   4.9800000000000011E-002    0.89937197539988734     
   5.0100000000000006E-002    0.80846733588282038     
   5.0400000000000000E-002    0.71110734342259896     
   5.0700000000000009E-002    0.60990115412317236     
   5.1000000000000004E-002    0.51368607715137793     
   5.1299999999999998E-002    0.43060472366676938     
   5.1600000000000007E-002    0.36300474425776746     
   5.1900000000000002E-002    0.31494814348734823     
   5.2200000000000010E-002    0.28363378785447135     
   5.2500000000000005E-002    0.26208264353404820     
   5.2800000000000000E-002    0.24549626613116926     
   5.3099999999999994E-002    0.22487632297983565     
   5.3400000000000003E-002    0.19352322657276386     
   5.3699999999999998E-002    0.15059621806406137     
   5.4000000000000006E-002     9.2516072587643272E-002
   5.4300000000000001E-002     2.4034071511818897E-002
   5.4599999999999996E-002    -4.9547438860294737E-002
   5.4900000000000004E-002   -0.12508986894354895     
   5.5199999999999999E-002   -0.19246984966394387     
   5.5499999999999994E-002   -0.25163982903383192     
   5.5800000000000002E-002   -0.29978475483882133     
   5.6099999999999997E-002   -0.33591863691267171     
   5.6400000000000006E-002   -0.36845674627071240     
   5.6700000000000000E-002   -0.39622613899048154     
   5.6999999999999995E-002   -0.42660852491233714     
   5.7300000000000004E-002   -0.46229525112307945     
   5.7599999999999998E-002   -0.49972144422125186     
   5.7900000000000007E-002   -0.54165617126273624     
   5.8200000000000002E-002   -0.57829505254092362     
   5.8499999999999996E-002   -0.60459558884598619     
   5.8800000000000005E-002   -0.61581794475079754     
   5.9100000000000000E-002   -0.60232256357597136     
   5.9400000000000008E-002   -0.56602159058707202     
   5.9700000000000003E-002   -0.50572772377603692     
   6.0000000000000012E-002   -0.42554138210324066     
   6.0300000000000006E-002   -0.33658863210341855     
   6.0600000000000001E-002   -0.24584384757064859     
   6.0900000000000010E-002   -0.16537252808759462     
   6.1200000000000004E-002   -0.10442082791875884     
   6.1500000000000013E-002    -6.6170677482809151E-002
   6.1800000000000008E-002    -5.6107232889879233E-002
   6.2100000000000002E-002    -7.0354338883227480E-002
   6.2399999999999997E-002   -0.10223704218423424     
   6.2700000000000006E-002   -0.14776422945674317     
   6.3000000000000000E-002   -0.19386350008180853     
   6.3300000000000009E-002   -0.23531512260377591     
   6.3600000000000004E-002   -0.26765035694451755     
   6.3899999999999998E-002   -0.28456497603341624     
   6.4199999999999993E-002   -0.29263041826214353     
   6.4500000000000002E-002   -0.29079514530229272     
   6.4800000000000010E-002   -0.28538051602493664     
   6.5100000000000005E-002   -0.28365477718695647     
   6.5400000000000000E-002   -0.28373116462449222     
   6.5700000000000008E-002   -0.29295226146786008     
   6.5999999999999989E-002   -0.30569138190786738     
   6.6299999999999998E-002   -0.31714116073448151     
   6.6600000000000006E-002   -0.32470516410010525     
   6.6900000000000001E-002   -0.31558516154314270     
   6.7199999999999996E-002   -0.28843218541280069     
   6.7500000000000004E-002   -0.23784027085843457     
   6.7800000000000013E-002   -0.16299828469331773     
   6.8099999999999994E-002    -7.1585672843428177E-002
   6.8400000000000002E-002     3.2012937035866010E-002
   6.8700000000000011E-002    0.13418566358305475     
   6.8999999999999992E-002    0.22358775600740266     
   6.9300000000000000E-002    0.29066433920844958     
   6.9600000000000009E-002    0.32470223206605159     
   6.9900000000000004E-002    0.32317531766394358     
   7.0199999999999999E-002    0.28722930782356371     
   7.0500000000000007E-002    0.22178911650878269     
   7.0800000000000016E-002    0.13879056277242943     
   7.1099999999999997E-002     5.1414939998577810E-002
   7.1400000000000005E-002    -2.7019231059027760E-002
   7.1700000000000000E-002    -8.2278971956945515E-002
   7.1999999999999995E-002   -0.10677541789161943     
   7.2300000000000003E-002    -9.5068229070845181E-002
   7.2600000000000012E-002    -4.8065150419582564E-002
   7.2900000000000006E-002     2.5388540802197171E-002
   7.3200000000000001E-002    0.11633363588610235     
   7.3499999999999996E-002    0.20884987256593684     
   7.3800000000000004E-002    0.28846930183914227     
   7.4099999999999999E-002    0.34342426572577234     
   7.4400000000000008E-002    0.36286841741147263     
   7.4700000000000003E-002    0.34470995288894285     
   7.5000000000000011E-002    0.29055891693025682     
   7.5299999999999992E-002    0.20972124903517800     
   7.5600000000000001E-002    0.11601920875832264     
   7.5900000000000009E-002     2.5863795500548584E-002
   7.6200000000000004E-002    -4.3081248416551532E-002
   7.6499999999999999E-002    -7.6695307875852825E-002
   7.6800000000000007E-002    -6.4002539865468208E-002
   7.7099999999999988E-002    -3.7287498628766208E-003
   7.7399999999999997E-002    0.10077233322480433     
   7.7700000000000005E-002    0.23436454008568358     
   7.8000000000000014E-002    0.37557871531895587     
   7.8299999999999995E-002    0.50083854495289681     
   7.8600000000000003E-002    0.57885904763526097     
   7.8900000000000012E-002    0.58775983695430734     
   7.9199999999999993E-002    0.50580959800929315     
   7.9500000000000001E-002    0.32242227642251564     
   7.9800000000000010E-002     4.3503428717127590E-002
   8.0100000000000018E-002   -0.32043085233511398     
   8.0399999999999999E-002   -0.73507344617581383     
   8.0700000000000008E-002    -1.1619886356094797     
   8.1000000000000003E-002    -1.5547996998430524     
   8.1299999999999997E-002    -1.8581584385202981     
   8.1600000000000006E-002    -2.0306773215859035     
   8.1900000000000014E-002    -2.0299487742035667     
   8.2199999999999995E-002    -1.8343212602880443     
   8.2500000000000004E-002    -1.4416626976821960     
   8.2799999999999999E-002   -0.86382551529659701     
   8.3100000000000007E-002   -0.14328893346223581     
   8.3400000000000002E-002    0.66811816737728413     
   8.3700000000000011E-002     1.5019974445312390     
   8.4000000000000005E-002     2.2811026665503804     
   8.4300000000000000E-002     2.9360837698138593     
   8.4599999999999995E-002     3.3999532486038944     
   8.4900000000000003E-002     3.6254805163042447     
   8.5199999999999998E-002     3.5878729694889260     
   8.5500000000000007E-002     3.2819134197186779     
   8.5800000000000001E-002     2.7316063395992396     
   8.6100000000000010E-002     1.9804335706659981     
   8.6399999999999991E-002     1.0878020201414191     
   8.6699999999999999E-002    0.12854179860271236     
   8.7000000000000008E-002   -0.82503127968292289     
   8.7300000000000003E-002    -1.7006591056028026     
   8.7599999999999997E-002    -2.4351351687151235     
   8.7900000000000006E-002    -2.9862249724243419     
   8.8200000000000014E-002    -3.3215898458009687     
   8.8499999999999995E-002    -3.4339345702933803     
   8.8800000000000004E-002    -3.3326867110746781     
   8.9100000000000013E-002    -3.0380685053945977     
   8.9399999999999993E-002    -2.5894990302115288     
   8.9700000000000002E-002    -2.0256166128877364     
   9.0000000000000011E-002    -1.3934516341253413     
   9.0299999999999991E-002   -0.73894087086724469     
   9.0600000000000000E-002   -0.10005645274274494     
   9.0900000000000009E-002    0.48362768714857940     
   9.1200000000000017E-002    0.98743519791147727     
   9.1499999999999998E-002     1.3898346055031952     
   9.1800000000000007E-002     1.6775299826420491     
   9.2100000000000001E-002     1.8477704904498597     
   9.2399999999999996E-002     1.9003099302516122     
   9.2700000000000005E-002     1.8455179721312522     
   9.3000000000000013E-002     1.6962118946435074     
   9.3300000000000008E-002     1.4710018078018381     
   9.3600000000000003E-002     1.1909223180138298     
   9.3899999999999997E-002    0.87801904413799359     
   9.4200000000000006E-002    0.55622902829236964     
   9.4500000000000001E-002    0.24524546813382414     
   9.4800000000000009E-002    -3.5002971139482364E-002
   9.5100000000000004E-002   -0.27209119959431910     
   9.5399999999999999E-002   -0.45616371720474236     
   9.5699999999999993E-002   -0.58320037966391891     
   9.6000000000000002E-002   -0.65651346459179716     
   9.6300000000000011E-002   -0.67853226258008692     
   9.6600000000000005E-002   -0.66112668951802922     
   9.6900000000000000E-002   -0.61300305402643884     
   9.7200000000000009E-002   -0.54421108544795604     
   9.7499999999999989E-002   -0.46698903542905917     
   9.7799999999999998E-002   -0.38565226824394677     
   9.8100000000000007E-002   -0.30889988992330730     
   9.8400000000000015E-002   -0.23865353567571790     
   9.8699999999999996E-002   -0.17577431280907557     
   9.9000000000000005E-002   -0.12260220759116902     
   9.9300000000000013E-002    -7.5583505585402333E-002
   9.9599999999999994E-002    -3.6221968852239744E-002
   9.9900000000000003E-002    -3.9500679821738854E-003
  0.10020000000000001          2.2454898964980166E-002
  0.10049999999999999          4.0941025596920755E-002
  0.10080000000000000          5.2291121963353754E-002
  0.10110000000000001          5.6836668879507751E-002
  0.10140000000000000          5.3955198722175704E-002
  0.10170000000000000          4.6597139356998440E-002
  0.10200000000000001          3.6535309979355238E-002
  0.10230000000000002          2.5601748289572679E-002
  0.10260000000000000          1.9111274932628743E-002
  0.10290000000000001          1.6253053264992087E-002
  0.10320000000000000          2.0451510688379131E-002
  0.10350000000000001          3.2490510788827691E-002
  0.10380000000000000          4.8351653634474773E-002
  0.10410000000000001          7.0480164132632653E-002
  0.10440000000000001          9.2141459022198835E-002
  0.10470000000000000         0.11220864987987043     
  0.10500000000000000         0.12947851513863939     
  0.10530000000000000         0.13801327574669825     
  0.10560000000000000         0.14249407756605909     
  0.10590000000000001         0.13902657051782122     
  0.10620000000000000         0.12997688727951451     
  0.10650000000000001         0.11931866771635628     
  0.10679999999999999         0.10414613635766881     
  0.10710000000000000          9.1013627689445792E-002
  0.10740000000000001          7.7609412165130176E-002
  0.10770000000000000          6.4698943382491172E-002
  0.10800000000000000          5.4495608149803830E-002
  0.10830000000000001          4.2344402373686724E-002
  0.10859999999999999          3.1351063423036722E-002
  0.10890000000000000          1.9256203087480071E-002
  0.10920000000000001          5.6141930393766304E-003
  0.10950000000000001         -6.6589175423134271E-003
  0.10979999999999999         -1.8685115399734876E-002
  0.11009999999999999         -2.7610024532110838E-002
  0.11040000000000001         -3.1931105413230743E-002
  0.11070000000000001         -3.1989842559329851E-002
  0.11100000000000000         -2.6158450280384438E-002
  0.11130000000000000         -1.5717602675163478E-002
  0.11160000000000002         -3.1093197443399292E-003
  0.11190000000000001          1.1967536125701849E-002
  0.11220000000000001          2.4720944917431951E-002
  0.11250000000000000          3.3937684954955083E-002
  0.11280000000000000          3.9031034778273931E-002
  0.11309999999999999          3.6035917712615162E-002
  0.11340000000000001          2.9390194201510282E-002
  0.11369999999999998          1.7312794766089788E-002
  0.11400000000000000          1.9286981867872345E-003
  0.11430000000000000         -1.2400305945465654E-002
  0.11460000000000002         -2.8441934854199311E-002
  0.11489999999999999         -3.9991644771892015E-002
  0.11520000000000001         -4.9675262253946098E-002
  0.11550000000000001         -5.7282654913077852E-002
  0.11580000000000000         -6.0357630700179285E-002
  0.11609999999999999         -6.5126927031772183E-002
  0.11640000000000002         -6.7640953039150145E-002
  0.11670000000000001         -7.1220428154093934E-002
  0.11700000000000001         -7.6308122407733117E-002
  0.11730000000000000         -7.8979494644204187E-002
  0.11760000000000000         -8.2466717263388667E-002
  0.11789999999999999         -8.1328353138513165E-002
  0.11820000000000001         -7.6815241932902512E-002
  0.11850000000000001         -6.8495705209403943E-002
  0.11880000000000000         -5.3547402879685436E-002
  0.11910000000000000         -3.6463068345244737E-002
  0.11940000000000002         -1.6223705520575823E-002
  0.11970000000000001          4.1282336361257825E-003
  0.12000000000000001          2.0910792373829763E-002
  0.12030000000000000          3.3694256196426582E-002
  0.12060000000000000          3.9098921147316827E-002
  0.12089999999999999          3.7095776306709453E-002
  0.12119999999999999          2.8862693970251548E-002
  0.12150000000000001          1.4235485277111951E-002
  0.12180000000000001         -3.0762211845841991E-003
  0.12210000000000000         -2.1100111328277223E-002
  0.12239999999999999         -3.8867057036172104E-002
  0.12270000000000002         -5.1697264307478175E-002
  0.12300000000000001         -6.1296532439431645E-002
  0.12330000000000001         -6.6438419433059281E-002
  0.12360000000000000         -6.6799540824379944E-002
  0.12390000000000000         -6.6659494175374465E-002
  0.12419999999999999         -6.3826228457118120E-002
  0.12450000000000001         -6.2211048069383490E-002
  0.12480000000000001         -6.1591469543162622E-002
  0.12509999999999999         -5.9884588832639363E-002
  0.12540000000000001         -5.9972406984398222E-002
  0.12570000000000003         -5.5886056420797393E-002
  0.12600000000000000         -4.9002747911095657E-002
  0.12630000000000002         -3.7635331363181299E-002
  0.12659999999999999         -1.8680774857083866E-002
  0.12690000000000001          3.4140817813860178E-003
  0.12719999999999998          3.1438012734269299E-002
  0.12750000000000000          6.0357010945087608E-002
  0.12780000000000002          8.7789626633014456E-002
  0.12809999999999999         0.11259668576753309     
  0.12840000000000001         0.12906158553290822     
  0.12869999999999998         0.13864781515817989     
  0.12900000000000000         0.13903451703103820     
  0.12930000000000003         0.13168821979621437     
  0.12959999999999999         0.11912672572838598     
  0.12990000000000002         0.10278736793231272     
  0.13019999999999998          8.6595725531740678E-002
  0.13050000000000000          7.2267948656402237E-002
  0.13080000000000003          6.1970432167314654E-002
  0.13109999999999999          5.5917461087994197E-002
  0.13140000000000002          5.4455758329116616E-002
  0.13169999999999998          5.5426360554431189E-002
  0.13200000000000001          5.7264417035217910E-002
  0.13229999999999997          5.8964472866052470E-002
  0.13260000000000000          5.7481924619903181E-002
  0.13290000000000002          5.4251135650243525E-002
  0.13319999999999999          4.7980008447155963E-002
  0.13350000000000001          4.0305975422832534E-002
  0.13380000000000003          3.4364214143471981E-002
  0.13410000000000000          2.9494090735470394E-002
  0.13440000000000002          3.0021878993638978E-002
  0.13469999999999999          3.4261671671101043E-002
  0.13500000000000001          4.2059555670265036E-002
  0.13529999999999998          5.3771222758041554E-002
  0.13560000000000000          6.4130656717258344E-002
  0.13590000000000002          7.2915112288866046E-002
  0.13619999999999999          7.5976648701788968E-002
  0.13650000000000001          7.0744332404465926E-002
  0.13680000000000003          5.8086420291203276E-002
  0.13710000000000000          3.6261205279714159E-002
  0.13740000000000002          8.5665557969899341E-003
  0.13769999999999999         -2.2068619796295118E-002
  0.13800000000000001         -5.3833632352173151E-002
  0.13829999999999998         -8.1697381052460424E-002
  0.13860000000000000        -0.10405762468552426     
  0.13890000000000002        -0.11996088510060467     
  0.13919999999999999        -0.12662076990782556     
  0.13950000000000001        -0.12737451542888550     
  0.13979999999999998        -0.12281954367001463     
  0.14010000000000000        -0.11426339543198163     
  0.14040000000000002        -0.10715207351769149     
  0.14069999999999999         -9.9363887595886019E-002
  0.14100000000000001         -9.4487780301201515E-002
  0.14130000000000004         -9.2188837996785150E-002
  0.14160000000000000         -8.8869386250331889E-002
  0.14189999999999997         -8.8044595364151323E-002
  0.14219999999999999         -8.3257178618983171E-002
  0.14250000000000002         -7.6432453984703802E-002
  0.14279999999999998         -6.7770389790657082E-002
  0.14310000000000000         -5.3815206460083760E-002
  0.14339999999999997         -4.1316875342318912E-002
  0.14369999999999999         -2.7781658013700083E-002
  0.14400000000000002         -1.7304376002800968E-002
  0.14429999999999998         -1.3212632099769507E-002
  0.14460000000000001         -1.3257463644324608E-002
  0.14490000000000003         -2.2095439586376248E-002
  0.14520000000000000         -3.5554511318672974E-002
  0.14550000000000002         -5.2444616616706047E-002
  0.14579999999999999         -7.1909585679140783E-002
  0.14610000000000001         -8.7903070769628860E-002
  0.14640000000000003        -0.10064437376425184     
  0.14670000000000000        -0.10693523965560170     
  0.14699999999999996        -0.10526781847044393     
  0.14729999999999999         -9.7385416636563013E-002
  0.14760000000000001         -8.3071824453550172E-002
  0.14789999999999998         -6.4653370781066727E-002
  0.14820000000000000         -4.4999579281001074E-002