  -1.4999999999999999E-002     0.0000000000000000     
  -1.4700000000000000E-002     0.0000000000000000     
  -1.4400000000000000E-002     0.0000000000000000     
  -1.4100000000000000E-002     0.0000000000000000     
  -1.3800000000000000E-002     0.0000000000000000     
  -1.3500000000000000E-002     0.0000000000000000     
  -1.3200000000000000E-002     0.0000000000000000     
  -1.2899999999999998E-002     0.0000000000000000     
  -1.2600000000000000E-002     0.0000000000000000     
  -1.2299999999999998E-002     0.0000000000000000     
  -1.2000000000000000E-002     0.0000000000000000     
  -1.1699999999999999E-002     0.0000000000000000     
  -1.1399999999999999E-002     0.0000000000000000     
  -1.1099999999999999E-002     0.0000000000000000     
  -1.0799999999999999E-002     0.0000000000000000     
  -1.0499999999999999E-002     0.0000000000000000     
  -1.0199999999999999E-002     0.0000000000000000     
  -9.8999999999999991E-003     0.0000000000000000     
  -9.5999999999999992E-003     0.0000000000000000     
  -9.2999999999999992E-003     0.0000000000000000     
  -8.9999999999999993E-003     0.0000000000000000     
  -8.6999999999999994E-003     0.0000000000000000     
  -8.3999999999999995E-003     0.0000000000000000     
  -8.0999999999999996E-003     0.0000000000000000     
  -7.7999999999999988E-003     0.0000000000000000     
  -7.4999999999999997E-003     0.0000000000000000     
  -7.1999999999999998E-003     0.0000000000000000     
  -6.8999999999999981E-003     0.0000000000000000     
  -6.5999999999999982E-003     0.0000000000000000     
  -6.3000000000000000E-003     0.0000000000000000     
  -6.0000000000000001E-003     0.0000000000000000     
  -5.6999999999999985E-003     0.0000000000000000     
  -5.3999999999999986E-003     0.0000000000000000     
  -5.1000000000000004E-003     0.0000000000000000     
  -4.7999999999999987E-003     0.0000000000000000     
  -4.5000000000000005E-003     0.0000000000000000     
  -4.1999999999999989E-003     0.0000000000000000     
  -3.8999999999999990E-003     0.0000000000000000     
  -3.5999999999999990E-003     0.0000000000000000     
  -3.2999999999999991E-003     0.0000000000000000     
  -2.9999999999999992E-003     0.0000000000000000     
  -2.6999999999999993E-003     0.0000000000000000     
  -2.3999999999999994E-003     0.0000000000000000     
  -2.0999999999999977E-003     0.0000000000000000     
  -1.7999999999999995E-003     0.0000000000000000     
  -1.4999999999999979E-003     0.0000000000000000     
  -1.1999999999999997E-003     0.0000000000000000     
  -8.9999999999999976E-004     0.0000000000000000     
  -5.9999999999999810E-004     0.0000000000000000     
  -2.9999999999999992E-004     0.0000000000000000     
   0.0000000000000000          0.0000000000000000     
   3.0000000000000165E-004     0.0000000000000000     
   5.9999999999999984E-004     0.0000000000000000     
   9.0000000000000149E-004     0.0000000000000000     
   1.2000000000000031E-003     0.0000000000000000     
   1.5000000000000013E-003     0.0000000000000000     
   1.8000000000000030E-003     0.0000000000000000     
   2.1000000000000012E-003     0.0000000000000000     
   2.3999999999999994E-003     0.0000000000000000     
   2.7000000000000010E-003     0.0000000000000000     
   2.9999999999999992E-003     0.0000000000000000     
   3.3000000000000008E-003     4.6918792401999743E-044
   3.6000000000000025E-003     4.5347567766850758E-042
   3.9000000000000007E-003     1.9455193361863754E-041
   4.2000000000000023E-003    -1.7984431497842674E-038
   4.5000000000000005E-003    -2.4876750160630754E-037
   4.7999999999999987E-003     3.9089313287972341E-036
   5.1000000000000004E-003    -1.0757372355846040E-035
   5.4000000000000020E-003    -2.0272833442102423E-034
   5.7000000000000037E-003     1.4137630506971850E-033
   5.9999999999999984E-003    -2.9816671239818137E-033
   6.3000000000000000E-003    -1.6285389132267224E-032
   6.6000000000000017E-003     1.9201041736352877E-031
   6.9000000000000034E-003    -8.3392691700825679E-031
   7.2000000000000015E-003    -3.0912048442112551E-032
   7.5000000000000032E-003     2.1532591769216119E-029
   7.8000000000000014E-003    -1.0788828041728030E-028
   8.0999999999999996E-003     1.0234162517682765E-029
   8.4000000000000012E-003     2.4218322157590483E-027
   8.7000000000000029E-003    -1.2229556365927721E-026
   9.0000000000000011E-003     1.3500264309925706E-026
   9.2999999999999992E-003     1.5260064983266538E-025
   9.6000000000000009E-003    -9.9778730919731226E-025
   9.8999999999999991E-003     2.8359109882001316E-024
   1.0200000000000001E-002    -1.4237923013039835E-024
   1.0500000000000002E-002    -2.3600855149415191E-023
   1.0800000000000004E-002     1.1460768642886160E-022
   1.1099999999999999E-002    -2.6680975536997025E-022
   1.1400000000000000E-002     1.4171370204871215E-022
   1.1700000000000002E-002     1.4428713503243745E-021
   1.2000000000000004E-002    -6.3030748093842611E-021
   1.2300000000000002E-002     1.2478293288720232E-020
   1.2600000000000000E-002     1.4695072034150413E-021
   1.2900000000000002E-002    -1.0925443306607166E-019
   1.3200000000000000E-002     4.6450374595876266E-019
   1.3500000000000002E-002    -1.1694703126941046E-018
   1.3800000000000003E-002     1.2519502784481415E-018
   1.4100000000000001E-002     6.8635398997667011E-018
   1.4400000000000000E-002    -6.6199195103803660E-017
   1.4700000000000001E-002     4.0282325732663629E-016
   1.4999999999999999E-002    -2.1325343095855964E-015
   1.5300000000000001E-002     1.0268355742674047E-014
   1.5600000000000003E-002    -4.4441434777044304E-014
   1.5899999999999997E-002     1.6742525715962838E-013
   1.6199999999999999E-002    -5.1932299539219733E-013
   1.6500000000000001E-002     1.1656911476494341E-012
   1.6800000000000002E-002    -9.5106565597856563E-013
   1.7100000000000004E-002    -6.1582744305685818E-012
   1.7400000000000006E-002     3.4982209149849139E-011
   1.7700000000000000E-002    -9.0525090499836311E-011
   1.8000000000000002E-002     7.4680748868852201E-011
   1.8300000000000004E-002     3.3131102910627840E-010
   1.8600000000000005E-002    -1.2650353535454038E-009
   1.8900000000000000E-002     1.0357915543183703E-009
   1.9200000000000002E-002     4.2103706298781616E-009
   1.9500000000000003E-002    -1.0414218656562640E-008
   1.9799999999999998E-002    -6.9422648709350226E-009
   2.0100000000000000E-002     4.5908148293780200E-008
   2.0400000000000001E-002     7.4969423418498770E-009
   2.0700000000000003E-002    -1.7586859527451005E-007
   2.0999999999999998E-002    -8.5064419802469324E-008
   2.1299999999999999E-002     4.8667995339722960E-007
   2.1600000000000001E-002     5.2885322534890396E-007
   2.1900000000000003E-002    -8.8639531409910279E-007
   2.2200000000000004E-002    -1.9301310388908700E-006
   2.2500000000000006E-002     1.0369810399285575E-006
   2.2800000000000001E-002     8.3666135512059021E-006
   2.3100000000000002E-002     1.5409906863895004E-005
   2.3400000000000004E-002     1.9145849569341455E-005
   2.3699999999999999E-002     2.5086861827067038E-005
   2.4000000000000000E-002     4.3303155234978099E-005
   2.4300000000000002E-002     7.7855098297018900E-005
   2.4599999999999997E-002     1.2530747153233142E-004
   2.4900000000000005E-002     1.8642349455497338E-004
   2.5200000000000000E-002     2.7591346736374289E-004
   2.5499999999999995E-002     4.1665047375129028E-004
   2.5800000000000003E-002     6.2741591029034580E-004
   2.6099999999999998E-002     9.2374198205683370E-004
   2.6400000000000007E-002     1.3323458692992445E-003
   2.6700000000000002E-002     1.8992293769444185E-003
   2.6999999999999996E-002     2.6808105735037870E-003
   2.7300000000000005E-002     3.7334078648855332E-003
   2.7600000000000000E-002     5.1179851476234519E-003
   2.7900000000000008E-002     6.9115391245889446E-003
   2.8200000000000003E-002     9.2046124262166271E-003
   2.8499999999999998E-002     1.2085207361738395E-002
   2.8800000000000006E-002     1.5627429292668766E-002
   2.9100000000000001E-002     1.9891018498678862E-002
   2.9400000000000003E-002     2.4916844253627397E-002
   2.9700000000000004E-002     3.0708793143217006E-002
   3.0000000000000006E-002     3.7210503542228948E-002
   3.0300000000000001E-002     4.4290130634368569E-002
   3.0600000000000002E-002     5.1732805440619312E-002
   3.0900000000000004E-002     5.9233742527466465E-002
   3.1199999999999999E-002     6.6387452042038470E-002
   3.1500000000000007E-002     7.2685118024712225E-002
   3.1800000000000002E-002     7.7529540377121203E-002
   3.2099999999999997E-002     8.0264681581917144E-002
   3.2400000000000005E-002     8.0213415912967725E-002
   3.2700000000000000E-002     7.6723340483475344E-002
   3.3000000000000002E-002     6.9217952491236301E-002
   3.3300000000000003E-002     5.7269080452242993E-002
   3.3599999999999998E-002     4.0660271785550831E-002
   3.3900000000000000E-002     1.9437496969931561E-002
   3.4200000000000001E-002    -6.0420263873175702E-003
   3.4500000000000003E-002    -3.5081769499924947E-002
   3.4799999999999998E-002    -6.6662370031511597E-002
   3.5099999999999999E-002    -9.9466014714196083E-002
   3.5400000000000001E-002   -0.13193529581450542     
   3.5699999999999996E-002   -0.16238216192988364     
   3.6000000000000004E-002   -0.18909930760983309     
   3.6299999999999999E-002   -0.21048452253175992     
   3.6600000000000008E-002   -0.22518864697787422     
   3.6900000000000002E-002   -0.23222978217198798     
   3.7199999999999997E-002   -0.23108459578187546     
   3.7500000000000006E-002   -0.22176418894265121     
   3.7800000000000000E-002   -0.20483842985806464     
   3.8100000000000009E-002   -0.18142285768230965     
   3.8400000000000004E-002   -0.15307276981426726     
   3.8699999999999998E-002   -0.12167240165828752     
   3.9000000000000007E-002    -8.9371366116613588E-002
   3.9300000000000002E-002    -5.8362288855376268E-002
   3.9600000000000003E-002    -3.0733468906372095E-002
   3.9900000000000005E-002    -8.3549893944608860E-003
   4.0200000000000000E-002     7.3253780792755484E-003
   4.0500000000000001E-002     1.5290912392167379E-002
   4.0800000000000003E-002     1.4993849712754925E-002
   4.1100000000000005E-002     6.4747457198729491E-003
   4.1399999999999999E-002    -9.6897780026558473E-003
   4.1700000000000008E-002    -3.2445704153011963E-002
   4.2000000000000003E-002    -6.0288014162476422E-002
   4.2299999999999997E-002    -9.1389297725189556E-002
   4.2600000000000006E-002   -0.12365025241914185     
   4.2900000000000001E-002   -0.15479520049923542     
   4.3200000000000002E-002   -0.18249929547747937     
   4.3500000000000004E-002   -0.20446032051153448     
   4.3799999999999999E-002   -0.21856357232473514     
   4.4100000000000000E-002   -0.22300957015800263     
   4.4400000000000002E-002   -0.21635193269664227     
   4.4700000000000004E-002   -0.19762335650333496     
   4.4999999999999998E-002   -0.16646048765198082     
   4.5300000000000000E-002   -0.12308580746635955     
   4.5600000000000002E-002    -6.8353978504462287E-002
   4.5899999999999996E-002    -3.7573940071582955E-003
   4.6200000000000005E-002     6.8710502180216099E-002
   4.6500000000000000E-002    0.14663895749273628     
   4.6799999999999994E-002    0.22733973671324065     
   4.7100000000000003E-002    0.30802712935874210     
   4.7399999999999998E-002    0.38593799886541469     
   4.7700000000000006E-002    0.45853561327633341     
   4.8000000000000001E-002    0.52369794592485108     
   4.8300000000000010E-002    0.57968405233670284     
   4.8600000000000004E-002    0.62521965727006124     
   4.8899999999999999E-002    0.65956393267951574     
   4.9200000000000008E-002    0.68236348142456960     
   4.9500000000000002E-002    0.69362813913736798     
   4.9800000000000011E-002    0.69366668404192300     
   5.0100000000000006E-002    0.68291065210754509     
   5.0400000000000000E-002    0.66185441726311045     
   5.0700000000000009E-002    0.63097962064428259     
   5.1000000000000004E-002    0.59069643067752031     
   5.1299999999999998E-002    0.54144347100516255     
   5.1600000000000007E-002    0.48360861552944912     
   5.1900000000000002E-002    0.41755823643489948     
   5.2200000000000010E-002    0.34384783261398211     
   5.2500000000000005E-002    0.26315036789019208     
   5.2800000000000000E-002    0.17639212205648688     
   5.3099999999999994E-002     8.4856186073887049E-002
   5.3400000000000003E-002    -9.9116863796776533E-003
   5.3699999999999998E-002   -0.10599696835898359     
   5.4000000000000006E-002   -0.20118142457553592     
   5.4300000000000001E-002   -0.29305851820983608     
   5.4599999999999996E-002   -0.37901208509050627     
   5.4900000000000004E-002   -0.45638604385256798     
   5.5199999999999999E-002   -0.52271379160451703     
   5.5499999999999994E-002   -0.57571002901281143     
   5.5800000000000002E-002   -0.61343370103940675     
   5.6099999999999997E-002   -0.63444881008872822     
   5.6400000000000006E-002   -0.63791891070276163     
   5.6700000000000000E-002   -0.62371031844621627     
   5.6999999999999995E-002   -0.59236780419613178     
   5.7300000000000004E-002   -0.54507923978243900     
   5.7599999999999998E-002   -0.48366555477283990     
   5.7900000000000007E-002   -0.41052595110096329     
   5.8200000000000002E-002   -0.32852101744806145     
   5.8499999999999996E-002   -0.24086699799519279     
   5.8800000000000005E-002   -0.15094190517327488     
   5.9100000000000000E-002    -6.2156257813862900E-002
   5.9400000000000008E-002     2.2086738162610010E-002
   5.9700000000000003E-002     9.8570991121274237E-002
   6.0000000000000012E-002    0.16436454861165922     
   6.0300000000000006E-002    0.21680805273598955     
   6.0600000000000001E-002    0.25367394209967492     
   6.0900000000000010E-002    0.27327883244343354     
   6.1200000000000004E-002    0.27454755011187454     
   6.1500000000000013E-002    0.25711921448463926     
   6.1800000000000008E-002    0.22137901260005949     
   6.2100000000000002E-002    0.16864007247169371     
   6.2399999999999997E-002    0.10123868565857272     
   6.2700000000000006E-002     2.2509211004134024E-002
   6.3000000000000000E-002    -6.3245978950482826E-002
   6.3300000000000009E-002   -0.15100043692468013     
   6.3600000000000004E-002   -0.23522493027142904     
   6.3899999999999998E-002   -0.31014845266457280     
   6.4199999999999993E-002   -0.37024163687717399     
   6.4500000000000002E-002   -0.41080738367314912     
   6.4800000000000010E-002   -0.42845234517495345     
   6.5100000000000005E-002   -0.42146009735211620     
   6.5400000000000000E-002   -0.39018509314101257     
   6.5700000000000008E-002   -0.33728383613779811     
   6.5999999999999989E-002   -0.26764882445379568     
   6.6299999999999998E-002   -0.18814610121051190     
   6.6600000000000006E-002   -0.10714212241020202     
   6.6900000000000001E-002    -3.3824421482772482E-002
   6.7199999999999996E-002     2.2557478489589371E-002
   6.7500000000000004E-002     5.3630390030598565E-002
   6.7800000000000013E-002     5.2835422986642025E-002
   6.8099999999999994E-002     1.6229595311353581E-002
   6.8400000000000002E-002    -5.6917087946239148E-002
   6.8700000000000011E-002   -0.16392672596187516     
   6.8999999999999992E-002   -0.29861334974370335     
   6.9300000000000000E-002   -0.45144411788820249     
   6.9600000000000009E-002   -0.61022141730888912     
   6.9900000000000004E-002   -0.76105989607043334     
   7.0199999999999999E-002   -0.88949758551409164     
   7.0500000000000007E-002   -0.98157051433411935     
   7.0800000000000016E-002    -1.0249494936559294     
   7.1099999999999997E-002    -1.0100424661715195     
   7.1400000000000005E-002   -0.93088879494727839     
   7.1700000000000000E-002   -0.78575681965349720     
   7.1999999999999995E-002   -0.57732251776632793     
   7.2300000000000003E-002   -0.31255525461024797     
   7.2600000000000012E-002    -2.3995956743165445E-003
   7.2900000000000006E-002    0.33884785922180483     
   7.3200000000000001E-002    0.69438700155871347     
   7.3499999999999996E-002     1.0460069987176377     
   7.3800000000000004E-002     1.3751949755792543     
   7.4099999999999999E-002     1.6640069097783636     
   7.4400000000000008E-002     1.8960597908902765     
   7.4700000000000003E-002     2.0575141069138425     
   7.5000000000000011E-002     2.1378114422151979     
   7.5299999999999992E-002     2.1302608903271758     
   7.5600000000000001E-002     2.0324362895756374     
   7.5900000000000009E-002     1.8463489934225725     
   7.6200000000000004E-002     1.5785037438445582     
   7.6499999999999999E-002     1.2397691344052233     
   7.6800000000000007E-002    0.84487666447513354     
   7.7099999999999988E-002    0.41184344507331894     
   7.7399999999999997E-002    -3.9018721711507720E-002
   7.7700000000000005E-002   -0.48621070687757473     
   7.8000000000000014E-002   -0.90796925179107491     
   7.8299999999999995E-002    -1.2836576842608562     
   7.8600000000000003E-002    -1.5951670721679134     
   7.8900000000000012E-002    -1.8277676446439495     
   7.9199999999999993E-002    -1.9710259219541202     
   7.9500000000000001E-002    -2.0193444299686281     
   7.9800000000000010E-002    -1.9722266058899804     
   8.0100000000000018E-002    -1.8342449758431605     
   8.0399999999999999E-002    -1.6143149639036289     
   8.0700000000000008E-002    -1.3249561255583364     
   8.1000000000000003E-002   -0.98141643875409112     
   8.1299999999999997E-002   -0.60066334812983624     
   8.1600000000000006E-002   -0.20030207689313245     
   8.1900000000000014E-002    0.20247551151366400     
   8.2199999999999995E-002    0.59159962871902716     
   8.2500000000000004E-002    0.95256722653387915     
   8.2799999999999999E-002     1.2728052201387745     
   8.3100000000000007E-002     1.5420109492928920     
   8.3400000000000002E-002     1.7521490228260288     
   8.3700000000000011E-002     1.8972486506231383     
   8.4000000000000005E-002     1.9734353333523669     
   8.4300000000000000E-002     1.9790014871188855     
   8.4599999999999995E-002     1.9142747076057463     
   8.4900000000000003E-002     1.7818487436143498     
   8.5199999999999998E-002     1.5864015909430658     
   8.5500000000000007E-002     1.3345833111303425     
   8.5800000000000001E-002     1.0352307386196857     
   8.6100000000000010E-002    0.69892875037553759     
   8.6399999999999991E-002    0.33758019369430409     
   8.6699999999999999E-002    -3.6037949615367264E-002
   8.7000000000000008E-002   -0.40889659391027966     
   8.7300000000000003E-002   -0.76834646181868349     
   8.7599999999999997E-002    -1.1028866995496824     
   8.7900000000000006E-002    -1.4027449099506895     
   8.8200000000000014E-002    -1.6600274962352564     
   8.8499999999999995E-002    -1.8688617529104352     
   8.8800000000000004E-002    -2.0255505464685144     
   8.9100000000000013E-002    -2.1282804512522251     
   8.9399999999999993E-002    -2.1766822045779155     
   8.9700000000000002E-002    -2.1713169515608501     
   9.0000000000000011E-002    -2.1130482683101630     
   9.0299999999999991E-002    -2.0030338681330258     
   9.0600000000000000E-002    -1.8425614921618183     
   9.0900000000000009E-002    -1.6327781190052888     
   9.1200000000000017E-002    -1.3749883920338923     
   9.1499999999999998E-002    -1.0711024358326262     
   9.1800000000000007E-002   -0.72410304690971172     
   9.2100000000000001E-002   -0.33860040524940427     
   9.2399999999999996E-002     7.8884473790421183E-002
   9.2700000000000005E-002    0.51954515437640658     
   9.3000000000000013E-002    0.97214729309225945     
   9.3300000000000008E-002     1.4233225349314071     
   9.3600000000000003E-002     1.8578421531575220     
   9.3899999999999997E-002     2.2591882978802857     
   9.4200000000000006E-002     2.6105186746518871     
   9.4500000000000001E-002     2.8955372988505905     
   9.4800000000000009E-002     3.0991214060974381     
   9.5100000000000004E-002     3.2082906815296814     
   9.5399999999999999E-002     3.2131304704217927     
   9.5699999999999993E-002     3.1073157822550255     
   9.6000000000000002E-002     2.8886115357895457     
   9.6300000000000011E-002     2.5592591433402152     
   9.6600000000000005E-002     2.1259871906373977     
   9.6900000000000000E-002     1.6001524789025343     
   9.7200000000000009E-002    0.99761271353483361     
   9.7499999999999989E-002    0.33819364245492856     
   9.7799999999999998E-002   -0.35472909676371417     
   9.8100000000000007E-002    -1.0552485835710534     
   9.8400000000000015E-002    -1.7356798165479894     
   9.8699999999999996E-002    -2.3674930999904702     
   9.9000000000000005E-002    -2.9230583926189282     
   9.9300000000000013E-002    -3.3769449445266253     
   9.9599999999999994E-002    -3.7071856321951069     
   9.9900000000000003E-002    -3.8967031501591958     
  0.10020000000000001         -3.9341488315845385     
  0.10049999999999999         -3.8150081037189567     
  0.10080000000000000         -3.5424014162778610     
  0.10110000000000001         -3.1265958777261451     
  0.10140000000000000         -2.5847000926285801     
  0.10170000000000000         -1.9403699115202855     
  0.10200000000000001         -1.2223626367498848     
  0.10230000000000002        -0.46298022283740659     
  0.10260000000000000         0.30352480710767599     
  0.10290000000000001          1.0425673251197556     
  0.10320000000000000          1.7207901835243260     
  0.10350000000000001          2.3079477683760778     
  0.10380000000000000          2.7786092174442829     
  0.10410000000000001          3.1127182344506616     
  0.10440000000000001          3.2965311253336909     
  0.10470000000000000          3.3235980544036985     
  0.10500000000000000          3.1944941636359920     
  0.10530000000000000          2.9169679690418091     
  0.10560000000000000          2.5053366875089216     
  0.10590000000000001          1.9795534046697227     
  0.10620000000000000          1.3649952798208129     
  0.10650000000000001         0.69105696917929782     
  0.10679999999999999         -1.0489326067892948E-002
  0.10710000000000000        -0.70620724285702396     
  0.10740000000000001         -1.3624807918923800     
  0.10770000000000000         -1.9471354159336993     
  0.10800000000000000         -2.4307674142842917     
  0.10830000000000001         -2.7883718643773983     
  0.10859999999999999         -3.0002463287835308     
  0.10890000000000000         -3.0530864039133316     
  0.10920000000000001         -2.9416706789259699     
  0.10950000000000001         -2.6691391919761336     
  0.10979999999999999         -2.2469761716450591     
  0.11009999999999999         -1.6953509682346322     
  0.11040000000000001         -1.0421352192617244     
  0.11070000000000001        -0.32175884500601437     
  0.11100000000000000         0.42636044153087271     
  0.11130000000000000          1.1605477727564117     
  0.11160000000000002          1.8392633312774396     
  0.11190000000000001          2.4236651844191295     
  0.11220000000000001          2.8806581882335451     
  0.11250000000000000          3.1851287325999831     
  0.11280000000000000          3.3219420636323123     
  0.11309999999999999          3.2870014280396083     
  0.11340000000000001          3.0870612787218423     
  0.11369999999999998          2.7391812563375564     
  0.11400000000000000          2.2691156873749758     
  0.11430000000000000          1.7086600589687029     
  0.11460000000000002          1.0926621093440003     
  0.11489999999999999         0.45599735684412734     
  0.11520000000000001        -0.16956544831707632     
  0.11550000000000001        -0.75764979362646945     
  0.11580000000000000         -1.2887820700628749     
  0.11609999999999999         -1.7513630226958072     
  0.11640000000000002         -2.1409340343189518     
  0.11670000000000001         -2.4587069094078551     
  0.11700000000000001         -2.7098876681987472     
  0.11730000000000000         -2.9009388045990550     
  0.11760000000000000         -3.0371878548305640     
  0.11789999999999999         -3.1209141610177551     
  0.11820000000000001         -3.1494939785233016     
  0.11850000000000001         -3.1156437581025935     
  0.11880000000000000         -3.0082482247216142     
  0.11910000000000000         -2.8135540401872854     
  0.11940000000000002         -2.5181057581618234     
  0.11970000000000001         -2.1118768696324195     
  0.12000000000000001         -1.5912590887357247     
  0.12030000000000000        -0.96168018606099492     
  0.12060000000000000        -0.23880965623828032     
  0.12089999999999999         0.55081525443632806     
  0.12119999999999999          1.3703424263942161     
  0.12150000000000001          2.1756410535543367     
  0.12180000000000001          2.9189788494424942     
  0.12210000000000000          3.5530386291542855     
  0.12239999999999999          4.0358688616689760     
  0.12270000000000002          4.3351415241426752     
  0.12300000000000001          4.4315099861334488     
  0.12330000000000001          4.3213950276058899     
  0.12360000000000000          4.0174080267013235     
  0.12390000000000000          3.5470892026835754     
  0.12419999999999999          2.9508378074047141     
  0.12450000000000001          2.2778388115091448     
  0.12480000000000001          1.5815325456145097     
  0.12509999999999999         0.91493239367669776     
  0.12540000000000001         0.32535547570682655     
  0.12570000000000003        -0.14911938434891914     
  0.12600000000000000        -0.48220504561642696     
  0.12630000000000002        -0.66165198940725445     
  0.12659999999999999        -0.68904108704551115     
  0.12690000000000001        -0.57863198904587765     
  0.12719999999999998        -0.35562135194251876     
  0.12750000000000000         -5.2700614570099336E-002
  0.12780000000000002         0.29292390733525109     
  0.12809999999999999         0.64235925665251092     
  0.12840000000000001         0.95856141842934495     
  0.12869999999999998          1.2083838181601654     
  0.12900000000000000          1.3642520059662171     
  0.12930000000000003          1.4054573579124479     
  0.12959999999999999          1.3177025684691033     
  0.12990000000000002          1.0931710575231304     
  0.13019999999999998         0.73033497797656355     
  0.13050000000000000         0.23258298650630244     
  0.13080000000000003        -0.39218215656353017     
  0.13109999999999999         -1.1322446573669136     
  0.13140000000000002         -1.9722022313797072     
  0.13169999999999998         -2.8921299999608383     
  0.13200000000000001         -3.8676918435514596     
  0.13229999999999997         -4.8698616342540904     
  0.13260000000000000         -5.8637631739282625     
  0.13290000000000002         -6.8086330378937578     
  0.13319999999999999         -7.6583101268798597     
  0.13350000000000001         -8.3627022051878992     
  0.13380000000000003         -8.8702415161706636     
  0.13410000000000000         -9.1304093815030214     
  0.13440000000000002         -9.0973945790779958     
  0.13469999999999999         -8.7349552043075889     
  0.13500000000000001         -8.0204101123248890     
  0.13529999999999998         -6.9478032503439691     
  0.13560000000000000         -5.5308566054431987     
  0.13590000000000002         -3.8041408297700192     
  0.13619999999999999         -1.8222133036731614     
  0.13650000000000001         0.34232617117821473     
  0.13680000000000003          2.6031500332551598     
  0.13710000000000000          4.8657636185712105     
  0.13740000000000002          7.0335194579347782     
  0.13769999999999999          9.0144130058109049     
  0.13800000000000001          10.726539706051209     
  0.13829999999999998          12.103867667374786     
  0.13860000000000000          13.099879473696973     
  0.13890000000000002          13.687785578199877     
  0.13919999999999999          13.862062686887084     
  0.13950000000000001          13.637038693107719     
  0.13979999999999998          13.042509799334887     
  0.14010000000000000          12.120678321979710     
  0.14040000000000002          10.921777759822763     
  0.14069999999999999          9.4997629069790896     
  0.14100000000000001          7.9087577401120939     
  0.14130000000000004          6.1998030473625736     
  0.14160000000000000          4.4193153269880856     
  0.14189999999999997          2.6084567612494016     
  0.14219999999999999         0.80258937573411560     
  0.14250000000000002        -0.96781457417835559     
  0.14279999999999998         -2.6759267112085592     
  0.14310000000000000         -4.2970265446200298     
  0.14339999999999997         -5.8066919944931179     
  0.14369999999999999         -7.1800836018112353     
  0.14400000000000002         -8.3919325017608468     
  0.14429999999999998         -9.4148228175885862     
  0.14460000000000001         -10.220417302665751     
  0.14490000000000003         -10.781662295144709     
  0.14520000000000000         -11.073572014760101     
  0.14550000000000002         -11.075539821853276     
  0.14579999999999999         -10.774342900958674     
  0.14610000000000001         -10.166690821968929     
  0.14640000000000003         -9.2612899799965582     
  0.14670000000000000         -8.0813265847232785     
  0.14699999999999996         -6.6650212455599718     
  0.14729999999999999         -5.0642045879147437     
  0.14760000000000001         -3.3439881877008357     
  0.14789999999999998         -1.5802049605492670     
  0.14820000000000000         0.14539769893390597     