  -1.4999999999999999E-002     0.0000000000000000     
  -1.4700000000000000E-002     0.0000000000000000     
  -1.4400000000000000E-002     0.0000000000000000     
  -1.4100000000000000E-002     0.0000000000000000     
  -1.3800000000000000E-002     0.0000000000000000     
  -1.3500000000000000E-002     0.0000000000000000     
  -1.3200000000000000E-002     0.0000000000000000     
  -1.2899999999999998E-002     0.0000000000000000     
  -1.2600000000000000E-002     0.0000000000000000     
  -1.2299999999999998E-002     0.0000000000000000     
  -1.2000000000000000E-002     0.0000000000000000     
  -1.1699999999999999E-002     0.0000000000000000     
  -1.1399999999999999E-002     0.0000000000000000     
  -1.1099999999999999E-002     0.0000000000000000     
  -1.0799999999999999E-002     0.0000000000000000     
  -1.0499999999999999E-002     0.0000000000000000     
  -1.0199999999999999E-002     0.0000000000000000     
  -9.8999999999999991E-003     0.0000000000000000     
  -9.5999999999999992E-003     0.0000000000000000     
  -9.2999999999999992E-003     0.0000000000000000     
  -8.9999999999999993E-003     0.0000000000000000     
  -8.6999999999999994E-003     0.0000000000000000     
  -8.3999999999999995E-003     0.0000000000000000     
  -8.0999999999999996E-003     0.0000000000000000     
  -7.7999999999999988E-003     0.0000000000000000     
  -7.4999999999999997E-003     0.0000000000000000     
  -7.1999999999999998E-003     0.0000000000000000     
  -6.8999999999999981E-003     0.0000000000000000     
  -6.5999999999999982E-003     0.0000000000000000     
  -6.3000000000000000E-003     0.0000000000000000     
  -6.0000000000000001E-003     0.0000000000000000     
  -5.6999999999999985E-003     8.3354011779284675E-059
  -5.3999999999999986E-003    -4.9270111979003587E-058
  -5.1000000000000004E-003    -7.5658250128716744E-044
  -4.7999999999999987E-003    -5.9913543438432460E-038
  -4.5000000000000005E-003     2.5065229514192397E-036
  -4.1999999999999989E-003    -1.6558872707176488E-035
  -3.8999999999999990E-003     1.0491961859815937E-035
  -3.5999999999999990E-003     1.8029565033416429E-034
  -3.2999999999999991E-003    -5.0855186268396193E-034
  -2.9999999999999992E-003     3.7604801112231349E-034
  -2.6999999999999993E-003    -4.9090573395340430E-034
  -2.3999999999999994E-003     1.2434234536348108E-032
  -2.0999999999999977E-003    -5.1719441174301534E-032
  -1.7999999999999995E-003     7.3957624662507660E-032
  -1.4999999999999979E-003     9.9731451459613113E-032
  -1.1999999999999997E-003    -7.0571750443848126E-031
  -8.9999999999999976E-004     2.2050534968045348E-030
  -5.9999999999999810E-004    -7.5586028996825630E-030
  -2.9999999999999992E-004     2.7483161794695733E-029
   0.0000000000000000         -7.8685129552697508E-029
   3.0000000000000165E-004     1.4614177216048470E-028
   5.9999999999999984E-004    -9.9798125256545477E-029
   9.0000000000000149E-004    -2.9289773853994203E-028
   1.2000000000000031E-003     8.7116897810868776E-028
   1.5000000000000013E-003     2.4582452675705249E-028
   1.8000000000000030E-003    -8.4942108595900265E-027
   2.1000000000000012E-003     3.3870446435612853E-026
   2.3999999999999994E-003    -8.6762478838350324E-026
   2.7000000000000010E-003     1.4659288826022094E-025
   2.9999999999999992E-003    -6.1318577218318913E-026
   3.3000000000000008E-003    -2.7747810680145413E-025
   3.6000000000000025E-003    -2.4828337153254257E-024
   3.9000000000000007E-003     3.1928074017242088E-023
   4.2000000000000023E-003    -1.6957641402730775E-022
   4.5000000000000005E-003     5.1437448520545420E-022
   4.7999999999999987E-003    -4.5528805692681501E-022
   5.1000000000000004E-003    -4.8362098575327103E-021
   5.4000000000000020E-003     3.5795322052874527E-020
   5.7000000000000037E-003    -1.5725492405948484E-019
   5.9999999999999984E-003     5.4096564940470053E-019
   6.3000000000000000E-003    -1.6060826700162945E-018
   6.6000000000000017E-003     4.4420323802784787E-018
   6.9000000000000034E-003    -1.2488762346530547E-017
   7.2000000000000015E-003     3.8596797221038648E-017
   7.5000000000000032E-003    -1.3289922193241763E-016
   7.8000000000000014E-003     4.8181120350493949E-016
   8.0999999999999996E-003    -1.7063254407733206E-015
   8.4000000000000012E-003     5.4839062714361989E-015
   8.7000000000000029E-003    -1.4269238237527679E-014
   9.0000000000000011E-003     1.9424232477297684E-014
   9.2999999999999992E-003     7.4697672023433816E-014
   9.6000000000000009E-003    -7.6142351982350728E-013
   9.8999999999999991E-003     3.7460619760768670E-012
   1.0200000000000001E-002    -1.2534148358255792E-011
   1.0500000000000002E-002     2.6314534340003635E-011
   1.0800000000000004E-002    -8.3246606271222964E-012
   1.1099999999999999E-002    -1.7491466641831908E-010
   1.1400000000000000E-002     6.7330920262874367E-010
   1.1700000000000002E-002    -9.1641272068824980E-010
   1.2000000000000004E-002    -1.5868602104396224E-009
   1.2300000000000002E-002     8.5245207335225610E-009
   1.2600000000000000E-002    -7.5184366818390264E-009
   1.2900000000000002E-002    -2.8330703464701262E-008
   1.3200000000000000E-002     6.1645768350470603E-008
   1.3500000000000002E-002     6.6067175177103821E-008
   1.3800000000000003E-002    -2.6160472711429710E-007
   1.4100000000000001E-002    -2.4682839440415260E-007
   1.4400000000000000E-002     7.3194115637083085E-007
   1.4700000000000001E-002     1.0241371885832956E-006
   1.4999999999999999E-002    -1.4360676464120890E-006
   1.5300000000000001E-002    -3.5598778578219418E-006
   1.5600000000000003E-002     2.4049583627416093E-006
   1.5899999999999997E-002     1.8795926655982882E-005
   1.6199999999999999E-002     3.7326400104640094E-005
   1.6500000000000001E-002     5.1052234218617176E-005
   1.6800000000000002E-002     6.9119852214195602E-005
   1.7100000000000004E-002     1.1143780555112358E-004
   1.7400000000000006E-002     1.8906089567460196E-004
   1.7700000000000000E-002     2.9986630485165562E-004
   1.8000000000000002E-002     4.4948578603266025E-004
   1.8300000000000004E-002     6.6948214247527507E-004
   1.8600000000000005E-002     1.0067372890446417E-003
   1.8900000000000000E-002     1.5021646065030622E-003
   1.9200000000000002E-002     2.1951830736936890E-003
   1.9500000000000003E-002     3.1508427779296192E-003
   1.9799999999999998E-002     4.4698624230675409E-003
   2.0100000000000000E-002     6.2678403358222886E-003
   2.0400000000000001E-002     8.6592495624238566E-003
   2.0700000000000003E-002     1.1771058236030951E-002
   2.0999999999999998E-002     1.5757460781686442E-002
   2.1299999999999999E-002     2.0781309201754708E-002
   2.1600000000000001E-002     2.6978860641525874E-002
   2.1900000000000003E-002     3.4442597281404815E-002
   2.2200000000000004E-002     4.3217123871443219E-002
   2.2500000000000006E-002     5.3272435049682952E-002
   2.2800000000000001E-002     6.4452552891862386E-002
   2.3100000000000002E-002     7.6431894443630938E-002
   2.3400000000000004E-002     8.8699059267499381E-002
   2.3699999999999999E-002    0.10054446148740030     
   2.4000000000000000E-002    0.11103447626896711     
   2.4300000000000002E-002    0.11900620205840902     
   2.4599999999999997E-002    0.12310238891269019     
   2.4900000000000005E-002    0.12183971563083815     
   2.5200000000000000E-002    0.11370472343640345     
   2.5499999999999995E-002     9.7264695517310706E-002
   2.5800000000000003E-002     7.1303183084837615E-002
   2.6099999999999998E-002     3.4986104899490389E-002
   2.6400000000000007E-002    -1.1968514532971696E-002
   2.6700000000000002E-002    -6.9136346820466918E-002
   2.6999999999999996E-002   -0.13527078581572122     
   2.7300000000000005E-002   -0.20824868691529133     
   2.7600000000000000E-002   -0.28507910381009771     
   2.7900000000000008E-002   -0.36199496324047581     
   2.8200000000000003E-002   -0.43462447306434587     
   2.8499999999999998E-002   -0.49824351813128775     
   2.8800000000000006E-002   -0.54812050296815329     
   2.9100000000000001E-002   -0.57992756424125602     
   2.9400000000000003E-002   -0.59010415907813718     
   2.9700000000000004E-002   -0.57618605287579139     
   3.0000000000000006E-002   -0.53713719795993620     
   3.0300000000000001E-002   -0.47358234070831745     
   3.0600000000000002E-002   -0.38783777750884424     
   3.0900000000000004E-002   -0.28383368987905833     
   3.1199999999999999E-002   -0.16688614177223851     
   3.1500000000000007E-002    -4.3337909418185716E-002
   3.1800000000000002E-002     7.9833173330758664E-002
   3.2099999999999997E-002    0.19550875473839197     
   3.2400000000000005E-002    0.29702587755081455     
   3.2700000000000000E-002    0.37871189343147299     
   3.3000000000000002E-002    0.43624127867437962     
   3.3300000000000003E-002    0.46689638958446283     
   3.3599999999999998E-002    0.46974140370968631     
   3.3900000000000000E-002    0.44570019330669214     
   3.4200000000000001E-002    0.39747481598494666     
   3.4500000000000003E-002    0.32932709346416650     
   3.4799999999999998E-002    0.24674318640951984     
   3.5099999999999999E-002    0.15605033655476280     
   3.5400000000000001E-002     6.4064379747909614E-002
   3.5699999999999996E-002    -2.2288644808938347E-002
   3.6000000000000004E-002    -9.6339854740314534E-002
   3.6299999999999999E-002   -0.15205153991561143     
   3.6600000000000008E-002   -0.18433994022873604     
   3.6900000000000002E-002   -0.18928144597985183     
   3.7199999999999997E-002   -0.16431721500575366     
   3.7500000000000006E-002   -0.10841146026783501     
   3.7800000000000000E-002    -2.2229971377147842E-002
   3.8100000000000009E-002     9.1829447932806313E-002
   3.8400000000000004E-002    0.22977367192838355     
   3.8699999999999998E-002    0.38604924452056766     
   3.9000000000000007E-002    0.55361074759492979     
   3.9300000000000002E-002    0.72420246090733020     
   3.9600000000000003E-002    0.88876486581376457     
   3.9900000000000005E-002     1.0378427582729213     
   4.0200000000000000E-002     1.1619247270651800     
   4.0500000000000001E-002     1.2518575252495012     
   4.0800000000000003E-002     1.2994689983724508     
   4.1100000000000005E-002     1.2981325405158797     
   4.1399999999999999E-002     1.2431114898851232     
   4.1700000000000008E-002     1.1318867159083343     
   4.2000000000000003E-002    0.96456252689597566     
   4.2299999999999997E-002    0.74420087333383800     
   4.2600000000000006E-002    0.47695036213606073     
   4.2900000000000001E-002    0.17190438259965268     
   4.3200000000000002E-002   -0.15910867218954966     
   4.3500000000000004E-002   -0.50176509050693974     
   4.3799999999999999E-002   -0.83977253845697530     
   4.4100000000000000E-002    -1.1556322693366707     
   4.4400000000000002E-002    -1.4316458759684236     
   4.4700000000000004E-002    -1.6509940602845399     
   4.4999999999999998E-002    -1.7987900857952692     
   4.5300000000000000E-002    -1.8632027886881233     
   4.5600000000000002E-002    -1.8364790358685457     
   4.5899999999999996E-002    -1.7158397019695280     
   4.6200000000000005E-002    -1.5040186144711283     
   4.6500000000000000E-002    -1.2094375528537697     
   4.6799999999999994E-002   -0.84594738553833171     
   4.7100000000000003E-002   -0.43217575658219259     
   4.7399999999999998E-002     9.4894771653523287E-003
   4.7700000000000006E-002    0.45424629965349234     
   4.8000000000000001E-002    0.87648127100833473     
   4.8300000000000010E-002     1.2514993176469049     
   4.8600000000000004E-002     1.5571500132840101     
   4.8899999999999999E-002     1.7752729561221519     
   4.9200000000000008E-002     1.8927646620738652     
   4.9500000000000002E-002     1.9024283481311366     
   4.9800000000000011E-002     1.8032681407855602     
   5.0100000000000006E-002     1.6003438790310438     
   5.0400000000000000E-002     1.3043857107443881     
   5.0700000000000009E-002    0.93077229015372642     
   5.1000000000000004E-002    0.49838195792410028     
   5.1299999999999998E-002     2.8325561346809910E-002
   5.1600000000000007E-002   -0.45743221595324240     
   5.1900000000000002E-002   -0.93735021127732354     
   5.2200000000000010E-002    -1.3915399796075043     
   5.2500000000000005E-002    -1.8026512055964197     
   5.2800000000000000E-002    -2.1565301709112936     
   5.3099999999999994E-002    -2.4426655969637565     
   5.3400000000000003E-002    -2.6541283249095295     
   5.3699999999999998E-002    -2.7872376488046133     
   5.4000000000000006E-002    -2.8412387353654811     
   5.4300000000000001E-002    -2.8175408765779113     
   5.4599999999999996E-002    -2.7189402451666767     
   5.4900000000000004E-002    -2.5490758235374069     
   5.5199999999999999E-002    -2.3116848225448727     
   5.5499999999999994E-002    -2.0102820086088324     
   5.5800000000000002E-002    -1.6481002183340780     
   5.6099999999999997E-002    -1.2282956369881017     
   5.6400000000000006E-002   -0.75438869408673737     
   5.6700000000000000E-002   -0.23072975434194076     
   5.6999999999999995E-002    0.33654339331156558     
   5.7300000000000004E-002    0.93831642295452444     
   5.7599999999999998E-002     1.5621142007676454     
   5.7900000000000007E-002     2.1916831354649413     
   5.8200000000000002E-002     2.8066426103284630     
   5.8499999999999996E-002     3.3826556909271304     
   5.8800000000000005E-002     3.8920348275481058     
   5.9100000000000000E-002     4.3053946922148629     
   5.9400000000000008E-002     4.5932240723732702     
   5.9700000000000003E-002     4.7274975802321810     
   6.0000000000000012E-002     4.6841277878629279     
   6.0300000000000006E-002     4.4454369126347366     
   6.0600000000000001E-002     4.0023378702467944     
   6.0900000000000010E-002     3.3560113108364273     
   6.1200000000000004E-002     2.5192281267114498     
   6.1500000000000013E-002     1.5172375615505194     
   6.1800000000000008E-002    0.38749457869079518     
   6.2100000000000002E-002   -0.82154737148121937     
   6.2399999999999997E-002    -2.0524381138681274     
   6.2700000000000006E-002    -3.2417608103706081     
   6.3000000000000000E-002    -4.3239989900725000     
   6.3300000000000009E-002    -5.2355332788910127     
   6.3600000000000004E-002    -5.9189024163380441     
   6.3899999999999998E-002    -6.3272070850725051     
   6.4199999999999993E-002    -6.4278673876252173     
   6.4500000000000002E-002    -6.2054833924436394     
   6.4800000000000010E-002    -5.6634597179543276     
   6.5100000000000005E-002    -4.8242196322762485     
   6.5400000000000000E-002    -3.7284578494462974     
   6.5700000000000008E-002    -2.4331578406356020     
   6.5999999999999989E-002    -1.0081907930944554     
   6.6299999999999998E-002    0.46827421588627921     
   6.6600000000000006E-002     1.9146719559390906     
   6.6900000000000001E-002     3.2506189781365404     
   6.7199999999999996E-002     4.4017153054743643     
   6.7500000000000004E-002     5.3043856712888511     
   6.7800000000000013E-002     5.9095954813487763     
   6.8099999999999994E-002     6.1854700801954206     
   6.8400000000000002E-002     6.1190337762077585     
   6.8700000000000011E-002     5.7169284350905407     
   6.8999999999999992E-002     5.0051164103152761     
   6.9300000000000000E-002     4.0274609988833054     
   6.9600000000000009E-002     2.8429498183780040     
   6.9900000000000004E-002     1.5220837190693202     
   7.0199999999999999E-002    0.14303288050418739     
   7.0500000000000007E-002    -1.2130922209899386     
   7.0800000000000016E-002    -2.4672379464180367     
   7.1099999999999997E-002    -3.5474595837700162     
   7.1400000000000005E-002    -4.3936538375078129     
   7.1700000000000000E-002    -4.9610905226579911     
   7.1999999999999995E-002    -5.2233304504593576     
   7.2300000000000003E-002    -5.1739639765779817     
   7.2600000000000012E-002    -4.8266114778303999     
   7.2900000000000006E-002    -4.2135653199105985     
   7.3200000000000001E-002    -3.3827457288929055     
   7.3499999999999996E-002    -2.3936150121030182     
   7.3800000000000004E-002    -1.3125999216703010     
   7.4099999999999999E-002   -0.20772920363406425     
   7.4400000000000008E-002    0.85684657222797522     
   7.4700000000000003E-002     1.8255360629757968     
   7.5000000000000011E-002     2.6546572908657624     
   7.5299999999999992E-002     3.3145765557595053     
   7.5600000000000001E-002     3.7910770771016642     
   7.5900000000000009E-002     4.0846652554501865     
   7.6200000000000004E-002     4.2080864698600475     
   7.6499999999999999E-002     4.1835069704928616     
   7.6800000000000007E-002     4.0392747241476430     
   7.7099999999999988E-002     3.8061228369925075     
   7.7399999999999997E-002     3.5134425954403943     
   7.7700000000000005E-002     3.1864725112867012     
   7.8000000000000014E-002     2.8447369187781519     
   7.8299999999999995E-002     2.5014842606540975     
   7.8600000000000003E-002     2.1638377686980066     
   7.8900000000000012E-002     1.8337051497182240     
   7.9199999999999993E-002     1.5096500521256597     
   7.9500000000000001E-002     1.1892463301976348     
   7.9800000000000010E-002    0.87110031032812585     
   8.0100000000000018E-002    0.55578056339613680     
   8.0399999999999999E-002    0.24667482564128046     
   8.0700000000000008E-002    -4.9142369888526931E-002
   8.1000000000000003E-002   -0.32188872598045964     
   8.1299999999999997E-002   -0.56087177572193592     
   8.1600000000000006E-002   -0.75596648902775132     
   8.1900000000000014E-002   -0.89902693758491348     
   8.2199999999999995E-002   -0.98570615500406988     
   8.2500000000000004E-002    -1.0173803537155945     
   8.2799999999999999E-002    -1.0017928933560309     
   8.3100000000000007E-002   -0.95282378925785405     
   8.3400000000000002E-002   -0.89018692083568574     
   8.3700000000000011E-002   -0.83825021725948734     
   8.4000000000000005E-002   -0.82425580306973978     
   8.4300000000000000E-002   -0.87649216226779814     
   8.4599999999999995E-002    -1.0218255523052324     
   8.4900000000000003E-002    -1.2831272887229235     
   8.5199999999999998E-002    -1.6774358361766903     
   8.5500000000000007E-002    -2.2140221013615196     
   8.5800000000000001E-002    -2.8923250856216089     
   8.6100000000000010E-002    -3.7008265492989736     
   8.6399999999999991E-002    -4.6165856187739776     
   8.6699999999999999E-002    -5.6049855858540187     
   8.7000000000000008E-002    -6.6201170462030072     
   8.7300000000000003E-002    -7.6065367133259700     
   8.7599999999999997E-002    -8.5018165900866425     
   8.7900000000000006E-002    -9.2390135080277727     
   8.8200000000000014E-002    -9.7502735393888305     
   8.8499999999999995E-002    -9.9721420560867955     
   8.8800000000000004E-002    -9.8501814208366092     
   8.9100000000000013E-002    -9.3428877272467474     
   8.9399999999999993E-002    -8.4260109445326812     
   8.9700000000000002E-002    -7.0964907317901105     
   9.0000000000000011E-002    -5.3749803372350025     
   9.0299999999999991E-002    -3.3059221765879228     
   9.0600000000000000E-002   -0.95618455539727309     
   9.0900000000000009E-002     1.5871880484740712     
   9.1200000000000017E-002     4.2211489788958527     
   9.1499999999999998E-002     6.8325218897418862     
   9.1800000000000007E-002     9.3052787107423747     
   9.2100000000000001E-002     11.527801400734656     
   9.2399999999999996E-002     13.399339514666623     
   9.2700000000000005E-002     14.836148051362704     
   9.3000000000000013E-002     15.777461746658810     
   9.3300000000000008E-002     16.188565904468035     
   9.3600000000000003E-002     16.061629907680818     
   9.3899999999999997E-002     15.415791141553534     
   9.4200000000000006E-002     14.294322580624815     
   9.4500000000000001E-002     12.760288801971958     
   9.4800000000000009E-002     10.891936877339482     
   9.5100000000000004E-002     8.7762848204006669     
   9.5399999999999999E-002     6.5030028121300791     
   9.5699999999999993E-002     4.1590492596878805     
   9.6000000000000002E-002     1.8248544305241781     
   9.6300000000000011E-002   -0.42842636791657707     
   9.6600000000000005E-002    -2.5414106999686710     
   9.6900000000000000E-002    -4.4663199627999397     
   9.7200000000000009E-002    -6.1652825607933623     
   9.7499999999999989E-002    -7.6090624193369987     
   9.7799999999999998E-002    -8.7751595039409409     
   9.8100000000000007E-002    -9.6461273001549284     
   9.8400000000000015E-002    -10.208767435660498     
   9.8699999999999996E-002    -10.453428729240379     
   9.9000000000000005E-002    -10.374662841590734     
   9.9300000000000013E-002    -9.9736666354717194     
   9.9599999999999994E-002    -9.2606768518309561     
   9.9900000000000003E-002    -8.2568612456927362     
  0.10020000000000001         -6.9958816580464722     
  0.10049999999999999         -5.5253269116389765     
  0.10080000000000000         -3.9070527962658717     
  0.10110000000000001         -2.2147838160077402     
  0.10140000000000000        -0.53052302276604368     
  0.10170000000000000          1.0597205037650677     
  0.10200000000000001          2.4718618412326325     
  0.10230000000000002          3.6300832314544800     
  0.10260000000000000          4.4723253961479852     
  0.10290000000000001          4.9560914198857455     
  0.10320000000000000          5.0624732820614113     
  0.10350000000000001          4.7976155081150935     
  0.10380000000000000          4.1927194608703893     
  0.10410000000000001          3.3022687912252451     
  0.10440000000000001          2.2001191351268989     
  0.10470000000000000         0.97346326237538572     
  0.10500000000000000        -0.28370478099993596     
  0.10530000000000000         -1.4770907806122213     
  0.10560000000000000         -2.5196396855002559     
  0.10590000000000001         -3.3380709592072817     
  0.10620000000000000         -3.8768534636097098     
  0.10650000000000001         -4.1020542796409485     
  0.10679999999999999         -4.0041838755723740     
  0.10710000000000000         -3.5972998908988898     
  0.10740000000000001         -2.9162092936809518     
  0.10770000000000000         -2.0140942086864357     
  0.10800000000000000        -0.95831533332527574     
  0.10830000000000001         0.17564913970887325     
  0.10859999999999999          1.3101167202096058     
  0.10890000000000000          2.3704918435230460     
  0.10920000000000001          3.2905929161929923     
  0.10950000000000001          4.0170191901130456     
  0.10979999999999999          4.5119417493540697     
  0.11009999999999999          4.7551882418226743     
  0.11040000000000001          4.7453915799295281     
  0.11070000000000001          4.4982997905417115     
  0.11100000000000000          4.0442335187899729     
  0.11130000000000000          3.4257683614416292     
  0.11160000000000002          2.6940908774473322     
  0.11190000000000001          1.9040102750075796     
  0.11220000000000001          1.1096590098666066     
  0.11250000000000000         0.36114562756164909     
  0.11280000000000000        -0.29935866862797361     
  0.11309999999999999        -0.84045782402675240     
  0.11340000000000001         -1.2427387604555797     
  0.11369999999999998         -1.4993168177513281     
  0.11400000000000000         -1.6158124184673792     
  0.11430000000000000         -1.6086453314814759     
  0.11460000000000002         -1.5027353035181541     
  0.11489999999999999         -1.3285951408912888     
  0.11520000000000001         -1.1195683921885113     
  0.11550000000000001        -0.90854376183435248     
  0.11580000000000000        -0.72482068121851184     
  0.11609999999999999        -0.59187961868976602     
  0.11640000000000002        -0.52567500322185223     
  0.11670000000000001        -0.53403065526016813     
  0.11700000000000001        -0.61639141451507706     
  0.11730000000000000        -0.76391582515310297     
  0.11760000000000000        -0.96136894114897031     
  0.11789999999999999         -1.1895785742922786     
  0.11820000000000001         -1.4268423206725729     
  0.11850000000000001         -1.6508039737552285     
  0.11880000000000000         -1.8412725855332617     
  0.11910000000000000         -1.9818560502499238     
  0.11940000000000002         -2.0606152047765325     
  0.11970000000000001         -2.0710023630265533     
  0.12000000000000001         -2.0123296891083631     
  0.12030000000000000         -1.8890775447381658     
  0.12060000000000000         -1.7095457552052138     
  0.12089999999999999         -1.4852687692060293     
  0.12119999999999999         -1.2300764094825791     
  0.12150000000000001        -0.95814837751593629     
  0.12180000000000001        -0.68266289758335652     
  0.12210000000000000        -0.41545568976446584     
  0.12239999999999999        -0.16609207487356326     
  0.12270000000000002          5.8419403186190821E-002
  0.12300000000000001         0.25399696576955222     
  0.12330000000000001         0.41961489714887845     
  0.12360000000000000         0.55659718493983368     
  0.12390000000000000         0.66782174626785085     
  0.12419999999999999         0.75755543537487335     
  0.12450000000000001         0.83117899862231182     
  0.12480000000000001         0.89392280055549678     
  0.12509999999999999         0.95049810985366290     
  0.12540000000000001          1.0049443924200443     
  0.12570000000000003          1.0600354106931742     
  0.12600000000000000          1.1171411790445820     
  0.12630000000000002          1.1762239103688690     
  0.12659999999999999          1.2359976965889841     
  0.12690000000000001          1.2939238589866784     
  0.12719999999999998          1.3467545423407881     
  0.12750000000000000          1.3920577595609165     
  0.12780000000000002          1.4275718728153897     
  0.12809999999999999          1.4510116397694566     
  0.12840000000000001          1.4620066765939317     
  0.12869999999999998          1.4617718443338268     
  0.12900000000000000          1.4519081222938282     
  0.12930000000000003          1.4350164173214044     
  0.12959999999999999          1.4141387108269314     
  0.12990000000000002          1.3918747179073416     
  0.13019999999999998          1.3696785525435859     
  0.13050000000000000          1.3479828247120684     
  0.13080000000000003          1.3261855274745014     
  0.13109999999999999          1.3015388866490760     
  0.13140000000000002          1.2704908232972445     
  0.13169999999999998          1.2300595563740668     
  0.13200000000000001          1.1768200845950507     
  0.13229999999999997          1.1079522745460308     
  0.13260000000000000          1.0227802106553052     
  0.13290000000000002         0.92197230026212584     
  0.13319999999999999         0.80772747849475746     
  0.13350000000000001         0.68372806114086260     
  0.13380000000000003         0.55405607221508368     
  0.13410000000000000         0.42263212580654830     
  0.13440000000000002         0.29274887090776203     
  0.13469999999999999         0.16724183351220456     
  0.13500000000000001          4.7711445591418170E-002
  0.13529999999999998         -6.6189860116427815E-002
  0.13560000000000000        -0.17472415481095013     
  0.13590000000000002        -0.27791804074740201     
  0.13619999999999999        -0.37645206854641161     
  0.13650000000000001        -0.47057484827568508     
  0.13680000000000003        -0.55981863080779781     
  0.13710000000000000        -0.64405019799121843     
  0.13740000000000002        -0.72443624965305065     
  0.13769999999999999        -0.80377021603790333     
  0.13800000000000001        -0.88651135866417774     
  0.13829999999999998        -0.97946879343287130     
  0.13860000000000000         -1.0915707612146015     
  0.13890000000000002         -1.2325471860294530     
  0.13919999999999999         -1.4113466943135200     
  0.13950000000000001         -1.6342349284599582     
  0.13979999999999998         -1.9033264243644523     
  0.14010000000000000         -2.2151420593796511     
  0.14040000000000002         -2.5595081542232361     
  0.14069999999999999         -2.9200373631638339     
  0.14100000000000001         -3.2756739845040403     
  0.14130000000000004         -3.6034976444875872     
  0.14160000000000000         -3.8815220934770380     
  0.14189999999999997         -4.0914436958689402     
  0.14219999999999999         -4.2223297664589383     
  0.14250000000000002         -4.2722240814312240     
  0.14279999999999998         -4.2485076058057016     
  0.14310000000000000         -4.1671243480548092     
  0.14339999999999997         -4.0494747653004461     
  0.14369999999999999         -3.9187498386142847     
  0.14400000000000002         -3.7955281960392870     
  0.14429999999999998         -3.6927981700617916     
  0.14460000000000001         -3.6120479705319957     
  0.14490000000000003         -3.5410090522679840     
  0.14520000000000000         -3.4536346575371231     
  0.14550000000000002         -3.3122451067855585     
  0.14579999999999999         -3.0711419865130538     
  0.14610000000000001         -2.6825721912524050     
  0.14640000000000003         -2.1045702275341145     
  0.14670000000000000         -1.3077663770478920     
  0.14699999999999996        -0.28113669805696162     
  0.14729999999999999         0.96355511646687420     
  0.14760000000000001          2.3899015901039418     
  0.14789999999999998          3.9380167341506787     
  0.14820000000000000          5.5298502201271322     