  -1.4999999999999999E-002     0.0000000000000000     
  -1.4700000000000000E-002     0.0000000000000000     
  -1.4400000000000000E-002     0.0000000000000000     
  -1.4100000000000000E-002     0.0000000000000000     
  -1.3800000000000000E-002     0.0000000000000000     
  -1.3500000000000000E-002     0.0000000000000000     
  -1.3200000000000000E-002     0.0000000000000000     
  -1.2899999999999998E-002     0.0000000000000000     
  -1.2600000000000000E-002     0.0000000000000000     
  -1.2299999999999998E-002     0.0000000000000000     
  -1.2000000000000000E-002     0.0000000000000000     
  -1.1699999999999999E-002     0.0000000000000000     
  -1.1399999999999999E-002     0.0000000000000000     
  -1.1099999999999999E-002     0.0000000000000000     
  -1.0799999999999999E-002     0.0000000000000000     
  -1.0499999999999999E-002     0.0000000000000000     
  -1.0199999999999999E-002     0.0000000000000000     
  -9.8999999999999991E-003     0.0000000000000000     
  -9.5999999999999992E-003     0.0000000000000000     
  -9.2999999999999992E-003     0.0000000000000000     
  -8.9999999999999993E-003     0.0000000000000000     
  -8.6999999999999994E-003     0.0000000000000000     
  -8.3999999999999995E-003     0.0000000000000000     
  -8.0999999999999996E-003     0.0000000000000000     
  -7.7999999999999988E-003     0.0000000000000000     
  -7.4999999999999997E-003     0.0000000000000000     
  -7.1999999999999998E-003     0.0000000000000000     
  -6.8999999999999981E-003     0.0000000000000000     
  -6.5999999999999982E-003     0.0000000000000000     
  -6.3000000000000000E-003     0.0000000000000000     
  -6.0000000000000001E-003     0.0000000000000000     
  -5.6999999999999985E-003     0.0000000000000000     
  -5.3999999999999986E-003     0.0000000000000000     
  -5.1000000000000004E-003     0.0000000000000000     
  -4.7999999999999987E-003     0.0000000000000000     
  -4.5000000000000005E-003     0.0000000000000000     
  -4.1999999999999989E-003     0.0000000000000000     
  -3.8999999999999990E-003     0.0000000000000000     
  -3.5999999999999990E-003     0.0000000000000000     
  -3.2999999999999991E-003     0.0000000000000000     
  -2.9999999999999992E-003     0.0000000000000000     
  -2.6999999999999993E-003     0.0000000000000000     
  -2.3999999999999994E-003     0.0000000000000000     
  -2.0999999999999977E-003     0.0000000000000000     
  -1.7999999999999995E-003     0.0000000000000000     
  -1.4999999999999979E-003     0.0000000000000000     
  -1.1999999999999997E-003     0.0000000000000000     
  -8.9999999999999976E-004     0.0000000000000000     
  -5.9999999999999810E-004     0.0000000000000000     
  -2.9999999999999992E-004     0.0000000000000000     
   0.0000000000000000          0.0000000000000000     
   3.0000000000000165E-004     0.0000000000000000     
   5.9999999999999984E-004     2.9040154221012907E-042
   9.0000000000000149E-004     1.7788061925152823E-041
   1.2000000000000031E-003    -3.9663301470739673E-041
   1.5000000000000013E-003    -2.8417533499780087E-041
   1.8000000000000030E-003     8.3413039052864226E-038
   2.1000000000000012E-003    -2.1252569019830334E-037
   2.3999999999999994E-003    -5.2009160242998352E-036
   2.7000000000000010E-003    -1.3703749057982644E-035
   2.9999999999999992E-003     1.8110411471640013E-035
   3.3000000000000008E-003     1.7494078537938097E-035
   3.6000000000000025E-003    -5.7665707013245411E-034
   3.9000000000000007E-003     4.3393575787018287E-034
   4.2000000000000023E-003     2.1129088471821580E-032
   4.5000000000000005E-003    -1.4694515087469567E-031
   4.7999999999999987E-003     1.1851955714579289E-031
   5.1000000000000004E-003     3.7180121220482328E-030
   5.4000000000000020E-003    -2.4015424182214072E-029
   5.7000000000000037E-003     4.8951103325090600E-029
   5.9999999999999984E-003     2.1345136593157616E-028
   6.3000000000000000E-003    -2.0245058049848448E-027
   6.6000000000000017E-003     7.4143816665193194E-027
   6.9000000000000034E-003    -1.0440013321967143E-026
   7.2000000000000015E-003    -3.8814491300018075E-026
   7.5000000000000032E-003     3.1045983420363739E-025
   7.8000000000000014E-003    -1.1279336613157573E-024
   8.0999999999999996E-003     2.5373871149294381E-024
   8.4000000000000012E-003    -2.2635580996165892E-024
   8.7000000000000029E-003    -9.6249620053348453E-024
   9.0000000000000011E-003     5.6673513321622766E-023
   9.2999999999999992E-003    -1.5335682770918030E-022
   9.6000000000000009E-003     1.3538471605495833E-022
   9.8999999999999991E-003     9.7816088905405069E-022
   1.0200000000000001E-002    -6.7322627055584743E-021
   1.0500000000000002E-002     2.7179417071135638E-020
   1.0800000000000004E-002    -8.7840266820936208E-020
   1.1099999999999999E-002     2.5805333748559440E-019
   1.1400000000000000E-002    -7.7634034389368031E-019
   1.1700000000000002E-002     2.6459946349175036E-018
   1.2000000000000004E-002    -1.0363514501889912E-017
   1.2300000000000002E-002     4.3950287105865920E-017
   1.2600000000000000E-002    -1.9053467196764369E-016
   1.2900000000000002E-002     8.1745123256959417E-016
   1.3200000000000000E-002    -3.3937996966467579E-015
   1.3500000000000002E-002     1.3275872267068687E-014
   1.3800000000000003E-002    -4.7039876857573585E-014
   1.4100000000000001E-002     1.4114865372108131E-013
   1.4400000000000000E-002    -3.0442573019639965E-013
   1.4700000000000001E-002     1.2218974037603308E-013
   1.4999999999999999E-002     2.8246689497289555E-012
   1.5300000000000001E-002    -1.6341957428818621E-011
   1.5600000000000003E-002     5.2132568919613530E-011
   1.5899999999999997E-002    -8.6090052357773310E-011
   1.6199999999999999E-002    -7.3370762833351472E-011
   1.6500000000000001E-002     8.6716170593324003E-010
   1.6800000000000002E-002    -2.1454773232431650E-009
   1.7100000000000004E-002     4.8590163846938615E-010
   1.7400000000000006E-002     1.0516697749821843E-008
   1.7700000000000000E-002    -2.1928530205197450E-008
   1.8000000000000002E-002    -1.4373968783984500E-008
   1.8300000000000004E-002     1.0640350880123795E-007
   1.8600000000000005E-002    -3.4169540701794160E-008
   1.8900000000000000E-002    -3.5867326411567585E-007
   1.9200000000000002E-002     1.4886679156165136E-007
   1.9500000000000003E-002     1.0763908540473255E-006
   1.9799999999999998E-002     1.3337322080861682E-008
   2.0100000000000000E-002    -3.0822240987342305E-006
   2.0400000000000001E-002    -2.6086117630089094E-006
   2.0700000000000003E-002     9.2726980751804859E-006
   2.0999999999999998E-002     3.5786942250958281E-005
   2.1299999999999999E-002     7.4348300392500208E-005
   2.1600000000000001E-002     1.2337556638970633E-004
   2.1900000000000003E-002     1.8898545893910918E-004
   2.2200000000000004E-002     2.8710473548062204E-004
   2.2500000000000006E-002     4.4270776919713267E-004
   2.2800000000000001E-002     6.8750448370869161E-004
   2.3100000000000002E-002     1.0604506418888382E-003
   2.3400000000000004E-002     1.6133967392640721E-003
   2.3699999999999999E-002     2.4180198979013609E-003
   2.4000000000000000E-002     3.5726028601278377E-003
   2.4300000000000002E-002     5.2084222412285925E-003
   2.4599999999999997E-002     7.4932817029177978E-003
   2.4900000000000005E-002     1.0633390778106015E-002
   2.5200000000000000E-002     1.4874940161580683E-002
   2.5499999999999995E-002     2.0504015755375408E-002
   2.5800000000000003E-002     2.7841135818206734E-002
   2.6099999999999998E-002     3.7224572739301326E-002
   2.6400000000000007E-002     4.8985496218565218E-002
   2.6700000000000002E-002     6.3412593606959472E-002
   2.6999999999999996E-002     8.0704068959668487E-002
   2.7300000000000005E-002    0.10090494903854684     
   2.7600000000000000E-002    0.12382818407284812     
   2.7900000000000008E-002    0.14897629557340306     
   2.8200000000000003E-002    0.17545386433192423     
   2.8499999999999998E-002    0.20188846703453975     
   2.8800000000000006E-002    0.22637365696592249     
   2.9100000000000001E-002    0.24644927054156851     
   2.9400000000000003E-002    0.25912236283767287     
   2.9700000000000004E-002    0.26096031287244736     
   3.0000000000000006E-002    0.24823700915618363     
   3.0300000000000001E-002    0.21719352742222850     
   3.0600000000000002E-002    0.16432854107580752     
   3.0900000000000004E-002     8.6817152045799428E-002
   3.1199999999999999E-002    -1.7067044102232677E-002
   3.1500000000000007E-002   -0.14755343970987239     
   3.1800000000000002E-002   -0.30294879233016048     
   3.2099999999999997E-002   -0.47934036239111244     
   3.2400000000000005E-002   -0.67046251808299251     
   3.2700000000000000E-002   -0.86768789411430447     
   3.3000000000000002E-002    -1.0603051106697803     
   3.3300000000000003E-002    -1.2360132607031584     
   3.3599999999999998E-002    -1.3816178784026671     
   3.3900000000000000E-002    -1.4839608654480720     
   3.4200000000000001E-002    -1.5309734030588180     
   3.4500000000000003E-002    -1.5127099565181699     
   3.4799999999999998E-002    -1.4223895535742201     
   3.5099999999999999E-002    -1.2572739661063754     
   3.5400000000000001E-002    -1.0191555408775994     
   3.5699999999999996E-002   -0.71471321350861894     
   3.6000000000000004E-002   -0.35528265870426906     
   3.6299999999999999E-002     4.3746726236813083E-002
   3.6600000000000008E-002    0.46369059455885597     
   3.6900000000000002E-002    0.88405000360296171     
   3.7199999999999997E-002     1.2836993964095471     
   3.7500000000000006E-002     1.6424441162129801     
   3.7800000000000000E-002     1.9425639101667036     
   3.8100000000000009E-002     2.1697704601848429     
   3.8400000000000004E-002     2.3143566504484903     
   3.8699999999999998E-002     2.3716150054048000     
   3.9000000000000007E-002     2.3419159279927309     
   3.9300000000000002E-002     2.2305541512760003     
   3.9600000000000003E-002     2.0469800558653941     
   3.9900000000000005E-002     1.8039635660358411     
   4.0200000000000000E-002     1.5164236142734899     
   4.0500000000000001E-002     1.2003086903841425     
   4.0800000000000003E-002    0.87148224734098489     
   4.1100000000000005E-002    0.54462632829009539     
   4.1399999999999999E-002    0.23260335701368762     
   4.1700000000000008E-002    -5.4228086330279951E-002
   4.2000000000000003E-002   -0.30833715077767937     
   4.2299999999999997E-002   -0.52490839827104507     
   4.2600000000000006E-002   -0.70188695899278275     
   4.2900000000000001E-002   -0.83948064590301752     
   4.3200000000000002E-002   -0.93973881883074784     
   4.3500000000000004E-002    -1.0061349149323737     
   4.3799999999999999E-002    -1.0428899739035695     
   4.4100000000000000E-002    -1.0547028212357099     
   4.4400000000000002E-002    -1.0462196627894755     
   4.4700000000000004E-002    -1.0217614964848836     
   4.4999999999999998E-002   -0.98515035686115393     
   4.5300000000000000E-002   -0.93955536630102343     
   4.5600000000000002E-002   -0.88753935920575766     
   4.5899999999999996E-002   -0.83095328488266873     
   4.6200000000000005E-002   -0.77123782531264506     
   4.6500000000000000E-002   -0.70940221927048275     
   4.6799999999999994E-002   -0.64617695279451381     
   4.7100000000000003E-002   -0.58235238934743561     
   4.7399999999999998E-002   -0.51858177589786314     
   4.7700000000000006E-002   -0.45583191039535081     
   4.8000000000000001E-002   -0.39540025640768794     
   4.8300000000000010E-002   -0.33872869941127171     
   4.8600000000000004E-002   -0.28786401914850185     
   4.8899999999999999E-002   -0.24498521981746135     
   4.9200000000000008E-002   -0.21241483468249900     
   4.9500000000000002E-002   -0.19266242853690699     
   4.9800000000000011E-002   -0.18767068268200315     
   5.0100000000000006E-002   -0.19887497214656583     
   5.0400000000000000E-002   -0.22672729273064557     
   5.0700000000000009E-002   -0.27010097741353822     
   5.1000000000000004E-002   -0.32638114488186082     
   5.1299999999999998E-002   -0.39087566577446015     
   5.1600000000000007E-002   -0.45692054819284184     
   5.1900000000000002E-002   -0.51614167588057658     
   5.2200000000000010E-002   -0.55864450519330122     
   5.2500000000000005E-002   -0.57385845718342210     
   5.2800000000000000E-002   -0.55130681532517634     
   5.3099999999999994E-002   -0.48166761587837192     
   5.3400000000000003E-002   -0.35790679557292515     
   5.3699999999999998E-002   -0.17628417311759367     
   5.4000000000000006E-002     6.2665645201427853E-002
   5.4300000000000001E-002    0.35365008075127297     
   5.4599999999999996E-002    0.68630946464242437     
   5.4900000000000004E-002     1.0456235579849877     
   5.5199999999999999E-002     1.4126098256981783     
   5.5499999999999994E-002     1.7653785035299230     
   5.5800000000000002E-002     2.0810260876031235     
   5.6099999999999997E-002     2.3369900411847535     
   5.6400000000000006E-002     2.5131236606967535     
   5.6700000000000000E-002     2.5935362892591254     
   5.6999999999999995E-002     2.5676353697286727     
   5.7300000000000004E-002     2.4315197759840226     
   5.7599999999999998E-002     2.1881342871368283     
   5.7900000000000007E-002     1.8472108919420211     
   5.8200000000000002E-002     1.4247233353076452     
   5.8499999999999996E-002    0.94142549012071441     
   5.8800000000000005E-002    0.42152977767652106     
   5.9100000000000000E-002   -0.10917140378379439     
   5.9400000000000008E-002   -0.62517674398009837     
   5.9700000000000003E-002    -1.1028367466110098     
   6.0000000000000012E-002    -1.5221210742673423     
   6.0300000000000006E-002    -1.8674711224860785     
   6.0600000000000001E-002    -2.1287291102015473     
   6.0900000000000010E-002    -2.3014017748074127     
   6.1200000000000004E-002    -2.3863818053591883     
   6.1500000000000013E-002    -2.3896038731360747     
   6.1800000000000008E-002    -2.3211355007811889     
   6.2100000000000002E-002    -2.1941112083341405     
   6.2399999999999997E-002    -2.0237331419760780     
   6.2700000000000006E-002    -1.8258905747964891     
   6.3000000000000000E-002    -1.6161363708846064     
   6.3300000000000009E-002    -1.4086560995569746     
   6.3600000000000004E-002    -1.2151393021211963     
   6.3899999999999998E-002    -1.0442182520500283     
   6.4199999999999993E-002   -0.90091347894269280     
   6.4500000000000002E-002   -0.78619189256245658     
   6.4800000000000010E-002   -0.69707169421643800     
   6.5100000000000005E-002   -0.62669267978815657     
   6.5400000000000000E-002   -0.56477114562172681     
   6.5700000000000008E-002   -0.49856462776449306     
   6.5999999999999989E-002   -0.41357026278155973     
   6.6299999999999998E-002   -0.29527876731676317     
   6.6600000000000006E-002   -0.13036862530895188     
   6.6900000000000001E-002     9.1814819223239183E-002
   6.7199999999999996E-002    0.37756033015131091     
   6.7500000000000004E-002    0.72772668484801639     
   6.7800000000000013E-002     1.1366607739802137     
   6.8099999999999994E-002     1.5915767462602557     
   6.8400000000000002E-002     2.0730626210913741     
   6.8700000000000011E-002     2.5557829682223714     
   6.8999999999999992E-002     3.0096165554886181     
   6.9300000000000000E-002     3.4023898483034087     
   6.9600000000000009E-002     3.7018960051488077     
   6.9900000000000004E-002     3.8785191062696640     
   7.0199999999999999E-002     3.9085724091577312     
   7.0500000000000007E-002     3.7759506959990965     
   7.0800000000000016E-002     3.4744508986699874     
   7.1099999999999997E-002     3.0089904717892524     
   7.1400000000000005E-002     2.3951230997765816     
   7.1700000000000000E-002     1.6590034740735953     
   7.1999999999999995E-002    0.83527687396236483     
   7.2300000000000003E-002    -3.5540808690127684E-002
   7.2600000000000012E-002   -0.90958548161160890     
   7.2900000000000006E-002    -1.7432542182615220     
   7.3200000000000001E-002    -2.4965789734127668     
   7.3499999999999996E-002    -3.1355787105504738     
   7.3800000000000004E-002    -3.6348002019100218     
   7.4099999999999999E-002    -3.9787517420810445     
   7.4400000000000008E-002    -4.1619321088091032     
   7.4700000000000003E-002    -4.1885769915863644     
   7.5000000000000011E-002    -4.0714065408022400     
   7.5299999999999992E-002    -3.8291634194633151     
   7.5600000000000001E-002    -3.4844341907566645     
   7.5900000000000009E-002    -3.0610800810825216     
   7.6200000000000004E-002    -2.5817374307138210     
   7.6499999999999999E-002    -2.0662098322832634     
   7.6800000000000007E-002    -1.5300727806382350     
   7.7099999999999988E-002   -0.98423051273569517     
   7.7399999999999997E-002   -0.43566422538806449     
   7.7700000000000005E-002    0.11181789507117143     
   7.8000000000000014E-002    0.65605491205193089     
   7.8299999999999995E-002     1.1942119130142941     
   7.8600000000000003E-002     1.7214056602438474     
   7.8900000000000012E-002     2.2292865172315528     
   7.9199999999999993E-002     2.7047711191975781     
   7.9500000000000001E-002     3.1305133794539173     
   7.9800000000000010E-002     3.4855008555393518     
   8.0100000000000018E-002     3.7464119550513972     
   8.0399999999999999E-002     3.8903942330819854     
   8.0700000000000008E-002     3.8972737031434619     
   8.1000000000000003E-002     3.7522423975032746     
   8.1299999999999997E-002     3.4486835418533803     
   8.1600000000000006E-002     2.9896018975124106     
   8.1900000000000014E-002     2.3887737169479251     
   8.2199999999999995E-002     1.6710805077028994     
   8.2500000000000004E-002    0.87080775963054835     
   8.2799999999999999E-002     2.9733859219894299E-002
   8.3100000000000007E-002   -0.80560265771925610     
   8.3400000000000002E-002    -1.5878469839945077     
   8.3700000000000011E-002    -2.2722472294445146     
   8.4000000000000005E-002    -2.8200528169894556     
   8.4300000000000000E-002    -3.2020797866071065     
   8.4599999999999995E-002    -3.4002872525553394     
   8.4900000000000003E-002    -3.4091768238911975     
   8.5199999999999998E-002    -3.2361904976475979     
   8.5500000000000007E-002    -2.9000401561703835     
   8.5800000000000001E-002    -2.4294472868734394     
   8.6100000000000010E-002    -1.8606008184485741     
   8.6399999999999991E-002    -1.2335973252737700     
   8.6699999999999999E-002   -0.59020095966108743     
   8.7000000000000008E-002     2.9326759665696978E-002
   8.7300000000000003E-002    0.58897265101901652     
   8.7599999999999997E-002     1.0580311062481571     
   8.7900000000000006E-002     1.4130512604784093     
   8.8200000000000014E-002     1.6385178616000715     
   8.8499999999999995E-002     1.7264056319302661     
   8.8800000000000004E-002     1.6767375959974564     
   8.9100000000000013E-002     1.4968414751308485     
   8.9399999999999993E-002     1.2003672986171829     
   8.9700000000000002E-002    0.80744270590229605     
   9.0000000000000011E-002    0.34308809131732443     
   9.0299999999999991E-002   -0.16365013423922362     
   9.0600000000000000E-002   -0.67994448606372870     
   9.0900000000000009E-002    -1.1715491954525905     
   9.1200000000000017E-002    -1.6038901990214400     
   9.1499999999999998E-002    -1.9436904689432091     
   9.1800000000000007E-002    -2.1619492339569617     
   9.2100000000000001E-002    -2.2352728550720564     
   9.2399999999999996E-002    -2.1485664738859658     
   9.2700000000000005E-002    -1.8973499664675533     
   9.3000000000000013E-002    -1.4879540759347156     
   9.3300000000000008E-002   -0.93924551980793503     
   9.3600000000000003E-002   -0.28200435105636890     
   9.3899999999999997E-002    0.44329142665584631     
   9.4200000000000006E-002     1.1876065465191517     
   9.4500000000000001E-002     1.8974749817960661     
   9.4800000000000009E-002     2.5190211292583133     
   9.5100000000000004E-002     3.0013934037258347     
   9.5399999999999999E-002     3.3020043055675323     
   9.5699999999999993E-002     3.3897053070913001     
   9.6000000000000002E-002     3.2475056809361948     
   9.6300000000000011E-002     2.8752954172511322     
   9.6600000000000005E-002     2.2896886116995914     
   9.6900000000000000E-002     1.5233323028459225     
   9.7200000000000009E-002    0.62333293938043965     
   9.7499999999999989E-002   -0.35247800928759571     
   9.7799999999999998E-002    -1.3395614531265241     
   9.8100000000000007E-002    -2.2707637697813006     
   9.8400000000000015E-002    -3.0822353398260542     
   9.8699999999999996E-002    -3.7174448493383636     
   9.9000000000000005E-002    -4.1309157127804204     
   9.9300000000000013E-002    -4.2928906184297944     
   9.9599999999999994E-002    -4.1905397968691842     
   9.9900000000000003E-002    -3.8289888527916736     
  0.10020000000000001         -3.2318927638657633     
  0.10049999999999999         -2.4384944511184941     
  0.10080000000000000         -1.5015637334900440     
  0.10110000000000001        -0.48396749616215518     
  0.10140000000000000         0.54733391588825431     
  0.10170000000000000          1.5248271760107341     
  0.10200000000000001          2.3857803467458321     
  0.10230000000000002          3.0777085575875205     
  0.10260000000000000          3.5605655887088781     
  0.10290000000000001          3.8108823893683086     
  0.10320000000000000          3.8228129905793828     
  0.10350000000000001          3.6072354446505273     
  0.10380000000000000          3.1920833734810237     
  0.10410000000000001          2.6185109707328245     
  0.10440000000000001          1.9370935155932965     
  0.10470000000000000          1.2045765005748672     
  0.10500000000000000         0.47797213014334150     
  0.10530000000000000        -0.18939209137189772     
  0.10560000000000000        -0.75168487625704306     
  0.10590000000000001         -1.1746908742086999     
  0.10620000000000000         -1.4370196403445343     
  0.10650000000000001         -1.5312786599361590     
  0.10679999999999999         -1.4641853495475967     
  0.10710000000000000         -1.2544698269212509     
  0.10740000000000001        -0.93068018294437538     
  0.10770000000000000        -0.52824123244033205     
  0.10800000000000000         -8.5653986390446551E-002
  0.10830000000000001         0.35866347050945757     
  0.10859999999999999         0.76949964097843782     
  0.10890000000000000          1.1180698417462742     
  0.10920000000000001          1.3832611772120138     
  0.10950000000000001          1.5529638251981877     
  0.10979999999999999          1.6246023522464763     
  0.11009999999999999          1.6038224242460615     
  0.11040000000000001          1.5037923612334350     
  0.11070000000000001          1.3429827264340419     
  0.11100000000000000          1.1428274633653328     
  0.11130000000000000         0.92569985984355885     
  0.11160000000000002         0.71224264557305061     
  0.11190000000000001         0.51982915435635935     
  0.11220000000000001         0.36108201881048163     
  0.11250000000000000         0.24261234700658019     
  0.11280000000000000         0.16554011779967254     
  0.11309999999999999         0.12548953466315832     
  0.11340000000000001         0.11382567049752337     
  0.11369999999999998         0.11922858035937739     
  0.11400000000000000         0.12888528601851618     
  0.11430000000000000         0.13099188507484505     
  0.11460000000000002         0.11534466527741660     
  0.11489999999999999          7.4698590467221479E-002
  0.11520000000000001          5.8047009473835148E-003
  0.11550000000000001         -9.1641253443128970E-002
  0.11580000000000000        -0.21460308307862103     
  0.11609999999999999        -0.35802343388638413     
  0.11640000000000002        -0.51642519243991714     
  0.11670000000000001        -0.68427981628204348     
  0.11700000000000001        -0.85811027419977848     
  0.11730000000000000         -1.0368356590862966     
  0.11760000000000000         -1.2217988640713331     
  0.11789999999999999         -1.4175083823245016     
  0.11820000000000001         -1.6298896427482097     
  0.11850000000000001         -1.8659019461964617     
  0.11880000000000000         -2.1324872802919699     
  0.11910000000000000         -2.4342016461467315     
  0.11940000000000002         -2.7729608706368087     
  0.11970000000000001         -3.1468192192355420     
  0.12000000000000001         -3.5488722277031632     
  0.12030000000000000         -3.9677213760628423     
  0.12060000000000000         -4.3874235929420484     
  0.12089999999999999         -4.7877936531925123     
  0.12119999999999999         -5.1460175542878375     
  0.12150000000000001         -5.4373247795793285     
  0.12180000000000001         -5.6360067456436989     
  0.12210000000000000         -5.7176566090189223     
  0.12239999999999999         -5.6594183209403823     
  0.12270000000000002         -5.4418318300736788     
  0.12300000000000001         -5.0502686081280777     
  0.12330000000000001         -4.4751291401483577     
  0.12360000000000000         -3.7140696157828277     
  0.12390000000000000         -2.7719718628581167     
  0.12419999999999999         -1.6615408982810829     
  0.12450000000000001        -0.40410056694803786     
  0.12480000000000001         0.97081119515999759     
  0.12509999999999999          2.4268750241164088     
  0.12540000000000001          3.9212639712837927     
  0.12570000000000003          5.4066666885763945     
  0.12600000000000000          6.8337978709024370     
  0.12630000000000002          8.1531813397154096     
  0.12659999999999999          9.3181848913281584     
  0.12690000000000001          10.287503732764240     
  0.12719999999999998          11.026414549667283     
  0.12750000000000000          11.509172184030302     
  0.12780000000000002          11.720070760336693     
  0.12809999999999999          11.652606284267932     
  0.12840000000000001          11.310320403381287     
  0.12869999999999998          10.705574168658206     
  0.12900000000000000          9.8572378765021114     
  0.12930000000000003          8.7908186762471257     
  0.12959999999999999          7.5357983822483838     
  0.12990000000000002          6.1238130239670943     
  0.13019999999999998          4.5897908582734912     
  0.13050000000000000          2.9679449447418671     
  0.13080000000000003          1.2937742481667467     
  0.13109999999999999        -0.39610826592870141     
  0.13140000000000002         -2.0663974296833869     
  0.13169999999999998         -3.6792680073320576     
  0.13200000000000001         -5.1974970226823931     
  0.13229999999999997         -6.5841219011037264     
  0.13260000000000000         -7.8007282368431996     
  0.13290000000000002         -8.8120520971529679     
  0.13319999999999999         -9.5849908014703438     
  0.13350000000000001         -10.089856823863521     
  0.13380000000000003         -10.304497586171131     
  0.13410000000000000         -10.214044713651568     
  0.13440000000000002         -9.8124928335486867     
  0.13469999999999999         -9.1064933684424716     
  0.13500000000000001         -8.1138181176635218     
  0.13529999999999998         -6.8641916199119368     
  0.13560000000000000         -5.4012872980809519     
  0.13590000000000002         -3.7785871049240649     
  0.13619999999999999         -2.0592574177876299     
  0.13650000000000001        -0.31493531838621314     
  0.13680000000000003          1.3807697944385482     
  0.13710000000000000          2.9520050328323122     
  0.13740000000000002          4.3262376326368255     
  0.13769999999999999          5.4399774277367268     
  0.13800000000000001          6.2379091846423833     
  0.13829999999999998          6.6807185405066498     
  0.13860000000000000          6.7465357949734441     
  0.13890000000000002          6.4295322392422865     
  0.13919999999999999          5.7463023195778122     
  0.13950000000000001          4.7311961963151363     
  0.13979999999999998          3.4350932003159702     
  0.14010000000000000          1.9266271073232413     
  0.14040000000000002         0.28330840003839131     
  0.14069999999999999         -1.4091767295415003     
  0.14100000000000001         -3.0615281702948680     
  0.14130000000000004         -4.5881849903998742     
  0.14160000000000000         -5.9085917995813606     
  0.14189999999999997         -6.9539723611361568     
  0.14219999999999999         -7.6706001377087754     
  0.14250000000000002         -8.0203859296513187     
  0.14279999999999998         -7.9855395700829188     
  0.14310000000000000         -7.5681550430163398     
  0.14339999999999997         -6.7890090831836982     
  0.14369999999999999         -5.6884593745062135     
  0.14400000000000002         -4.3232887216859552     
  0.14429999999999998         -2.7630326488789780     
  0.14460000000000001         -1.0883380309654482     
  0.14490000000000003         0.61481450792841486     
  0.14520000000000000          2.2599237573168676     
  0.14550000000000002          3.7624360583669607     
  0.14579999999999999          5.0478482856912104     
  0.14610000000000001          6.0536185214622904     
  0.14640000000000003          6.7326562185976195     
  0.14670000000000000          7.0593365167193003     
  0.14699999999999996          7.0274195898487193     
  0.14729999999999999          6.6527680732394421     
  0.14760000000000001          5.9734034793396784     
  0.14789999999999998          5.0439982050683128     
  0.14820000000000000          3.9358265502051752     