  -1.4999999999999999E-002     0.0000000000000000     
  -1.4700000000000000E-002     3.7233430832168092E-037
  -1.4400000000000000E-002     5.5535657111606154E-029
  -1.4100000000000000E-002     2.9939683716517565E-025
  -1.3800000000000000E-002     5.5683384765781537E-023
  -1.3500000000000000E-002     9.6778557402719500E-022
  -1.3200000000000000E-002    -1.1580479916515983E-020
  -1.2899999999999998E-002    -2.0512903737568551E-019
  -1.2600000000000000E-002     5.4073607351228904E-019
  -1.2299999999999998E-002     8.6229391564195588E-018
  -1.2000000000000000E-002    -1.5920662897627995E-017
  -1.1699999999999999E-002    -9.0893195948488524E-017
  -1.1399999999999999E-002     3.1888274763869680E-016
  -1.1099999999999999E-002    -1.7215519132809845E-015
  -1.0799999999999999E-002    -1.7790223982704775E-015
  -1.0499999999999999E-002     6.4314992458639177E-014
  -1.0199999999999999E-002    -1.3370628508116669E-013
  -9.8999999999999991E-003    -4.6420597751402432E-013
  -9.5999999999999992E-003     1.9849479574110092E-012
  -9.2999999999999992E-003    -1.0848668889760170E-012
  -8.9999999999999993E-003    -6.0579934876443334E-012
  -8.6999999999999994E-003     1.4553587039667143E-011
  -8.3999999999999995E-003    -1.3342096193910578E-011
  -8.0999999999999996E-003    -9.5135101111091342E-012
  -7.7999999999999988E-003     5.0789105793624441E-011
  -7.4999999999999997E-003    -5.0884110600771718E-011
  -7.1999999999999998E-003    -7.1158974057137175E-012
  -6.8999999999999981E-003    -3.1028950579660989E-011
  -6.5999999999999982E-003     1.6240867364407776E-010
  -6.3000000000000000E-003    -1.5071791323344326E-011
  -6.0000000000000001E-003    -5.6912732336634223E-010
  -5.6999999999999985E-003     9.5403368985703689E-010
  -5.3999999999999986E-003     2.2965985960211233E-010
  -5.1000000000000004E-003    -2.5123420719811608E-009
  -4.7999999999999987E-003     1.2803194108996268E-009
  -4.5000000000000005E-003     4.2904951832965795E-009
  -4.1999999999999989E-003    -5.0457410555354657E-009
  -3.8999999999999990E-003    -3.8772704609346129E-009
  -3.5999999999999990E-003     1.1509137188403513E-008
  -3.2999999999999991E-003    -1.7044467318851990E-009
  -2.9999999999999992E-003    -1.9391334626929224E-008
  -2.6999999999999993E-003     9.6658187506718473E-009
  -2.3999999999999994E-003     3.6828263819393182E-008
  -2.0999999999999977E-003    -3.3537684741344819E-008
  -1.7999999999999995E-003    -6.3096311666751938E-008
  -1.4999999999999979E-003     1.1514805665919534E-007
  -1.1999999999999997E-003     6.4126990873406356E-008
  -8.9999999999999976E-004    -3.0704114042999620E-007
  -5.9999999999999810E-004     2.4773187909542618E-010
  -2.9999999999999992E-004     7.7509213932085499E-007
   0.0000000000000000         -2.5463604708952399E-007
   3.0000000000000165E-004    -2.2101250969762184E-006
   5.9999999999999984E-004     7.9542818935295981E-007
   9.0000000000000149E-004     6.9961020204000790E-006
   1.2000000000000031E-003    -7.9645129024253574E-007
   1.5000000000000013E-003    -2.3697057266775198E-005
   1.8000000000000030E-003    -9.6678372866255414E-006
   2.1000000000000012E-003     1.0198500149414264E-004
   2.3999999999999994E-003     3.0611486510350491E-004
   2.7000000000000010E-003     5.5456782128438344E-004
   2.9999999999999992E-003     8.2617220568092077E-004
   3.3000000000000008E-003     1.1610576896035312E-003
   3.6000000000000025E-003     1.6762283007651980E-003
   3.9000000000000007E-003     2.5497557582198080E-003
   4.2000000000000023E-003     3.9632649540251750E-003
   4.5000000000000005E-003     6.0776181093560302E-003
   4.7999999999999987E-003     9.1088913670109330E-003
   5.1000000000000004E-003     1.3410948642470492E-002
   5.4000000000000020E-003     1.9471365223634303E-002
   5.7000000000000037E-003     2.7890468824089541E-002
   5.9999999999999984E-003     3.9374275502730573E-002
   6.3000000000000000E-003     5.4730655408371187E-002
   6.6000000000000017E-003     7.4863304327632260E-002
   6.9000000000000034E-003    0.10072104248529092     
   7.2000000000000015E-003    0.13319247451622843     
   7.5000000000000032E-003    0.17297593585912402     
   7.8000000000000014E-003    0.22041948782096360     
   8.0999999999999996E-003    0.27526848446378521     
   8.4000000000000012E-003    0.33639539966321974     
   8.7000000000000029E-003    0.40150178899573985     
   9.0000000000000011E-003    0.46679092613808176     
   9.2999999999999992E-003    0.52667055451597411     
   9.6000000000000009E-003    0.57356158621121023     
   9.8999999999999991E-003    0.59780279413653414     
   1.0200000000000001E-002    0.58780208862233374     
   1.0500000000000002E-002    0.53042886496659192     
   1.0800000000000004E-002    0.41176478351625551     
   1.1099999999999999E-002    0.21823794172330643     
   1.1400000000000000E-002    -6.2036691971975436E-002
   1.1700000000000002E-002   -0.43745841002840907     
   1.2000000000000004E-002   -0.91097077275995275     
   1.2300000000000002E-002    -1.4783236413084420     
   1.2600000000000000E-002    -2.1261583933611790     
   1.2900000000000002E-002    -2.8309301222435157     
   1.3200000000000000E-002    -3.5583287268315527     
   1.3500000000000002E-002    -4.2635987500448147     
   1.3800000000000003E-002    -4.8933732945430171     
   1.4100000000000001E-002    -5.3883650530818343     
   1.4400000000000000E-002    -5.6874349214154298     
   1.4700000000000001E-002    -5.7325241632676605     
   1.4999999999999999E-002    -5.4739382425957297     
   1.5300000000000001E-002    -4.8764784724777535     
   1.5600000000000003E-002    -3.9238546658137823     
   1.5899999999999997E-002    -2.6233710140372692     
   1.6199999999999999E-002    -1.0078492904083949     
   1.6500000000000001E-002    0.86435243415643870     
   1.6800000000000002E-002     2.9112056547762970     
   1.7100000000000004E-002     5.0314710519413426     
   1.7400000000000006E-002     7.1120507242884887     
   1.7700000000000000E-002     9.0350233242940305     
   1.8000000000000002E-002     10.687652154754236     
   1.8300000000000004E-002     11.971108904205721     
   1.8600000000000005E-002     12.807548002470922     
   1.8900000000000000E-002     13.147674026386941     
   1.9200000000000002E-002     12.972933242957030     
   1.9500000000000003E-002     12.296897390831255     
   1.9799999999999998E-002     11.163781670595334     
   2.0100000000000000E-002     9.6422935453762175     
   2.0400000000000001E-002     7.8199102186460339     
   2.0700000000000003E-002     5.7943866415203038     
   2.0999999999999998E-002     3.6642955406320095     
   2.1299999999999999E-002     1.5225745006664706     
   2.1600000000000001E-002   -0.55169673468905556     
   2.1900000000000003E-002    -2.4976524083211484     
   2.2200000000000004E-002    -4.2749336209841573     
   2.2500000000000006E-002    -5.8643348034348186     
   2.2800000000000001E-002    -7.2638875719039957     
   2.3100000000000002E-002    -8.4860559723699378     
   2.3400000000000004E-002    -9.5512176398751247     
   2.3699999999999999E-002    -10.480998568890367     
   2.4000000000000000E-002    -11.293503311766758     
   2.4300000000000002E-002    -11.996457583464549     
   2.4599999999999997E-002    -12.584481707059560     
   2.4900000000000005E-002    -13.037248114982948     
   2.5200000000000000E-002    -13.319514727551093     
   2.5499999999999995E-002    -13.384119490325871     
   2.5800000000000003E-002    -13.175911419392396     
   2.6099999999999998E-002    -12.638467329449139     
   2.6400000000000007E-002    -11.720845754920331     
   2.6700000000000002E-002    -10.385185826703594     
   2.6999999999999996E-002    -8.6141049236529046     
   2.7300000000000005E-002    -6.4154675206506244     
   2.7600000000000000E-002    -3.8275421824644411     
   2.7900000000000008E-002   -0.91989932874879510     
   2.8200000000000003E-002     2.2075487582014373     
   2.8499999999999998E-002     5.4285729158217118     
   2.8800000000000006E-002     8.5980297596154482     
   2.9100000000000001E-002     11.559389629956812     
   2.9400000000000003E-002     14.157615129249644     
   2.9700000000000004E-002     16.249554979291450     
   3.0000000000000006E-002     17.714461617963146     
   3.0300000000000001E-002     18.466918254735464     
   3.0600000000000002E-002     18.460522913541890     
   3.0900000000000004E-002     17.696210195376029     
   3.1199999999999999E-002     16.221396785783721     
   3.1500000000000007E-002     14.125816758929597     
   3.1800000000000002E-002     11.538388758461389     
   3.2099999999999997E-002     8.6124969875524950     
   3.2400000000000005E-002     5.5175788487794630     
   3.2700000000000000E-002     2.4248527314966610     
   3.3000000000000002E-002   -0.50778646070795175     
   3.3300000000000003E-002    -3.1446141283892848     
   3.3599999999999998E-002    -5.3839715137729272     
   3.3900000000000000E-002    -7.1639611626347746     
   3.4200000000000001E-002    -8.4633585769674351     
   3.4500000000000003E-002    -9.3033710889197483     
   3.4799999999999998E-002    -9.7404800579898154     
   3.5099999999999999E-002    -9.8602682142711444     
   3.5400000000000001E-002    -9.7696605648494330     
   3.5699999999999996E-002    -9.5840125970529542     
   3.6000000000000004E-002    -9.4186759834812186     
   3.6299999999999999E-002    -9.3787437225833479     
   3.6600000000000008E-002    -9.5473990993689988     
   3.6900000000000002E-002    -9.9807362811713887     
   3.7199999999999997E-002    -10.698855860480375     
   3.7500000000000006E-002    -11.680239130537997     
   3.7800000000000000E-002    -12.860313759646123     
   3.8100000000000009E-002    -14.127681055437545     
   3.8400000000000004E-002    -15.327820989855578     
   3.8699999999999998E-002    -16.268733182647217     
   3.9000000000000007E-002    -16.729258662760778     
   3.9300000000000002E-002    -16.475796825224258     
   3.9600000000000003E-002    -15.280121020011096     
   3.9900000000000005E-002    -12.941252024684090     
   4.0200000000000000E-002    -9.3139853036236939     
   4.0500000000000001E-002    -4.3298289254929534     
   4.0800000000000003E-002     1.9775657579993979     
   4.1100000000000005E-002     9.4572149426523051     
   4.1399999999999999E-002     17.834040821261450     
   4.1700000000000008E-002     26.710818032805886     
   4.2000000000000003E-002     35.585848107808111     
   4.2299999999999997E-002     43.881704164762709     
   4.2600000000000006E-002     50.983819431539501     
   4.2900000000000001E-002     56.291535522274785     
   4.3200000000000002E-002     59.267392137593959     
   4.3500000000000004E-002     59.489750810885837     
   4.3799999999999999E-002     56.698399611986851     
   4.4100000000000000E-002     50.825509413087651     
   4.4400000000000002E-002     42.016927528594302     
   4.4700000000000004E-002     30.629982356083350     
   4.4999999999999998E-002     17.216965738562021     
   4.5300000000000000E-002     2.4876249549926919     
   4.5600000000000002E-002    -12.739753139903687     
   4.5899999999999996E-002    -27.598187083296132     
   4.6200000000000005E-002    -41.239137565920622     
   4.6500000000000000E-002    -52.890958126788867     
   4.6799999999999994E-002    -61.920044748491449     
   4.7100000000000003E-002    -67.870342766289284     
   4.7399999999999998E-002    -70.494068531666343     
   4.7700000000000006E-002    -69.762997100933887     
   4.8000000000000001E-002    -65.857884079629102     
   4.8300000000000010E-002    -59.150410662257336     
   4.8600000000000004E-002    -50.162045938356627     
   4.8899999999999999E-002    -39.519296681417806     
   4.9200000000000008E-002    -27.904484405615296     
   4.9500000000000002E-002    -16.001240973344938     
   4.9800000000000011E-002    -4.4512837865207517     
   5.0100000000000006E-002     6.1862841703219837     
   5.0400000000000000E-002     15.465974943240100     
   5.0700000000000009E-002     23.067738307483406     
   5.1000000000000004E-002     28.810049518204451     
   5.1299999999999998E-002     32.637724212647171     
   5.1600000000000007E-002     34.611936779434302     
   5.1900000000000002E-002     34.891809677168091     
   5.2200000000000010E-002     33.704599668244903     
   5.2500000000000005E-002     31.326475561789355     
   5.2800000000000000E-002     28.055061930634263     
   5.3099999999999994E-002     24.185593439678836     
   5.3400000000000003E-002     20.000927970293468     
   5.3699999999999998E-002     15.748604076632876     
   5.4000000000000006E-002     11.637888411045269     
   5.4300000000000001E-002     7.8372503953365174     
   5.4599999999999996E-002     4.4629143123013408     
   5.4900000000000004E-002     1.5940650489933303     
   5.5199999999999999E-002   -0.73237440457417580     
   5.5499999999999994E-002    -2.5171697893813052     
   5.5800000000000002E-002    -3.7826738579369970     
   5.6099999999999997E-002    -4.5813848891549158     
   5.6400000000000006E-002    -4.9760644243644787     
   5.6700000000000000E-002    -5.0390255297895781     
   5.6999999999999995E-002    -4.8517897131663412     
   5.7300000000000004E-002    -4.4853890172325395     
   5.7599999999999998E-002    -4.0119641325862663     
   5.7900000000000007E-002    -3.4923907108060144     
   5.8200000000000002E-002    -2.9703558540056401     
   5.8499999999999996E-002    -2.4867657524987621     
   5.8800000000000005E-002    -2.0603083681047356     
   5.9100000000000000E-002    -1.7031497238574322     
   5.9400000000000008E-002    -1.4206739079381991     
   5.9700000000000003E-002    -1.2037876352013372     
   6.0000000000000012E-002    -1.0496755413468246     
   6.0300000000000006E-002   -0.94605954646022117     
   6.0600000000000001E-002   -0.88281842461359128     
   6.0900000000000010E-002   -0.85641547572160148     
   6.1200000000000004E-002   -0.85520830269709613     
   6.1500000000000013E-002   -0.87801011824794750     
   6.1800000000000008E-002   -0.92049594989450290     
   6.2100000000000002E-002   -0.97428574170427840     
   6.2399999999999997E-002    -1.0389127307533432     
   6.2700000000000006E-002    -1.1037790320035326     
   6.3000000000000000E-002    -1.1616771926700258     
   6.3300000000000009E-002    -1.2067479578363616     
   6.3600000000000004E-002    -1.2268568942759455     
   6.3899999999999998E-002    -1.2207070060558711     
   6.4199999999999993E-002    -1.1831529816352062     
   6.4500000000000002E-002    -1.1131101354989013     
   6.4800000000000010E-002    -1.0189363507509159     
   6.5100000000000005E-002   -0.90265991272142809     
   6.5400000000000000E-002   -0.77592750941808264     
   6.5700000000000008E-002   -0.64910844138487678     
   6.5999999999999989E-002   -0.52699426530292537     
   6.6299999999999998E-002   -0.42080802958524904     
   6.6600000000000006E-002   -0.33097629413244228     
   6.6900000000000001E-002   -0.25819866843708805     
   6.7199999999999996E-002   -0.20269366371721301     
   6.7500000000000004E-002   -0.15562585939362100     
   6.7800000000000013E-002   -0.11510464921836047     
   6.8099999999999994E-002    -7.5152678272506393E-002
   6.8400000000000002E-002    -3.0272079230139179E-002
   6.8700000000000011E-002     1.7169006309215459E-002
   6.8999999999999992E-002     6.8923663256255416E-002
   6.9300000000000000E-002    0.12072666148886968     
   6.9600000000000009E-002    0.16620395286814693     
   6.9900000000000004E-002    0.20358059380210161     
   7.0199999999999999E-002    0.22589923928497813     
   7.0500000000000007E-002    0.23233311356264574     
   7.0800000000000016E-002    0.22463295426476604     
   7.1099999999999997E-002    0.20286332741025809     
   7.1400000000000005E-002    0.17534297045943620     
   7.1700000000000000E-002    0.14714660732785448     
   7.1999999999999995E-002    0.12407171316170913     
   7.2300000000000003E-002    0.11423929426908461     
   7.2600000000000012E-002    0.11859688509410836     
   7.2900000000000006E-002    0.13937895966257460     
   7.3200000000000001E-002    0.17524745352512544     
   7.3499999999999996E-002    0.21950862342474892     
   7.3800000000000004E-002    0.26868860707250869     
   7.4099999999999999E-002    0.31450675484462803     
   7.4400000000000008E-002    0.35009516642320621     
   7.4700000000000003E-002    0.37295354687323340     
   7.5000000000000011E-002    0.37745283307976668     
   7.5299999999999992E-002    0.36535467051459208     
   7.5600000000000001E-002    0.33870728314269011     
   7.5900000000000009E-002    0.30029569751886909     
   7.6200000000000004E-002    0.25746716969124867     
   7.6499999999999999E-002    0.21324362469527777     
   7.6800000000000007E-002    0.17298313265141854     
   7.7099999999999988E-002    0.14026812630518368     
   7.7399999999999997E-002    0.11479509862384210     
   7.7700000000000005E-002     9.6930707845961236E-002
   7.8000000000000014E-002     8.3513695090380508E-002
   7.8299999999999995E-002     7.1003477560300149E-002
   7.8600000000000003E-002     5.6305296795851535E-002
   7.8900000000000012E-002     3.6398389433918273E-002
   7.9199999999999993E-002     1.0318971772815197E-002
   7.9500000000000001E-002    -2.0833685490958608E-002
   7.9800000000000010E-002    -5.3886858007781646E-002
   8.0100000000000018E-002    -8.4792810577838995E-002
   8.0399999999999999E-002   -0.10654833291373242     
   8.0700000000000008E-002   -0.11436604000605442     
   8.1000000000000003E-002   -0.10356420343796442     
   8.1299999999999997E-002    -7.0552812973712103E-002
   8.1600000000000006E-002    -1.8406895030324253E-002
   8.1900000000000014E-002     5.0570490946444460E-002
   8.2199999999999995E-002    0.12769615161236947     
   8.2500000000000004E-002    0.20219536699337659     
   8.2799999999999999E-002    0.26534269982277875     
   8.3100000000000007E-002    0.30320812749873788     
   8.3400000000000002E-002    0.30949760893837996     
   8.3700000000000011E-002    0.28034190896416272     
   8.4000000000000005E-002    0.21360469232005586     
   8.4300000000000000E-002    0.11940420544380767     
   8.4599999999999995E-002     6.0580923987197943E-003
   8.4900000000000003E-002   -0.11066653008293860     
   8.5199999999999998E-002   -0.21149951568978281     
   8.5500000000000007E-002   -0.28495247646150429     
   8.5800000000000001E-002   -0.31383804785785530     
   8.6100000000000010E-002   -0.29332356064224613     
   8.6399999999999991E-002   -0.22518450325733833     
   8.6699999999999999E-002   -0.11367067830243763     
   8.7000000000000008E-002     2.0088600366605550E-002
   8.7300000000000003E-002    0.15757389935965779     
   8.7599999999999997E-002    0.27416793928279032     
   8.7900000000000006E-002    0.34204323067264819     
   8.8200000000000014E-002    0.34674854004630157     
   8.8499999999999995E-002    0.27207563588987183     
   8.8800000000000004E-002    0.11775561960509476     
   8.9100000000000013E-002   -0.10267804324443700     
   8.9399999999999993E-002   -0.37179626369685120     
   8.9700000000000002E-002   -0.65199538862943307     
   9.0000000000000011E-002   -0.90593172472924843     
   9.0299999999999991E-002    -1.0940937429195032     
   9.0600000000000000E-002    -1.1738596531134213     
   9.0900000000000009E-002    -1.1210578073738571     
   9.1200000000000017E-002   -0.91727203982043437     
   9.1499999999999998E-002   -0.56323280528807740     
   9.1800000000000007E-002    -8.2655375992499031E-002
   9.2100000000000001E-002    0.49158815506430759     
   9.2399999999999996E-002     1.1038443521046204     
   9.2700000000000005E-002     1.6916547180411683     
   9.3000000000000013E-002     2.1927539203893107     
   9.3300000000000008E-002     2.5415929456190960     
   9.3600000000000003E-002     2.6915143538706237     
   9.3899999999999997E-002     2.6104317744759986     
   9.4200000000000006E-002     2.2858537429551502     
   9.4500000000000001E-002     1.7360797196987729     
   9.4800000000000009E-002    0.99637508842039557     
   9.5100000000000004E-002    0.12425389524879694     
   9.5399999999999999E-002   -0.80490943112874325     
   9.5699999999999993E-002    -1.7163881425202425     
   9.6000000000000002E-002    -2.5298503582729608     
   9.6300000000000011E-002    -3.1758802739862779     
   9.6600000000000005E-002    -3.6057041276325204     
   9.6900000000000000E-002    -3.7812829508455970     
   9.7200000000000009E-002    -3.6971364553681094     
   9.7499999999999989E-002    -3.3661318527785666     
   9.7799999999999998E-002    -2.8173349879692058     
   9.8100000000000007E-002    -2.1069377808408780     
   9.8400000000000015E-002    -1.2886584365026921     
   9.8699999999999996E-002   -0.42758230350393645     
   9.9000000000000005E-002    0.41089833518806668     
   9.9300000000000013E-002     1.1788101784955836     
   9.9599999999999994E-002     1.8250242738580729     
   9.9900000000000003E-002     2.3213273309338125     
  0.10020000000000001          2.6522225009804745     
  0.10049999999999999          2.8067267926854251     
  0.10080000000000000          2.8003152417469712     
  0.10110000000000001          2.6441258086401462     
  0.10140000000000000          2.3618253507642502     
  0.10170000000000000          1.9875028369539289     
  0.10200000000000001          1.5427800873813060     
  0.10230000000000002          1.0655540926408542     
  0.10260000000000000         0.58258095858684122     
  0.10290000000000001         0.11698916310531686     
  0.10320000000000000        -0.30097458888781614     
  0.10350000000000001        -0.66052361722720354     
  0.10380000000000000        -0.94348342254707218     
  0.10410000000000001         -1.1406911022422734     
  0.10440000000000001         -1.2552685102748193     
  0.10470000000000000         -1.2823819468922202     
  0.10500000000000000         -1.2356653790685534     
  0.10530000000000000         -1.1263197108917467     
  0.10560000000000000        -0.96578110520216398     
  0.10590000000000001        -0.77811177858527969     
  0.10620000000000000        -0.57479808054906956     
  0.10650000000000001        -0.37470732460440326     
  0.10679999999999999        -0.19329663389638899     
  0.10710000000000000         -3.5690352437419734E-002
  0.10740000000000001          8.6517990903688835E-002
  0.10770000000000000         0.17539349667014481     
  0.10800000000000000         0.23260966187978227     
  0.10830000000000001         0.25991697736012587     
  0.10859999999999999         0.26844157425745413     
  0.10890000000000000         0.26179118666979223     
  0.10920000000000001         0.24739280644956332     
  0.10950000000000001         0.23174387636198762     
  0.10979999999999999         0.21510668595193033     
  0.11009999999999999         0.20144373751988626     
  0.11040000000000001         0.18907860556664449     
  0.11070000000000001         0.17620982912333091     
  0.11100000000000000         0.16220048822852534     
  0.11130000000000000         0.14424831504134714     
  0.11160000000000002         0.12213495559064270     
  0.11190000000000001          9.6378851045638425E-002
  0.11220000000000001          6.8223667134284238E-002
  0.11250000000000000          3.9744658578467526E-002
  0.11280000000000000          1.4579988630607488E-002
  0.11309999999999999         -5.9443185412182877E-003
  0.11340000000000001         -1.9512955888969716E-002
  0.11369999999999998         -2.4829708518821183E-002
  0.11400000000000000         -2.4625071189962634E-002
  0.11430000000000000         -1.7963641500759048E-002
  0.11460000000000002         -9.5144675780603691E-003
  0.11489999999999999         -2.3677937194302541E-003
  0.11520000000000001          3.1300387249424818E-003
  0.11550000000000001          1.4134781360315343E-003
  0.11580000000000000         -5.0895970545940788E-003
  0.11609999999999999         -1.6809205914073273E-002
  0.11640000000000002         -3.3858327843327235E-002
  0.11670000000000001         -4.9541892018490095E-002
  0.11700000000000001         -6.5010820301112757E-002
  0.11730000000000000         -7.5168121826725554E-002
  0.11760000000000000         -7.7631998669726282E-002
  0.11789999999999999         -7.4981998999051197E-002
  0.11820000000000001         -6.2870827330436696E-002
  0.11850000000000001         -4.7324480342028588E-002
  0.11880000000000000         -2.9999994687970179E-002
  0.11910000000000000         -1.2036012294655131E-002
  0.11940000000000002         -8.3651488588763604E-004
  0.11970000000000001          5.5378498324740585E-003
  0.12000000000000001          3.5957061658264643E-003
  0.12030000000000000         -6.9649922689317516E-003
  0.12060000000000000         -2.2002968388218153E-002
  0.12089999999999999         -4.2914240087517722E-002
  0.12119999999999999         -6.3543317073708958E-002
  0.12150000000000001         -8.2067172998365231E-002
  0.12180000000000001         -9.7261834308466591E-002
  0.12210000000000000        -0.10441602276059890     
  0.12239999999999999        -0.10614885646248706     
  0.12270000000000002        -0.10122961089236528     
  0.12300000000000001         -9.0908068689431326E-002
  0.12330000000000001         -7.9024005943068340E-002
  0.12360000000000000         -6.5586198938832982E-002
  0.12390000000000000         -5.4134992457224328E-002
  0.12419999999999999         -4.4652188173462948E-002
  0.12450000000000001         -3.7410618962963937E-002
  0.12480000000000001         -3.2385385125901195E-002
  0.12509999999999999         -2.6799751979811760E-002
  0.12540000000000001         -2.0319421646065823E-002
  0.12570000000000003         -1.0063409128978648E-002
  0.12600000000000000          4.7020870840070225E-003
  0.12630000000000002          2.4182158568776629E-002
  0.12659999999999999          4.8577176322935144E-002
  0.12690000000000001          7.4754078336116789E-002
  0.12719999999999998         0.10218566199731564     
  0.12750000000000000         0.12621496041431454     
  0.12780000000000002         0.14451945645839187     
  0.12809999999999999         0.15613640136108553     
  0.12840000000000001         0.15702939797253379     
  0.12869999999999998         0.15020991189349037     
  0.12900000000000000         0.13494757720969031     
  0.12930000000000003         0.11346941700167738     
  0.12959999999999999          9.1176126432057386E-002
  0.12990000000000002          6.7664613369066540E-002
  0.13019999999999998          4.9284240729640313E-002
  0.13050000000000000          3.6465554745935623E-002
  0.13080000000000003          2.9262259046392004E-002
  0.13109999999999999          3.0620380802032100E-002
  0.13140000000000002          3.4818626028381504E-002
  0.13169999999999998          4.2661423344475875E-002
  0.13200000000000001          5.1386108734931817E-002
  0.13229999999999997          5.6045224414594613E-002
  0.13260000000000000          5.8939350318971476E-002
  0.13290000000000002          5.5605181983646036E-002
  0.13319999999999999          4.8198872996410687E-002
  0.13350000000000001          3.9101208096004821E-002
  0.13380000000000003          2.6960828193000309E-002
  0.13410000000000000          1.7789031852188393E-002
  0.13440000000000002          1.0646919546786933E-002
  0.13469999999999999          6.8347517440044111E-003
  0.13500000000000001          8.4988212586164374E-003
  0.13529999999999998          1.1179021933800701E-002
  0.13560000000000000          1.5554019321927513E-002
  0.13590000000000002          1.8356338988240996E-002
  0.13619999999999999          1.5685726638323537E-002
  0.13650000000000001          8.2747844869678899E-003
  0.13680000000000003         -7.1799039057534797E-003
  0.13710000000000000         -2.9362845275316390E-002
  0.13740000000000002         -5.5648428846242187E-002
  0.13769999999999999         -8.5360754338285452E-002
  0.13800000000000001        -0.11276874924305715     
  0.13829999999999998        -0.13538950051356816     
  0.13860000000000000        -0.15091718038130064     
  0.13890000000000002        -0.15564853712069823     
  0.13919999999999999        -0.15130000606609939     
  0.13950000000000001        -0.13797458382436978     
  0.13979999999999998        -0.11744837680451808     
  0.14010000000000000         -9.4777833423933547E-002
  0.14040000000000002         -7.1574439274466273E-002
  0.14069999999999999         -5.1524581406594105E-002
  0.14100000000000001         -3.7575076237928162E-002
  0.14130000000000004         -2.8823659944282664E-002
  0.14160000000000000         -2.7000335340521476E-002
  0.14189999999999997         -2.9540336853033675E-002
  0.14219999999999999         -3.3481704755664088E-002
  0.14250000000000002         -3.8719101416529386E-002
  0.14279999999999998         -4.0581053432971831E-002
  0.14310000000000000         -3.9351808229462513E-002
  0.14339999999999997         -3.5494374794167387E-002
  0.14369999999999999         -2.7615184875637522E-002
  0.14400000000000002         -2.0535941728984250E-002
  0.14429999999999998         -1.4322611397312134E-002
  0.14460000000000001         -1.1041893580430671E-002
  0.14490000000000003         -1.4129365770860981E-002
  0.14520000000000000         -2.0916496785477825E-002
  0.14550000000000002         -3.3192681821538499E-002
  0.14579999999999999         -4.8385722504269250E-002
  0.14610000000000001         -6.2043105135224597E-002
  0.14640000000000003         -7.4142154625608858E-002
  0.14670000000000000         -7.8618582253222838E-002
  0.14699999999999996         -7.5058016909670719E-002
  0.14729999999999999         -6.3415509417450486E-002
  0.14760000000000001         -4.1491808084843422E-002
  0.14789999999999998         -1.4575242353394668E-002
  0.14820000000000000          1.6579655020508784E-002