  -1.4999999999999999E-002     0.0000000000000000     
  -1.4700000000000000E-002     0.0000000000000000     
  -1.4400000000000000E-002     0.0000000000000000     
  -1.4100000000000000E-002     0.0000000000000000     
  -1.3800000000000000E-002     0.0000000000000000     
  -1.3500000000000000E-002     0.0000000000000000     
  -1.3200000000000000E-002     0.0000000000000000     
  -1.2899999999999998E-002     0.0000000000000000     
  -1.2600000000000000E-002     0.0000000000000000     
  -1.2299999999999998E-002     0.0000000000000000     
  -1.2000000000000000E-002     0.0000000000000000     
  -1.1699999999999999E-002     0.0000000000000000     
  -1.1399999999999999E-002     0.0000000000000000     
  -1.1099999999999999E-002     0.0000000000000000     
  -1.0799999999999999E-002     0.0000000000000000     
  -1.0499999999999999E-002     0.0000000000000000     
  -1.0199999999999999E-002     0.0000000000000000     
  -9.8999999999999991E-003     0.0000000000000000     
  -9.5999999999999992E-003     0.0000000000000000     
  -9.2999999999999992E-003     0.0000000000000000     
  -8.9999999999999993E-003     0.0000000000000000     
  -8.6999999999999994E-003     0.0000000000000000     
  -8.3999999999999995E-003     0.0000000000000000     
  -8.0999999999999996E-003     0.0000000000000000     
  -7.7999999999999988E-003     0.0000000000000000     
  -7.4999999999999997E-003     0.0000000000000000     
  -7.1999999999999998E-003     0.0000000000000000     
  -6.8999999999999981E-003     0.0000000000000000     
  -6.5999999999999982E-003     0.0000000000000000     
  -6.3000000000000000E-003     0.0000000000000000     
  -6.0000000000000001E-003     0.0000000000000000     
  -5.6999999999999985E-003     0.0000000000000000     
  -5.3999999999999986E-003     0.0000000000000000     
  -5.1000000000000004E-003     0.0000000000000000     
  -4.7999999999999987E-003     0.0000000000000000     
  -4.5000000000000005E-003     0.0000000000000000     
  -4.1999999999999989E-003     0.0000000000000000     
  -3.8999999999999990E-003     0.0000000000000000     
  -3.5999999999999990E-003     0.0000000000000000     
  -3.2999999999999991E-003     0.0000000000000000     
  -2.9999999999999992E-003     0.0000000000000000     
  -2.6999999999999993E-003     0.0000000000000000     
  -2.3999999999999994E-003     0.0000000000000000     
  -2.0999999999999977E-003     0.0000000000000000     
  -1.7999999999999995E-003     0.0000000000000000     
  -1.4999999999999979E-003     0.0000000000000000     
  -1.1999999999999997E-003     0.0000000000000000     
  -8.9999999999999976E-004     0.0000000000000000     
  -5.9999999999999810E-004     0.0000000000000000     
  -2.9999999999999992E-004     0.0000000000000000     
   0.0000000000000000          0.0000000000000000     
   3.0000000000000165E-004     0.0000000000000000     
   5.9999999999999984E-004     0.0000000000000000     
   9.0000000000000149E-004     0.0000000000000000     
   1.2000000000000031E-003     0.0000000000000000     
   1.5000000000000013E-003     0.0000000000000000     
   1.8000000000000030E-003     0.0000000000000000     
   2.1000000000000012E-003     0.0000000000000000     
   2.3999999999999994E-003     0.0000000000000000     
   2.7000000000000010E-003     0.0000000000000000     
   2.9999999999999992E-003     0.0000000000000000     
   3.3000000000000008E-003     0.0000000000000000     
   3.6000000000000025E-003     0.0000000000000000     
   3.9000000000000007E-003     0.0000000000000000     
   4.2000000000000023E-003     0.0000000000000000     
   4.5000000000000005E-003     0.0000000000000000     
   4.7999999999999987E-003     0.0000000000000000     
   5.1000000000000004E-003     0.0000000000000000     
   5.4000000000000020E-003     0.0000000000000000     
   5.7000000000000037E-003     0.0000000000000000     
   5.9999999999999984E-003     0.0000000000000000     
   6.3000000000000000E-003     0.0000000000000000     
   6.6000000000000017E-003     0.0000000000000000     
   6.9000000000000034E-003     0.0000000000000000     
   7.2000000000000015E-003     0.0000000000000000     
   7.5000000000000032E-003     0.0000000000000000     
   7.8000000000000014E-003     0.0000000000000000     
   8.0999999999999996E-003     0.0000000000000000     
   8.4000000000000012E-003     0.0000000000000000     
   8.7000000000000029E-003     0.0000000000000000     
   9.0000000000000011E-003     0.0000000000000000     
   9.2999999999999992E-003     0.0000000000000000     
   9.6000000000000009E-003    -2.3631528720538117E-045
   9.8999999999999991E-003     8.1126198841125977E-043
   1.0200000000000001E-002    -1.2543006184170707E-036
   1.0500000000000002E-002     5.6101426608133436E-035
   1.0800000000000004E-002     7.1582245518283335E-035
   1.1099999999999999E-002    -4.2067811808599978E-033
   1.1400000000000000E-002    -6.3381918866722214E-034
   1.1700000000000002E-002     2.0005131211260507E-031
   1.2000000000000004E-002    -5.8739796834217387E-031
   1.2300000000000002E-002    -5.3756605941994246E-030
   1.2600000000000000E-002     4.0774524618128860E-029
   1.2900000000000002E-002    -1.3678043275329175E-029
   1.3200000000000000E-002    -1.0120323456173820E-027
   1.3500000000000002E-002     4.9448453591141376E-027
   1.3800000000000003E-002    -1.8474878136816034E-027
   1.4100000000000001E-002    -8.3371765791993413E-026
   1.4400000000000000E-002     4.1884362766112686E-025
   1.4700000000000001E-002    -6.9485437990550205E-025
   1.4999999999999999E-002    -2.3965818552681597E-024
   1.5300000000000001E-002     1.8948703747048097E-023
   1.5600000000000003E-002    -5.7667558983505278E-023
   1.5899999999999997E-002     7.0267805580290009E-023
   1.6199999999999999E-002     1.6709829917128073E-022
   1.6500000000000001E-002    -1.0715899632175269E-021
   1.6800000000000002E-002     2.7558298871238563E-021
   1.7100000000000004E-002    -4.5584701950664283E-021
   1.7400000000000006E-002     1.1606643698790558E-020
   1.7700000000000000E-002    -7.6132925264363962E-020
   1.8000000000000002E-002     4.4771093623091991E-019
   1.8300000000000004E-002    -1.9867004615093534E-018
   1.8600000000000005E-002     7.1255491705707778E-018
   1.8900000000000000E-002    -2.2082285213298779E-017
   1.9200000000000002E-002     6.3727011746903716E-017
   1.9500000000000003E-002    -1.9170207543267121E-016
   1.9799999999999998E-002     6.7977771337664701E-016
   2.0100000000000000E-002    -2.8665167451504646E-015
   2.0400000000000001E-002     1.2810291818355185E-014
   2.0700000000000003E-002    -5.4206401157158852E-014
   2.0999999999999998E-002     2.0208076460268529E-013
   2.1299999999999999E-002    -6.2151412938114778E-013
   2.1600000000000001E-002     1.3897912396606093E-012
   2.1900000000000003E-002    -1.2049164769370911E-012
   2.2200000000000004E-002    -6.5868409150083048E-012
   2.2500000000000006E-002     3.7683138006135924E-011
   2.2800000000000001E-002    -9.4372441673933384E-011
   2.3100000000000002E-002     6.0750192081064829E-011
   2.3400000000000004E-002     4.1871052211715956E-010
   2.3699999999999999E-002    -1.4594698161197251E-009
   2.4000000000000000E-002     1.0731926051932821E-009
   2.4300000000000002E-002     5.1068737402766690E-009
   2.4599999999999997E-002    -1.2497271652680620E-008
   2.4900000000000005E-002    -6.4904367829223657E-009
   2.5200000000000000E-002     5.2142562969467138E-008
   2.5499999999999995E-002    -1.6798506021372041E-009
   2.5800000000000003E-002    -1.8297667020972436E-007
   2.6099999999999998E-002    -4.7920913726267117E-008
   2.6400000000000007E-002     5.1226800627755315E-007
   2.6700000000000002E-002     4.2596007725434298E-007
   2.6999999999999996E-002    -1.0579489531606049E-006
   2.7300000000000005E-002    -1.7970572829666681E-006
   2.7600000000000000E-002     1.6907273882133382E-006
   2.7900000000000008E-002     9.0283201764825478E-006
   2.8200000000000003E-002     1.5400023651218081E-005
   2.8499999999999998E-002     1.8631679514949200E-005
   2.8800000000000006E-002     2.4935852554613930E-005
   2.9100000000000001E-002     4.3841448415493928E-005
   2.9400000000000003E-002     7.8033074946070634E-005
   2.9700000000000004E-002     1.2367693505089362E-004
   3.0000000000000006E-002     1.8273672451068102E-004
   3.0300000000000001E-002     2.7084532299931721E-004
   3.0600000000000002E-002     4.0987958050552997E-004
   3.0900000000000004E-002     6.1625069529704134E-004
   3.1199999999999999E-002     9.0368255253157827E-004
   3.1500000000000007E-002     1.2983563764620964E-003
   3.1800000000000002E-002     1.8451608629413633E-003
   3.2099999999999997E-002     2.5975230149204451E-003
   3.2400000000000005E-002     3.6069613854925273E-003
   3.2700000000000000E-002     4.9284107375539461E-003
   3.3000000000000002E-002     6.6320753298349548E-003
   3.3300000000000003E-002     8.8007641708003626E-003
   3.3599999999999998E-002     1.1513459001667010E-002
   3.3900000000000000E-002     1.4832691618344856E-002
   3.4200000000000001E-002     1.8804171338897255E-002
   3.4500000000000003E-002     2.3455386153539020E-002
   3.4799999999999998E-002     2.8779252428165866E-002
   3.5099999999999999E-002     3.4710253492883827E-002
   3.5400000000000001E-002     4.1109396919252909E-002
   3.5699999999999996E-002     4.7760858029645852E-002
   3.6000000000000004E-002     5.4367861587210985E-002
   3.6299999999999999E-002     6.0548542998696303E-002
   3.6600000000000008E-002     6.5832293804542114E-002
   3.6900000000000002E-002     6.9667972219530458E-002
   3.7199999999999997E-002     7.1469560282637387E-002
   3.7500000000000006E-002     7.0649982039929698E-002
   3.7800000000000000E-002     6.6656270288312433E-002
   3.8100000000000009E-002     5.9032609657716645E-002
   3.8400000000000004E-002     4.7463255687747251E-002
   3.8699999999999998E-002     3.1846154008117286E-002
   3.9000000000000007E-002     1.2344742363024635E-002
   3.9300000000000002E-002    -1.0598134487426488E-002
   3.9600000000000003E-002    -3.6231304407514237E-002
   3.9900000000000005E-002    -6.3523824089443418E-002
   4.0200000000000000E-002    -9.1205376096533938E-002
   4.0500000000000001E-002   -0.11779746724359345     
   4.0800000000000003E-002   -0.14174016948125714     
   4.1100000000000005E-002   -0.16152518725319973     
   4.1399999999999999E-002   -0.17579182843208835     
   4.1700000000000008E-002   -0.18344375492357590     
   4.2000000000000003E-002   -0.18375921400823114     
   4.2299999999999997E-002   -0.17647971515714725     
   4.2600000000000006E-002   -0.16187341956859191     
   4.2900000000000001E-002   -0.14072374079237812     
   4.3200000000000002E-002   -0.11427800280180858     
   4.3500000000000004E-002    -8.4189280752280549E-002
   4.3799999999999999E-002    -5.2404441108566992E-002
   4.4100000000000000E-002    -2.1034522044535379E-002
   4.4400000000000002E-002     7.8208311086820290E-003
   4.4700000000000004E-002     3.2192123466350454E-002
   4.4999999999999998E-002     5.0429208755906486E-002
   4.5300000000000000E-002     6.1230689350256447E-002
   4.5600000000000002E-002     6.3766559316277505E-002
   4.5899999999999996E-002     5.7772010027879225E-002
   4.6200000000000005E-002     4.3460072137660760E-002
   4.6500000000000000E-002     2.1554252828851123E-002
   4.6799999999999994E-002    -6.7236831359461010E-003
   4.7100000000000003E-002    -3.9819727232329127E-002
   4.7399999999999998E-002    -7.5860583738909318E-002
   4.7700000000000006E-002   -0.11276685523836726     
   4.8000000000000001E-002   -0.14841837471264446     
   4.8300000000000010E-002   -0.18062407542210038     
   4.8600000000000004E-002   -0.20734762426464182     
   4.8899999999999999E-002   -0.22680383230076243     
   4.9200000000000008E-002   -0.23745345425651454     
   4.9500000000000002E-002   -0.23817808344567037     
   4.9800000000000011E-002   -0.22834984450605544     
   5.0100000000000006E-002   -0.20781924895337428     
   5.0400000000000000E-002   -0.17696542701147586     
   5.0700000000000009E-002   -0.13671484344438448     
   5.1000000000000004E-002    -8.8488353750830931E-002
   5.1299999999999998E-002    -3.4102882574702127E-002
   5.1600000000000007E-002     2.4344179505274049E-002
   5.1900000000000002E-002     8.4514072903816045E-002
   5.2200000000000010E-002    0.14405715273558770     
   5.2500000000000005E-002    0.20075550410065404     
   5.2800000000000000E-002    0.25256865884980373     
   5.3099999999999994E-002    0.29785787668424779     
   5.3400000000000003E-002    0.33536329424113881     
   5.3699999999999998E-002    0.36426293368023366     
   5.4000000000000006E-002    0.38426997745454544     
   5.4300000000000001E-002    0.39551364842807629     
   5.4599999999999996E-002    0.39847278052200513     
   5.4900000000000004E-002    0.39392312819275732     
   5.5199999999999999E-002    0.38281261391571858     
   5.5499999999999994E-002    0.36625617236629476     
   5.5800000000000002E-002    0.34536066178216668     
   5.6099999999999997E-002    0.32111030387052558     
   5.6400000000000006E-002    0.29444452743954219     
   5.6700000000000000E-002    0.26611569210778613     
   5.6999999999999995E-002    0.23670778927737124     
   5.7300000000000004E-002    0.20669039922902313     
   5.7599999999999998E-002    0.17631511316061238     
   5.7900000000000007E-002    0.14572501201667346     
   5.8200000000000002E-002    0.11504455025588871     
   5.8499999999999996E-002     8.4357844890709729E-002
   5.8800000000000005E-002     5.3763783711377196E-002
   5.9100000000000000E-002     2.3418975999178082E-002
   5.9400000000000008E-002    -6.3845048317225286E-003
   5.9700000000000003E-002    -3.5163759252681413E-002
   6.0000000000000012E-002    -6.2320782782085686E-002
   6.0300000000000006E-002    -8.7091575694685619E-002
   6.0600000000000001E-002   -0.10855132726071383     
   6.0900000000000010E-002   -0.12573797755197588     
   6.1200000000000004E-002   -0.13773272838550313     
   6.1500000000000013E-002   -0.14371164235166112     
   6.1800000000000008E-002   -0.14308037164854834     
   6.2100000000000002E-002   -0.13564780875376342     
   6.2399999999999997E-002   -0.12164914600368529     
   6.2700000000000006E-002   -0.10176488202793939     
   6.3000000000000000E-002    -7.7230509197642350E-002
   6.3300000000000009E-002    -4.9762380372946585E-002
   6.3600000000000004E-002    -2.1411403720027210E-002
   6.3899999999999998E-002     5.5523765380331280E-003
   6.4199999999999993E-002     2.8794334502622296E-002
   6.4500000000000002E-002     4.6116274610882989E-002
   6.4800000000000010E-002     5.5697246494747880E-002
   6.5100000000000005E-002     5.6271856471297121E-002
   6.5400000000000000E-002     4.7215891026949924E-002
   6.5700000000000008E-002     2.8627774032357670E-002
   6.5999999999999989E-002     1.3332336249662206E-003
   6.6299999999999998E-002    -3.3097476735984108E-002
   6.6600000000000006E-002    -7.2517661476310474E-002
   6.6900000000000001E-002   -0.11438016930669997     
   6.7199999999999996E-002   -0.15585598507331538     
   6.7500000000000004E-002   -0.19418476556915759     
   6.7800000000000013E-002   -0.22672036261584277     
   6.8099999999999994E-002   -0.25105978516521288     
   6.8400000000000002E-002   -0.26547469216927322     
   6.8700000000000011E-002   -0.26871554670431069     
   6.8999999999999992E-002   -0.26016928511643528     
   6.9300000000000000E-002   -0.23998153634679778     
   6.9600000000000009E-002   -0.20885119458058543     
   6.9900000000000004E-002   -0.16820388360453545     
   7.0199999999999999E-002   -0.11996491529211925     
   7.0500000000000007E-002    -6.6359584303191499E-002
   7.0800000000000016E-002    -1.0083871044672049E-002
   7.1099999999999997E-002     4.6080078098760129E-002
   7.1400000000000005E-002     9.9403468451211049E-002
   7.1700000000000000E-002    0.14712275212489662     
   7.1999999999999995E-002    0.18686617463136579     
   7.2300000000000003E-002    0.21666408558545111     
   7.2600000000000012E-002    0.23488629797235058     
   7.2900000000000006E-002    0.24054166104263811     
   7.3200000000000001E-002    0.23315062561229330     
   7.3499999999999996E-002    0.21269481856066982     
   7.3800000000000004E-002    0.17972372018139204     
   7.4099999999999999E-002    0.13511353362214221     
   7.4400000000000008E-002     8.0085125902035439E-002
   7.4700000000000003E-002     1.6136493927845798E-002
   7.5000000000000011E-002    -5.5228684303030552E-002
   7.5299999999999992E-002   -0.13234752305593403     
   7.5600000000000001E-002   -0.21341074763724430     
   7.5900000000000009E-002   -0.29663326978810151     
   7.6200000000000004E-002   -0.38006764192595560     
   7.6499999999999999E-002   -0.46156694952846777     
   7.6800000000000007E-002   -0.53891705890147812     
   7.7099999999999988E-002   -0.60961830031084330     
   7.7399999999999997E-002   -0.67087017939442728     
   7.7700000000000005E-002   -0.71986412529004529     
   7.8000000000000014E-002   -0.75378250721829043     
   7.8299999999999995E-002   -0.76991641324998439     
   7.8600000000000003E-002   -0.76583623878533791     
   7.8900000000000012E-002   -0.73968470302726552     
   7.9199999999999993E-002   -0.69047332240837511     
   7.9500000000000001E-002   -0.61807650978820095     
   7.9800000000000010E-002   -0.52344883341019577     
   8.0100000000000018E-002   -0.40881756966284583     
   8.0399999999999999E-002   -0.27725381793960058     
   8.0700000000000008E-002   -0.13278883399818489     
   8.1000000000000003E-002     1.9547020352834159E-002
   8.1299999999999997E-002    0.17441289519737177     
   8.1600000000000006E-002    0.32637186899963383     
   8.1900000000000014E-002    0.47009586574843554     
   8.2199999999999995E-002    0.60079043668823029     
   8.2500000000000004E-002    0.71419930338511628     
   8.2799999999999999E-002    0.80690771560630659     
   8.3100000000000007E-002    0.87658614475272767     
   8.3400000000000002E-002    0.92172659309880356     
   8.3700000000000011E-002    0.94171131793288587     
   8.4000000000000005E-002    0.93673522623857131     
   8.4300000000000000E-002    0.90758748342621509     
   8.4599999999999995E-002    0.85581357821991733     
   8.4900000000000003E-002    0.78352822375312525     
   8.5199999999999998E-002    0.69322712618538040     
   8.5500000000000007E-002    0.58805717240091127     
   8.5800000000000001E-002    0.47181449291589006     
   8.6100000000000010E-002    0.34875190912971732     
   8.6399999999999991E-002    0.22369714409088431     
   8.6699999999999999E-002    0.10192360717226910     
   8.7000000000000008E-002    -1.1163042562317815E-002
   8.7300000000000003E-002   -0.11015208718599452     
   8.7599999999999997E-002   -0.19014380308541720     
   8.7900000000000006E-002   -0.24723621861282455     
   8.8200000000000014E-002   -0.27877537727966639     
   8.8499999999999995E-002   -0.28394873357432954     
   8.8800000000000004E-002   -0.26391382456568274     
   8.9100000000000013E-002   -0.22173426943302485     
   8.9399999999999993E-002   -0.16280495906741424     
   8.9700000000000002E-002    -9.4104561801423667E-002
   9.0000000000000011E-002    -2.3602062291241982E-002
   9.0299999999999991E-002     3.9976240544297319E-002
   9.0600000000000000E-002     8.8464770938521245E-002
   9.0900000000000009E-002    0.11489607352692026     
   9.1200000000000017E-002    0.11398145034652089     
   9.1499999999999998E-002     8.3235022365746147E-002
   9.1800000000000007E-002     2.3068217870984994E-002
   9.2100000000000001E-002    -6.3055262890811384E-002
   9.2399999999999996E-002   -0.16853533074674745     
   9.2700000000000005E-002   -0.28469150797033826     
   9.3000000000000013E-002   -0.40095978763033929     
   9.3300000000000008E-002   -0.50580340748714459     
   9.3600000000000003E-002   -0.58818847463191337     
   9.3899999999999997E-002   -0.63800621978763361     
   9.4200000000000006E-002   -0.64730752868721053     
   9.4500000000000001E-002   -0.61124815253827058     
   9.4800000000000009E-002   -0.52798809553561510     
   9.5100000000000004E-002   -0.39921217203711629     
   9.5399999999999999E-002   -0.23028925521674445     
   9.5699999999999993E-002    -2.9651796586387918E-002
   9.6000000000000002E-002    0.19158414245869271     
   9.6300000000000011E-002    0.42048796361209939     
   9.6600000000000005E-002    0.64305067132102045     
   9.6900000000000000E-002    0.84482926990601892     
   9.7200000000000009E-002     1.0121610331143194     
   9.7499999999999989E-002     1.1327969077750211     
   9.7799999999999998E-002     1.1964741059846526     
   9.8100000000000007E-002     1.1959867832974409     
   9.8400000000000015E-002     1.1273188975376303     
   9.8699999999999996E-002    0.98993341068682494     
   9.9000000000000005E-002    0.78715405653314496     
   9.9300000000000013E-002    0.52602169349132333     
   9.9599999999999994E-002    0.21702569632710414     
   9.9900000000000003E-002   -0.12626064561086608     
  0.10020000000000001        -0.48780925535722275     
  0.10049999999999999        -0.85001312887495140     
  0.10080000000000000         -1.1946459997273855     
  0.10110000000000001         -1.5035343218783588     
  0.10140000000000000         -1.7598952151722593     
  0.10170000000000000         -1.9492640626478337     
  0.10200000000000001         -2.0599916133168885     
  0.10230000000000002         -2.0842051666112096     
  0.10260000000000000         -2.0179550806258328     
  0.10290000000000001         -1.8615453393734680     
  0.10320000000000000         -1.6195268770318989     
  0.10350000000000001         -1.3000555167392345     
  0.10380000000000000        -0.91471530231026899     
  0.10410000000000001        -0.47787458924248827     
  0.10440000000000001         -5.8505179430755772E-003
  0.10470000000000000         0.48358245264257643     
  0.10500000000000000         0.97215096534872159     
  0.10530000000000000          1.4419079835754420     
  0.10560000000000000          1.8753740581126763     
  0.10590000000000001          2.2564139139856088     
  0.10620000000000000          2.5710646865919395     
  0.10650000000000001          2.8076154939992328     
  0.10679999999999999          2.9569561241166125     
  0.10710000000000000          3.0130493418168287     
  0.10740000000000001          2.9731592939110563     
  0.10770000000000000          2.8377799835831441     
  0.10800000000000000          2.6107344525265876     
  0.10830000000000001          2.2988188220970325     
  0.10859999999999999          1.9116092934187496     
  0.10890000000000000          1.4612580610486132     
  0.10920000000000001         0.96148295485366586     
  0.10950000000000001         0.42729737131823581     
  0.10979999999999999        -0.12552196620947007     
  0.11009999999999999        -0.68134591533962652     
  0.11040000000000001         -1.2249262072650102     
  0.11070000000000001         -1.7419215173612823     
  0.11100000000000000         -2.2193743917482411     
  0.11130000000000000         -2.6455056411501561     
  0.11160000000000002         -3.0098659750778469     
  0.11190000000000001         -3.3035187497015999     
  0.11220000000000001         -3.5188047679116647     
  0.11250000000000000         -3.6487724591120596     
  0.11280000000000000         -3.6874468152881734     
  0.11309999999999999         -3.6302964528697328     
  0.11340000000000001         -3.4738476132490308     
  0.11369999999999998         -3.2160425058072306     
  0.11400000000000000         -2.8571524510790076     
  0.11430000000000000         -2.4002079877909930     
  0.11460000000000002         -1.8516063633686120     
  0.11489999999999999         -1.2219605425384843     
  0.11520000000000001        -0.52641952259295099     
  0.11550000000000001         0.21522464647684147     
  0.11580000000000000         0.97872458673462892     
  0.11609999999999999          1.7359072988180089     
  0.11640000000000002          2.4556529298314920     
  0.11670000000000001          3.1056515903809530     
  0.11700000000000001          3.6542272267917912     
  0.11730000000000000          4.0718803085854596     
  0.11760000000000000          4.3337449703383841     
  0.11789999999999999          4.4217023538260287     
  0.11820000000000001          4.3253040032153276     
  0.11850000000000001          4.0432910682910830     
  0.11880000000000000          3.5843400776948200     
  0.11910000000000000          2.9664580710839559     
  0.11940000000000002          2.2164969404791601     
  0.11970000000000001          1.3689420254547742     
  0.12000000000000001         0.46390495670782433     
  0.12030000000000000        -0.45496033105251737     
  0.12060000000000000         -1.3429770276996233     
  0.12089999999999999         -2.1566808006128944     
  0.12119999999999999         -2.8562280906394117     
  0.12150000000000001         -3.4076890728927158     
  0.12180000000000001         -3.7845213220144571     
  0.12210000000000000         -3.9691052278592598     
  0.12239999999999999         -3.9538407209812521     
  0.12270000000000002         -3.7413604188416163     
  0.12300000000000001         -3.3442816706318985     
  0.12330000000000001         -2.7848637113550847     
  0.12360000000000000         -2.0939769782602031     
  0.12390000000000000         -1.3092104250890892     
  0.12419999999999999        -0.47303277832136198     
  0.12450000000000001         0.36948799602848414     
  0.12480000000000001          1.1734071941838797     
  0.12509999999999999          1.8961524964424099     
  0.12540000000000001          2.4999339617317338     
  0.12570000000000003          2.9546871259840271     
  0.12600000000000000          3.2395146002861743     
  0.12630000000000002          3.3436439175769870     
  0.12659999999999999          3.2671930946841092     
  0.12690000000000001          3.0211062593401956     
  0.12719999999999998          2.6262655409089004     
  0.12750000000000000          2.1116166236502596     
  0.12780000000000002          1.5116849020782854     
  0.12809999999999999         0.86453443896493121     
  0.12840000000000001         0.20908551786212773     
  0.12869999999999998        -0.41809646761233665     
  0.12900000000000000        -0.98471709450041489     
  0.12930000000000003         -1.4647155126757032     
  0.12959999999999999         -1.8395524417382043     
  0.12990000000000002         -2.0984154196471643     
  0.13019999999999998         -2.2382982258893418     
  0.13050000000000000         -2.2634308823793869     
  0.13080000000000003         -2.1842744807149335     
  0.13109999999999999         -2.0155954754578640     
  0.13140000000000002         -1.7751733362193216     
  0.13169999999999998         -1.4827526979961214     
  0.13200000000000001         -1.1585454963894450     
  0.13229999999999997        -0.82190136686562576     
  0.13260000000000000        -0.49090227352363397     
  0.13290000000000002        -0.18176588134160740     
  0.13319999999999999          9.1934229025222802E-002
  0.13350000000000001         0.31911362660398329     
  0.13380000000000003         0.49176742897080872     
  0.13410000000000000         0.60524430498963899     
  0.13440000000000002         0.65843793240263071     
  0.13469999999999999         0.65389205850535881     
  0.13500000000000001         0.59806943634297138     
  0.13529999999999998         0.50124250980332130     
  0.13560000000000000         0.37667677033826757     
  0.13590000000000002         0.24040884872999424     
  0.13619999999999999         0.10990981393956731     
  0.13650000000000001          2.6132487688159808E-003
  0.13680000000000003         -6.5570771726177299E-002
  0.13710000000000000         -8.1662790565646279E-002
  0.13740000000000002         -3.6967179678615472E-002
  0.13769999999999999          7.1256146846956539E-002
  0.13800000000000001         0.23942564319051371     
  0.13829999999999998         0.45804280251764506     
  0.13860000000000000         0.71149257840447278     
  0.13890000000000002         0.97913431389771799     
  0.13919999999999999          1.2375857316999710     
  0.13950000000000001          1.4621030948697564     
  0.13979999999999998          1.6290372460399489     
  0.14010000000000000          1.7179495127847235     
  0.14040000000000002          1.7133075195679743     
  0.14069999999999999          1.6065216399815883     
  0.14100000000000001          1.3965462885523137     
  0.14130000000000004          1.0904599931899586     
  0.14160000000000000         0.70342307588564179     
  0.14189999999999997         0.25715657208952186     
  0.14219999999999999        -0.22117708502295810     
  0.14250000000000002        -0.70043077243435159     
  0.14279999999999998         -1.1486060336964432     
  0.14310000000000000         -1.5353234829459661     
  0.14339999999999997         -1.8335504458502203     
  0.14369999999999999         -2.0221691150573320     
  0.14400000000000002         -2.0880930516189560     
  0.14429999999999998         -2.0273978852129497     
  0.14460000000000001         -1.8457199499560908     
  0.14490000000000003         -1.5580495756670434     
  0.14520000000000000         -1.1879308358650547     
  0.14550000000000002        -0.76556409329928288     
  0.14579999999999999        -0.32532951639581770     
  0.14610000000000001          9.6927018244135202E-002
  0.14640000000000003         0.46716344943507138     
  0.14670000000000000         0.75632501554575116     
  0.14699999999999996         0.94255287486768813     
  0.14729999999999999          1.0131143426191058     
  0.14760000000000001         0.96636301927492119     
  0.14789999999999998         0.81121325657521004     
  0.14820000000000000         0.56578158895873842     