  -1.4999999999999999E-002     0.0000000000000000     
  -1.4700000000000000E-002     0.0000000000000000     
  -1.4400000000000000E-002     0.0000000000000000     
  -1.4100000000000000E-002     0.0000000000000000     
  -1.3800000000000000E-002     0.0000000000000000     
  -1.3500000000000000E-002     0.0000000000000000     
  -1.3200000000000000E-002     0.0000000000000000     
  -1.2899999999999998E-002     0.0000000000000000     
  -1.2600000000000000E-002     0.0000000000000000     
  -1.2299999999999998E-002     0.0000000000000000     
  -1.2000000000000000E-002     0.0000000000000000     
  -1.1699999999999999E-002     0.0000000000000000     
  -1.1399999999999999E-002     0.0000000000000000     
  -1.1099999999999999E-002     0.0000000000000000     
  -1.0799999999999999E-002     0.0000000000000000     
  -1.0499999999999999E-002     0.0000000000000000     
  -1.0199999999999999E-002     0.0000000000000000     
  -9.8999999999999991E-003     0.0000000000000000     
  -9.5999999999999992E-003     0.0000000000000000     
  -9.2999999999999992E-003     0.0000000000000000     
  -8.9999999999999993E-003     0.0000000000000000     
  -8.6999999999999994E-003     0.0000000000000000     
  -8.3999999999999995E-003     0.0000000000000000     
  -8.0999999999999996E-003     0.0000000000000000     
  -7.7999999999999988E-003     0.0000000000000000     
  -7.4999999999999997E-003     0.0000000000000000     
  -7.1999999999999998E-003     0.0000000000000000     
  -6.8999999999999981E-003     0.0000000000000000     
  -6.5999999999999982E-003     0.0000000000000000     
  -6.3000000000000000E-003     0.0000000000000000     
  -6.0000000000000001E-003     0.0000000000000000     
  -5.6999999999999985E-003     0.0000000000000000     
  -5.3999999999999986E-003     0.0000000000000000     
  -5.1000000000000004E-003     0.0000000000000000     
  -4.7999999999999987E-003     0.0000000000000000     
  -4.5000000000000005E-003     0.0000000000000000     
  -4.1999999999999989E-003     0.0000000000000000     
  -3.8999999999999990E-003     0.0000000000000000     
  -3.5999999999999990E-003     0.0000000000000000     
  -3.2999999999999991E-003     0.0000000000000000     
  -2.9999999999999992E-003     0.0000000000000000     
  -2.6999999999999993E-003     0.0000000000000000     
  -2.3999999999999994E-003     0.0000000000000000     
  -2.0999999999999977E-003     0.0000000000000000     
  -1.7999999999999995E-003     0.0000000000000000     
  -1.4999999999999979E-003     0.0000000000000000     
  -1.1999999999999997E-003     0.0000000000000000     
  -8.9999999999999976E-004     0.0000000000000000     
  -5.9999999999999810E-004     2.9315353865478892E-041
  -2.9999999999999992E-004     2.6379234163758176E-040
   0.0000000000000000         -8.0751292618186937E-038
   3.0000000000000165E-004    -4.0774335080641316E-037
   5.9999999999999984E-004     9.1858056979988999E-036
   9.0000000000000149E-004    -1.8064413330514464E-035
   1.2000000000000031E-003    -6.8752330326781690E-035
   1.5000000000000013E-003     2.9814908332932193E-034
   1.8000000000000030E-003     1.5877356556895991E-034
   2.1000000000000012E-003    -3.2284570359968636E-033
   2.3999999999999994E-003     5.0912213165744179E-033
   2.7000000000000010E-003     9.5523581784816576E-033
   2.9999999999999992E-003    -2.4903445408213444E-032
   3.3000000000000008E-003    -8.4466700152130423E-033
   3.6000000000000025E-003    -6.6091608182684717E-031
   3.9000000000000007E-003     5.2154181971277197E-030
   4.2000000000000023E-003    -2.7646933286924534E-030
   4.5000000000000005E-003    -1.5546042056011967E-028
   4.7999999999999987E-003     9.9003998771089667E-028
   5.1000000000000004E-003    -1.9938204286173193E-027
   5.4000000000000020E-003    -9.5473731921706072E-027
   5.7000000000000037E-003     9.0845785121325572E-026
   5.9999999999999984E-003    -3.4378067449710123E-025
   6.3000000000000000E-003     5.3513319871436070E-025
   6.6000000000000017E-003     1.5639221188937593E-024
   6.9000000000000034E-003    -1.3749560312027630E-023
   7.2000000000000015E-003     5.0871719091808281E-023
   7.5000000000000032E-003    -1.1707253059896320E-022
   7.8000000000000014E-003     1.3703961199915181E-022
   8.0999999999999996E-003     1.6725761770912961E-022
   8.4000000000000012E-003    -1.2755708919661729E-021
   8.7000000000000029E-003     3.0242472530026802E-021
   9.0000000000000011E-003    -9.2081483405341784E-022
   9.2999999999999992E-003    -2.5240256594104341E-020
   9.6000000000000009E-003     1.4170643422749578E-019
   9.8999999999999991E-003    -5.3401225257243891E-019
   1.0200000000000001E-002     1.6618525124188168E-018
   1.0500000000000002E-002    -4.4930798825474236E-018
   1.0800000000000004E-002     1.0406787018869634E-017
   1.1099999999999999E-002    -1.8338428450466256E-017
   1.1400000000000000E-002     9.2746976739365998E-018
   1.1700000000000002E-002     1.1190500783427087E-016
   1.2000000000000004E-002    -6.6893554117082449E-016
   1.2300000000000002E-002     2.3461789422655213E-015
   1.2600000000000000E-002    -4.7399946970109176E-015
   1.2900000000000002E-002    -5.0571901805838332E-015
   1.3200000000000000E-002     1.0350919823999871E-013
   1.3500000000000002E-002    -5.8204560976228584E-013
   1.3800000000000003E-002     2.1616878576754637E-012
   1.4100000000000001E-002    -5.4176087462990405E-012
   1.4400000000000000E-002     6.1516450824092659E-012
   1.4700000000000001E-002     1.7276153226492601E-011
   1.4999999999999999E-002    -1.0739889072095403E-010
   1.5300000000000001E-002     2.3203278710248149E-010
   1.5600000000000003E-002     3.1266830268704172E-012
   1.5899999999999997E-002    -1.3174227545897194E-009
   1.6199999999999999E-002     2.6928361367921487E-009
   1.6500000000000001E-002     1.9483360106351942E-009
   1.6800000000000002E-002    -1.4897270837520039E-008
   1.7100000000000004E-002     6.4501218701774893E-009
   1.7400000000000006E-002     5.4889106642155751E-008
   1.7700000000000000E-002    -4.7035018609780332E-008
   1.8000000000000002E-002    -2.0546302666191165E-007
   1.8300000000000004E-002     7.6833420022421239E-008
   1.8600000000000005E-002     6.3148315277648515E-007
   1.8900000000000000E-002     1.7925556421015833E-007
   1.9200000000000002E-002    -1.4912439547790118E-006
   1.9500000000000003E-002    -1.4312826384345500E-006
   1.9799999999999998E-002     3.7905783945718416E-006
   2.0100000000000000E-002     1.2909129296914141E-005
   2.0400000000000001E-002     2.0870230262175370E-005
   2.0700000000000003E-002     2.6973271673736744E-005
   2.0999999999999998E-002     3.9250150825521064E-005
   2.1299999999999999E-002     6.7565155055250033E-005
   2.1600000000000001E-002     1.1443481794626840E-004
   2.1900000000000003E-002     1.7795170418371463E-004
   2.2200000000000004E-002     2.6481681479512115E-004
   2.2500000000000006E-002     3.9580929684270428E-004
   2.2800000000000001E-002     5.9655216271389854E-004
   2.3100000000000002E-002     8.8855151720554229E-004
   2.3400000000000004E-002     1.2955370922426632E-003
   2.3699999999999999E-002     1.8577219266615549E-003
   2.4000000000000000E-002     2.6345164639409737E-003
   2.4300000000000002E-002     3.6933385986440536E-003
   2.4599999999999997E-002     5.1028044291087701E-003
   2.4900000000000005E-002     6.9400615518802854E-003
   2.5200000000000000E-002     9.2988082037288415E-003
   2.5499999999999995E-002     1.2281482816158954E-002
   2.5800000000000003E-002     1.5980597472912091E-002
   2.6099999999999998E-002     2.0465464368545551E-002
   2.6400000000000007E-002     2.5780533740906823E-002
   2.6700000000000002E-002     3.1936759556805284E-002
   2.6999999999999996E-002     3.8886770343131566E-002
   2.7300000000000005E-002     4.6495353182473186E-002
   2.7600000000000000E-002     5.4521928832709121E-002
   2.7900000000000008E-002     6.2620124377897671E-002
   2.8200000000000003E-002     7.0331198153861380E-002
   2.8499999999999998E-002     7.7076864380276694E-002
   2.8800000000000006E-002     8.2160243873371161E-002
   2.9100000000000001E-002     8.4792598795567942E-002
   2.9400000000000003E-002     8.4154821515234929E-002
   2.9700000000000004E-002     7.9459167947069337E-002
   3.0000000000000006E-002     7.0005751928269327E-002
   3.0300000000000001E-002     5.5246990947099915E-002
   3.0600000000000002E-002     3.4880581780008343E-002
   3.0900000000000004E-002     8.9484403822438375E-003
   3.1199999999999999E-002    -2.2101309282754646E-002
   3.1500000000000007E-002    -5.7397229819366707E-002
   3.1800000000000002E-002    -9.5648010653088866E-002
   3.2099999999999997E-002   -0.13515951358872419     
   3.2400000000000005E-002   -0.17390187159908244     
   3.2700000000000000E-002   -0.20963071077143908     
   3.3000000000000002E-002   -0.24005436899268434     
   3.3300000000000003E-002   -0.26302696615543375     
   3.3599999999999998E-002   -0.27670822709162846     
   3.3900000000000000E-002   -0.27973844922747731     
   3.4200000000000001E-002   -0.27140318851981438     
   3.4500000000000003E-002   -0.25176124729344529     
   3.4799999999999998E-002   -0.22166937706598719     
   3.5099999999999999E-002   -0.18275882665574050     
   3.5400000000000001E-002   -0.13736046738259400     
   3.5699999999999996E-002    -8.8372610297444365E-002
   3.6000000000000004E-002    -3.9057184231599013E-002
   3.6299999999999999E-002     7.2017804045359686E-003
   3.6600000000000008E-002     4.7159422326962200E-002
   3.6900000000000002E-002     7.7889703131780244E-002
   3.7199999999999997E-002     9.7029453982218988E-002
   3.7500000000000006E-002    0.10296899212113614     
   3.7800000000000000E-002     9.4909321734065771E-002
   3.8100000000000009E-002     7.2953085068237500E-002
   3.8400000000000004E-002     3.8078750010728871E-002
   3.8699999999999998E-002    -7.9211049484205383E-003
   3.9000000000000007E-002    -6.2531231759616779E-002
   3.9300000000000002E-002   -0.12264921392122943     
   3.9600000000000003E-002   -0.18470620423347023     
   3.9900000000000005E-002   -0.24487028077525763     
   4.0200000000000000E-002   -0.29929782813598693     
   4.0500000000000001E-002   -0.34424512790930184     
   4.0800000000000003E-002   -0.37618761786302957     
   4.1100000000000005E-002   -0.39209471456553158     
   4.1399999999999999E-002   -0.38956400110019923     
   4.1700000000000008E-002   -0.36693941771807431     
   4.2000000000000003E-002   -0.32349430886137681     
   4.2299999999999997E-002   -0.25943086602459714     
   4.2600000000000006E-002   -0.17591472375104764     
   4.2900000000000001E-002    -7.5097876311823755E-002
   4.3200000000000002E-002     3.9997184318802975E-002
   4.3500000000000004E-002    0.16563792130608748     
   4.3799999999999999E-002    0.29755464607738497     
   4.4100000000000000E-002    0.43119948689080889     
   4.4400000000000002E-002    0.56198627511916366     
   4.4700000000000004E-002    0.68554484493115786     
   4.4999999999999998E-002    0.79794402606103887     
   4.5300000000000000E-002    0.89585084947668536     
   4.5600000000000002E-002    0.97664170316469878     
   4.5899999999999996E-002     1.0384447947212574     
   4.6200000000000005E-002     1.0800855642248581     
   4.6500000000000000E-002     1.1009672178151888     
   4.6799999999999994E-002     1.1010055818975419     
   4.7100000000000003E-002     1.0804520975815106     
   4.7399999999999998E-002     1.0396928279888218     
   4.7700000000000006E-002    0.97919682603387681     
   4.8000000000000001E-002    0.89947838886448150     
   4.8300000000000010E-002    0.80108105289175635     
   4.8600000000000004E-002    0.68468747184489442     
   4.8899999999999999E-002    0.55127184214714409     
   4.9200000000000008E-002    0.40226324849130318     
   4.9500000000000002E-002    0.23976670635369179     
   4.9800000000000011E-002     6.6645641487698609E-002
   5.0100000000000006E-002   -0.11324257549869800     
   5.0400000000000000E-002   -0.29502564013722476     
   5.0700000000000009E-002   -0.47308278456469521     
   5.1000000000000004E-002   -0.64109395621158538     
   5.1299999999999998E-002   -0.79229849658512042     
   5.1600000000000007E-002   -0.91999224997113316     
   5.1900000000000002E-002    -1.0179974842349797     
   5.2200000000000010E-002    -1.0811476764946153     
   5.2500000000000005E-002    -1.1057212766565054     
   5.2800000000000000E-002    -1.0897480046092884     
   5.3099999999999994E-002    -1.0333373207395002     
   5.3400000000000003E-002   -0.93881813990621010     
   5.3699999999999998E-002   -0.81065302000482331     
   5.4000000000000006E-002   -0.65528575305831105     
   5.4300000000000001E-002   -0.48072011588669361     
   5.4599999999999996E-002   -0.29602497082685136     
   5.4900000000000004E-002   -0.11088626013787822     
   5.5199999999999999E-002     6.4946146164481411E-002
   5.5499999999999994E-002    0.22228386095932429     
   5.5800000000000002E-002    0.35303027933540276     
   5.6099999999999997E-002    0.45056504175933915     
   5.6400000000000006E-002    0.50999600432155012     
   5.6700000000000000E-002    0.52843921420969520     
   5.6999999999999995E-002    0.50519516116861696     
   5.7300000000000004E-002    0.44166230442486326     
   5.7599999999999998E-002    0.34127699818056279     
   5.7900000000000007E-002    0.20937753479131596     
   5.8200000000000002E-002     5.2809421965345854E-002
   5.8499999999999996E-002   -0.12035896609015778     
   5.8800000000000005E-002   -0.30109669367080028     
   5.9100000000000000E-002   -0.48004802133835223     
   5.9400000000000008E-002   -0.64803250076247110     
   5.9700000000000003E-002   -0.79658817112968183     
   6.0000000000000012E-002   -0.91843005271081046     
   6.0300000000000006E-002    -1.0078747747917092     
   6.0600000000000001E-002    -1.0614205762447546     
   6.0900000000000010E-002    -1.0778893118103217     
   6.1200000000000004E-002    -1.0584141406928462     
   6.1500000000000013E-002    -1.0065065108289419     
   6.1800000000000008E-002   -0.92763995089346696     
   6.2100000000000002E-002   -0.82866626598474868     
   6.2399999999999997E-002   -0.71742132211982534     
   6.2700000000000006E-002   -0.60188467884377894     
   6.3000000000000000E-002   -0.48927425624522136     
   6.3300000000000009E-002   -0.38552213221548243     
   6.3600000000000004E-002   -0.29473103882633622     
   6.3899999999999998E-002   -0.21879744531108378     
   6.4199999999999993E-002   -0.15713395680723680     
   6.4500000000000002E-002   -0.10660435081260303     
   6.4800000000000010E-002    -6.2051889882148353E-002
   6.5100000000000005E-002    -1.6938066018612672E-002
   6.5400000000000000E-002     3.6186756238098278E-002
   6.5700000000000008E-002    0.10492146116518251     
   6.5999999999999989E-002    0.19611408275807984     
   6.6299999999999998E-002    0.31504118559114713     
   6.6600000000000006E-002    0.46449726377359912     
   6.6900000000000001E-002    0.64438356771799665     
   6.7199999999999996E-002    0.85145766490420605     
   6.7500000000000004E-002     1.0788727397148832     
   6.7800000000000013E-002     1.3164665781119371     
   6.8099999999999994E-002     1.5511445484818895     
   6.8400000000000002E-002     1.7673911897557222     
   6.8700000000000011E-002     1.9485115901294945     
   6.8999999999999992E-002     2.0775502287305732     
   6.9300000000000000E-002     2.1384905565510408     
   6.9600000000000009E-002     2.1178312957911429     
   6.9900000000000004E-002     2.0056717834849298     
   7.0199999999999999E-002     1.7968973009400546     
   7.0500000000000007E-002     1.4922232216902438     
   7.0800000000000016E-002     1.0984661835408382     
   7.1099999999999997E-002    0.62874284827631799     
   7.1400000000000005E-002    0.10195362067344318     
   7.1700000000000000E-002   -0.45831835381560204     
   7.1999999999999995E-002    -1.0247022534109593     
   7.2300000000000003E-002    -1.5679833965935766     
   7.2600000000000012E-002    -2.0591147471416407     
   7.2900000000000006E-002    -2.4709143195607814     
   7.3200000000000001E-002    -2.7799929436395332     
   7.3499999999999996E-002    -2.9681658258030863     
   7.3800000000000004E-002    -3.0235820866194500     
   7.4099999999999999E-002    -2.9416048451707764     
   7.4400000000000008E-002    -2.7248094377536938     
   7.4700000000000003E-002    -2.3827059110933706     
   7.5000000000000011E-002    -1.9311330497904793     
   7.5299999999999992E-002    -1.3910452059877585     
   7.5600000000000001E-002   -0.78732335958699551     
   7.5900000000000009E-002   -0.14736608682702834     
   7.6200000000000004E-002    0.50058557598916598     
   7.6499999999999999E-002     1.1285562376953169     
   7.6800000000000007E-002     1.7101783832834367     
   7.7099999999999988E-002     2.2220739669999752     
   7.7399999999999997E-002     2.6446760816732340     
   7.7700000000000005E-002     2.9627926395522968     
   7.8000000000000014E-002     3.1661130520153806     
   7.8299999999999995E-002     3.2496382186400976     
   7.8600000000000003E-002     3.2136351825182086     
   7.8900000000000012E-002     3.0631289782078741     
   7.9199999999999993E-002     2.8074821857217405     
   7.9500000000000001E-002     2.4598335333719481     
   7.9800000000000010E-002     2.0360950372818971     
   8.0100000000000018E-002     1.5539543961594362     
   8.0399999999999999E-002     1.0320650595205141     
   8.0700000000000008E-002    0.48903949910490896     
   8.1000000000000003E-002    -5.7315294723227980E-002
   8.1299999999999997E-002   -0.59024932524213491     
   8.1600000000000006E-002    -1.0946570880900548     
   8.1900000000000014E-002    -1.5573670383412319     
   8.2199999999999995E-002    -1.9667837237041375     
   8.2500000000000004E-002    -2.3126926839106994     
   8.2799999999999999E-002    -2.5864808020894698     
   8.3100000000000007E-002    -2.7812407722884092     
   8.3400000000000002E-002    -2.8916466180128704     
   8.3700000000000011E-002    -2.9140225756735365     
   8.4000000000000005E-002    -2.8469775202214471     
   8.4300000000000000E-002    -2.6919673754598925     
   8.4599999999999995E-002    -2.4535270852854842     
   8.4900000000000003E-002    -2.1394869038243609     
   8.5199999999999998E-002    -1.7608306651605530     
   8.5500000000000007E-002    -1.3313936964994861     
   8.5800000000000001E-002   -0.86773986444021989     
   8.6100000000000010E-002   -0.38794639874394649     
   8.6399999999999991E-002     9.0044971775921148E-002
   8.6699999999999999E-002    0.54945493381125743     
   8.7000000000000008E-002    0.97535967283906233     
   8.7300000000000003E-002     1.3556928439310443     
   8.7599999999999997E-002     1.6823217217573116     
   8.7900000000000006E-002     1.9510017411941782     
   8.8200000000000014E-002     2.1606202722831531     
   8.8499999999999995E-002     2.3126272350047934     
   8.8800000000000004E-002     2.4100582769323262     
   8.9100000000000013E-002     2.4563706555452054     
   8.9399999999999993E-002     2.4543928102301682     
   8.9700000000000002E-002     2.4053179066881891     
   9.0000000000000011E-002     2.3083546958765644     
   9.0299999999999991E-002     2.1609773666655516     
   9.0600000000000000E-002     1.9594208287417341     
   9.0900000000000009E-002     1.6995620285669082     
   9.1200000000000017E-002     1.3781933307028948     
   9.1499999999999998E-002    0.99455738188443110     
   9.1800000000000007E-002    0.55167043484127953     
   9.2100000000000001E-002     5.7048278565958802E-002
   9.2399999999999996E-002   -0.47668974276342013     
   9.2700000000000005E-002    -1.0315156489132791     
   9.3000000000000013E-002    -1.5847664634212668     
   9.3300000000000008E-002    -2.1104940841864033     
   9.3600000000000003E-002    -2.5807325830891132     
   9.3899999999999997E-002    -2.9674785524515963     
   9.4200000000000006E-002    -3.2450729676706871     
   9.4500000000000001E-002    -3.3920209298949997     
   9.4800000000000009E-002    -3.3929121368138913     
   9.5100000000000004E-002    -3.2400316636683524     
   9.5399999999999999E-002    -2.9341640917524674     
   9.5699999999999993E-002    -2.4854879935290870     
   9.6000000000000002E-002    -1.9133200957978533     
   9.6300000000000011E-002    -1.2448605238283172     
   9.6600000000000005E-002   -0.51391246822577852     
   9.6900000000000000E-002    0.24095280116868262     
   9.7200000000000009E-002    0.97892194195136839     
   9.7499999999999989E-002     1.6597964163974948     
   9.7799999999999998E-002     2.2469534646697111     
   9.8100000000000007E-002     2.7096217416799568     
   9.8400000000000015E-002     3.0250349844071276     
   9.8699999999999996E-002     3.1803051490201528     
   9.9000000000000005E-002     3.1730673738553801     
   9.9300000000000013E-002     3.0115205693103824     
   9.9599999999999994E-002     2.7133115346522758     
   9.9900000000000003E-002     2.3033498639048058     
  0.10020000000000001          1.8118953848411041     
  0.10049999999999999          1.2719445587242622     
  0.10080000000000000         0.71570252901587417     
  0.10110000000000001         0.17184545035153570     
  0.10140000000000000        -0.33613252335960653     
  0.10170000000000000        -0.79123083578539011     
  0.10200000000000001         -1.1837371825849696     
  0.10230000000000002         -1.5111498664190965     
  0.10260000000000000         -1.7767933911417899     
  0.10290000000000001         -1.9875614339224770     
  0.10320000000000000         -2.1521292155000871     
  0.10350000000000001         -2.2793585825378013     
  0.10380000000000000         -2.3762328178889316     
  0.10410000000000001         -2.4463832209174163     
  0.10440000000000001         -2.4898305483326961     
  0.10470000000000000         -2.5033882277598889     
  0.10500000000000000         -2.4816103728377255     
  0.10530000000000000         -2.4181133229650866     
  0.10560000000000000         -2.3074075919336194     
  0.10590000000000001         -2.1467116422407964     
  0.10620000000000000         -1.9369526778081387     
  0.10650000000000001         -1.6835446444040101     
  0.10679999999999999         -1.3968470608255563     
  0.10710000000000000         -1.0908722798229613     
  0.10740000000000001        -0.78138360259806583     
  0.10770000000000000        -0.48426404135166834     
  0.10800000000000000        -0.21322449085390488     
  0.10830000000000001          2.2562159647724817E-002
  0.10859999999999999         0.22038460612219590     
  0.10890000000000000         0.38494760818549845     
  0.10920000000000001         0.52819403343026938     
  0.10950000000000001         0.66870810455588525     
  0.10979999999999999         0.82968352475288698     
  0.11009999999999999          1.0359290867835298     
  0.11040000000000001          1.3111457437121978     
  0.11070000000000001          1.6744712273987163     
  0.11100000000000000          2.1371073743801485     
  0.11130000000000000          2.7001427022752291     
  0.11160000000000002          3.3531134182196149     
  0.11190000000000001          4.0736202455937658     
  0.11220000000000001          4.8279185254197419     
  0.11250000000000000          5.5731223355459312     
  0.11280000000000000          6.2604552370870579     
  0.11309999999999999          6.8384411126186082     
  0.11340000000000001          7.2570581183641112     
  0.11369999999999998          7.4719309583036377     
  0.11400000000000000          7.4477403774160482     
  0.11430000000000000          7.1608482067279402     
  0.11460000000000002          6.6015371417986843     
  0.11489999999999999          5.7750477790121604     
  0.11520000000000001          4.7012041495489090     
  0.11550000000000001          3.4130247548847241     
  0.11580000000000000          1.9545188619648561     
  0.11609999999999999         0.37763010832699107     
  0.11640000000000002         -1.2609019759306686     
  0.11670000000000001         -2.9033120564370307     
  0.11700000000000001         -4.4949995529152682     
  0.11730000000000000         -5.9870099098598031     
  0.11760000000000000         -7.3380641298085667     
  0.11789999999999999         -8.5166549249940893     
  0.11820000000000001         -9.5016897724634184     
  0.11850000000000001         -10.281600131218861     
  0.11880000000000000         -10.852341200616559     
  0.11910000000000000         -11.215896882231492     
  0.11940000000000002         -11.377950777552787     
  0.11970000000000001         -11.344555522084184     
  0.12000000000000001         -11.119393489931884     
  0.12030000000000000         -10.702614904188113     
  0.12060000000000000         -10.090593607878255     
  0.12089999999999999         -9.2752578968214934     
  0.12119999999999999         -8.2460206176451951     
  0.12150000000000001         -6.9930068777499237     
  0.12180000000000001         -5.5095470429385331     
  0.12210000000000000         -3.7965779907732351     
  0.12239999999999999         -1.8669026111016569     
  0.12270000000000002         0.25297680234054631     
  0.12300000000000001          2.5204206361457424     
  0.12330000000000001          4.8755734824034738     
  0.12360000000000000          7.2427330929907452     
  0.12390000000000000          9.5338627453585243     
  0.12419999999999999          11.653525531557987     
  0.12450000000000001          13.503950763080116     
  0.12480000000000001          14.991793241003911     
  0.12509999999999999          16.035122067768704     
  0.12540000000000001          16.569249873840885     
  0.12570000000000003          16.552080965810418     
  0.12600000000000000          15.967465897789729     
  0.12630000000000002          14.826249688449792     
  0.12659999999999999          13.165780755757934     
  0.12690000000000001          11.048526920849728     
  0.12719999999999998          8.5581531357632628     
  0.12750000000000000          5.7941471361547148     
  0.12780000000000002          2.8668690045828464     
  0.12809999999999999        -0.10774719593774684     
  0.12840000000000001         -3.0135789447106704     
  0.12869999999999998         -5.7391047921544311     
  0.12900000000000000         -8.1815395340464914     
  0.12930000000000003         -10.250518532309123     
  0.12959999999999999         -11.870990449165486     
  0.12990000000000002         -12.985649145830548     
  0.13019999999999998         -13.556827868498754     
  0.13050000000000000         -13.568720105352266     
  0.13080000000000003         -13.028630259307054     
  0.13109999999999999         -11.967029500721837     
  0.13140000000000002         -10.437799214108452     
  0.13169999999999998         -8.5171433097444691     
  0.13200000000000001         -6.3011800495768808     
  0.13229999999999997         -3.9016776830693054     
  0.13260000000000000         -1.4415214474131504     
  0.13290000000000002         0.95138320871856186     
  0.13319999999999999          3.1520206382335942     
  0.13350000000000001          5.0444464259251625     
  0.13380000000000003          6.5290464933838628     
  0.13410000000000000          7.5299889804052160     
  0.13440000000000002          8.0002053554613042     
  0.13469999999999999          7.9241564243431641     
  0.13500000000000001          7.3189232259159835     
  0.13529999999999998          6.2349360297508500     
  0.13560000000000000          4.7530828986919307     
  0.13590000000000002          2.9776646588984157     
  0.13619999999999999          1.0309970477662240     
  0.13650000000000001        -0.95341811837549573     
  0.13680000000000003         -2.8413077598863548     
  0.13710000000000000         -4.5061998099106768     
  0.13740000000000002         -5.8370986753160325     
  0.13769999999999999         -6.7466896257372273     
  0.13800000000000001         -7.1772961974391247     
  0.13829999999999998         -7.1046179793956217     
  0.13860000000000000         -6.5389892747622094     
  0.13890000000000002         -5.5251239632501781     
  0.13919999999999999         -4.1396919926661981     
  0.13950000000000001         -2.4841976176119216     
  0.13979999999999998        -0.67789198870411349     
  0.14010000000000000          1.1497988259674559     
  0.14040000000000002          2.8696170594067918     
  0.14069999999999999          4.3623977869245056     
  0.14100000000000001          5.5273527060994549     
  0.14130000000000004          6.2893347481252144     
  0.14160000000000000          6.6041336502214154     
  0.14189999999999997          6.4616967901514846     
  0.14219999999999999          5.8865058094760432     
  0.14250000000000002          4.9342554735750497     
  0.14279999999999998          3.6872975359816937     
  0.14310000000000000          2.2484895441440358     
  0.14339999999999997         0.73175035291498225     
  0.14369999999999999        -0.74696612133047502     
  0.14400000000000002         -2.0782480729549571     
  0.14429999999999998         -3.1678106396452432     
  0.14460000000000001         -3.9438274705106533     
  0.14490000000000003         -4.3621228915046775     
  0.14520000000000000         -4.4081979552473456     
  0.14550000000000002         -4.0970924952422667     
  0.14579999999999999         -3.4720282726837968     
  0.14610000000000001         -2.5997146501619088     
  0.14640000000000003         -1.5625028616042738     
  0.14670000000000000        -0.45210468708781371     
  0.14699999999999996         0.63822190953765934     
  0.14729999999999999          1.6228073146232525     
  0.14760000000000001          2.4299403800104988     
  0.14789999999999998          3.0073064486751608     
  0.14820000000000000          3.3256691279362136     