  -1.4999999999999999E-002     0.0000000000000000     
  -1.4700000000000000E-002     0.0000000000000000     
  -1.4400000000000000E-002     0.0000000000000000     
  -1.4100000000000000E-002     0.0000000000000000     
  -1.3800000000000000E-002     0.0000000000000000     
  -1.3500000000000000E-002     0.0000000000000000     
  -1.3200000000000000E-002     0.0000000000000000     
  -1.2899999999999998E-002     0.0000000000000000     
  -1.2600000000000000E-002     0.0000000000000000     
  -1.2299999999999998E-002     0.0000000000000000     
  -1.2000000000000000E-002     0.0000000000000000     
  -1.1699999999999999E-002     0.0000000000000000     
  -1.1399999999999999E-002     0.0000000000000000     
  -1.1099999999999999E-002     0.0000000000000000     
  -1.0799999999999999E-002     0.0000000000000000     
  -1.0499999999999999E-002     0.0000000000000000     
  -1.0199999999999999E-002     0.0000000000000000     
  -9.8999999999999991E-003     0.0000000000000000     
  -9.5999999999999992E-003     0.0000000000000000     
  -9.2999999999999992E-003     0.0000000000000000     
  -8.9999999999999993E-003     0.0000000000000000     
  -8.6999999999999994E-003     1.1023852450223163E-041
  -8.3999999999999995E-003     4.7639237795412824E-039
  -8.0999999999999996E-003    -2.3566019091685556E-037
  -7.7999999999999988E-003     2.8856297317950853E-036
  -7.4999999999999997E-003    -6.7108930112522011E-036
  -7.1999999999999998E-003    -2.8404981101782926E-035
  -6.8999999999999981E-003     1.8666474900139209E-034
  -6.5999999999999982E-003    -6.2379045486299978E-034
  -6.3000000000000000E-003     3.2469190826384008E-033
  -6.0000000000000001E-003    -3.1484604128216161E-032
  -5.6999999999999985E-003     2.5628189440212501E-031
  -5.3999999999999986E-003    -1.5347964865906830E-030
  -5.1000000000000004E-003     6.2723286522025482E-030
  -4.7999999999999987E-003    -1.2535838768914917E-029
  -4.5000000000000005E-003    -3.6274149903105823E-029
  -4.1999999999999989E-003     4.3719818898530964E-028
  -3.8999999999999990E-003    -2.0756579882160040E-027
  -3.5999999999999990E-003     6.5134170150175570E-027
  -3.2999999999999991E-003    -1.5080129863959434E-026
  -2.9999999999999992E-003     2.8822558350975915E-026
  -2.6999999999999993E-003    -5.9675105146028615E-026
  -2.3999999999999994E-003     1.7231600965577533E-025
  -2.0999999999999977E-003    -5.6428089860231221E-025
  -1.7999999999999995E-003     1.6302944382826110E-024
  -1.4999999999999979E-003    -3.8561412609526655E-024
  -1.1999999999999997E-003     7.3633796277619481E-024
  -8.9999999999999976E-004    -1.1119985548809338E-023
  -5.9999999999999810E-004     1.2059021283431612E-023
  -2.9999999999999992E-004    -3.9517133097081182E-024
   0.0000000000000000         -2.5502150769173435E-023
   3.0000000000000165E-004     1.0227792429340328E-022
   5.9999999999999984E-004    -2.8007752554459004E-022
   9.0000000000000149E-004     6.5462916208745198E-022
   1.2000000000000031E-003    -1.3501396861219342E-021
   1.5000000000000013E-003     2.4075360426122644E-021
   1.8000000000000030E-003    -3.4519737922644730E-021
   2.1000000000000012E-003     3.0018982613207032E-021
   2.3999999999999994E-003     2.6258184234990457E-021
   2.7000000000000010E-003    -2.0662224567665309E-020
   2.9999999999999992E-003     6.3396003109034404E-020
   3.3000000000000008E-003    -1.5181768741966866E-019
   3.6000000000000025E-003     3.3393797191080412E-019
   3.9000000000000007E-003    -7.6997634719675852E-019
   4.2000000000000023E-003     2.0558980739873989E-018
   4.5000000000000005E-003    -6.2331826320086943E-018
   4.7999999999999987E-003     1.9338388630706865E-017
   5.1000000000000004E-003    -5.6239980415425252E-017
   5.4000000000000020E-003     1.4552527405608933E-016
   5.7000000000000037E-003    -3.2044923108290728E-016
   5.9999999999999984E-003     5.4453344677056366E-016
   6.3000000000000000E-003    -3.6881472179705700E-016
   6.6000000000000017E-003    -2.6581138830380945E-015
   6.9000000000000034E-003     2.0484049699891552E-014
   7.2000000000000015E-003    -1.0612232794867723E-013
   7.5000000000000032E-003     4.5937765128876099E-013
   7.8000000000000014E-003    -1.6597371481112093E-012
   8.0999999999999996E-003     4.6958469874366580E-012
   8.4000000000000012E-003    -8.5524425074380033E-012
   8.7000000000000029E-003    -1.0979882148745759E-012
   9.0000000000000011E-003     7.5162071712715116E-011
   9.2999999999999992E-003    -2.8457565376571122E-010
   9.6000000000000009E-003     4.6557584965678734E-010
   9.8999999999999991E-003     3.8409526539896880E-010
   1.0200000000000001E-002    -3.6823168953865515E-009
   1.0500000000000002E-002     6.1059628941626079E-009
   1.0800000000000004E-002     7.0828511100744826E-009
   1.1099999999999999E-002    -3.8428393353663527E-008
   1.1400000000000000E-002     1.2743296203927701E-008
   1.1700000000000002E-002     1.4236087269629200E-007
   1.2000000000000004E-002    -1.2115008827263386E-007
   1.2300000000000002E-002    -5.0787370097866349E-007
   1.2600000000000000E-002     2.6443738449928531E-007
   1.2900000000000002E-002     1.5744117234476518E-006
   1.3200000000000000E-002     1.3373634260411038E-007
   1.3500000000000002E-002    -3.9991252706013434E-006
   1.3800000000000003E-002    -2.8204333811437669E-006
   1.4100000000000001E-002     1.1572042860002735E-005
   1.4400000000000000E-002     3.4244764448993438E-005
   1.4700000000000001E-002     5.1891062459988511E-005
   1.4999999999999999E-002     6.4119620227743500E-005
   1.5300000000000001E-002     9.1958727927266224E-005
   1.5600000000000003E-002     1.5822994473126573E-004
   1.5899999999999997E-002     2.6579166468779171E-004
   1.6199999999999999E-002     4.0760049655959698E-004
   1.6500000000000001E-002     5.9969506050970751E-004
   1.6800000000000002E-002     8.9135451692986720E-004
   1.7100000000000004E-002     1.3376791912356456E-003
   1.7400000000000006E-002     1.9781532581511795E-003
   1.7700000000000000E-002     2.8570391068867187E-003
   1.8000000000000002E-002     4.0578407293158265E-003
   1.8300000000000004E-002     5.7021924106739150E-003
   1.8600000000000005E-002     7.9166577702905559E-003
   1.8900000000000000E-002     1.0818844313076836E-002
   1.9200000000000002E-002     1.4538907890932193E-002
   1.9500000000000003E-002     1.9231765242133346E-002
   1.9799999999999998E-002     2.5049028349897393E-002
   2.0100000000000000E-002     3.2095931146193565E-002
   2.0400000000000001E-002     4.0408632072915854E-002
   2.0700000000000003E-002     4.9947590851646129E-002
   2.0999999999999998E-002     6.0572752617348277E-002
   2.1299999999999999E-002     7.1988521045164414E-002
   2.1600000000000001E-002     8.3696031180099800E-002
   2.1900000000000003E-002     9.4975076022617691E-002
   2.2200000000000004E-002    0.10488892610998697     
   2.2500000000000006E-002    0.11228889028983145     
   2.2800000000000001E-002    0.11581937840780837     
   2.3100000000000002E-002    0.11396278301735130     
   2.3400000000000004E-002    0.10514462759767422     
   2.3699999999999999E-002     8.7873171630754990E-002
   2.4000000000000000E-002     6.0890984638159340E-002
   2.4300000000000002E-002     2.3316854059031059E-002
   2.4599999999999997E-002    -2.5192616605879632E-002
   2.4900000000000005E-002    -8.4260317939071655E-002
   2.5200000000000000E-002   -0.15263704688721991     
   2.5499999999999995E-002   -0.22813238937671970     
   2.5800000000000003E-002   -0.30763925251654145     
   2.6099999999999998E-002   -0.38721381816689315     
   2.6400000000000007E-002   -0.46224551380573103     
   2.6700000000000002E-002   -0.52771162677115913     
   2.6999999999999996E-002   -0.57852498867266766     
   2.7300000000000005E-002   -0.60996775230382871     
   2.7600000000000000E-002   -0.61813865103137744     
   2.7900000000000008E-002   -0.60028051825863549     
   2.8200000000000003E-002   -0.55513943541340072     
   2.8499999999999998E-002   -0.48323224918141883     
   2.8800000000000006E-002   -0.38694651080600284     
   2.9100000000000001E-002   -0.27050042230457982     
   2.9400000000000003E-002   -0.13958832463958837     
   2.9700000000000004E-002    -1.0882507574288408E-003
   3.0000000000000006E-002    0.13737708842710183     
   3.0300000000000001E-002    0.26795557289513977     
   3.0600000000000002E-002    0.38319828266215816     
   3.0900000000000004E-002    0.47669124121269379     
   3.1199999999999999E-002    0.54348943385891690     
   3.1500000000000007E-002    0.58038507517108917     
   3.1800000000000002E-002    0.58610677954226187     
   3.2099999999999997E-002    0.56139230081117808     
   3.2400000000000005E-002    0.50897254702341699     
   3.2700000000000000E-002    0.43334767050999140     
   3.3000000000000002E-002    0.34035788968718550     
   3.3300000000000003E-002    0.23679016710140188     
   3.3599999999999998E-002    0.12999952834054765     
   3.3900000000000000E-002     2.7605174651090220E-002
   3.4200000000000001E-002    -6.3026127927729977E-002
   3.4500000000000003E-002   -0.13529305230697203     
   3.4799999999999998E-002   -0.18356894413114616     
   3.5099999999999999E-002   -0.20346767215843148     
   3.5400000000000001E-002   -0.19221246377387174     
   3.5699999999999996E-002   -0.14883287068131074     
   3.6000000000000004E-002    -7.4307476003171030E-002
   3.6299999999999999E-002     2.8203697267138172E-002
   3.6600000000000008E-002    0.15354752256656160     
   3.6900000000000002E-002    0.29469355004891806     
   3.7199999999999997E-002    0.44283304080760766     
   3.7500000000000006E-002    0.58784531028653442     
   3.7800000000000000E-002    0.71897509141159421     
   3.8100000000000009E-002    0.82547980003460408     
   3.8400000000000004E-002    0.89736217625281700     
   3.8699999999999998E-002    0.92624403432521873     
   3.9000000000000007E-002    0.90630017947524899     
   3.9300000000000002E-002    0.83496480262271389     
   3.9600000000000003E-002    0.71325601915619985     
   3.9900000000000005E-002    0.54612628663213880     
   4.0200000000000000E-002    0.34255874911524209     
   4.0500000000000001E-002    0.11510370936871192     
   4.0800000000000003E-002   -0.12092760617294143     
   4.1100000000000005E-002   -0.34846042891162043     
   4.1399999999999999E-002   -0.54995108875541665     
   4.1700000000000008E-002   -0.70874349929169134     
   4.2000000000000003E-002   -0.81042381160209376     
   4.2299999999999997E-002   -0.84412572517117790     
   4.2600000000000006E-002   -0.80351351303510343     
   4.2900000000000001E-002   -0.68752322722098491     
   4.3200000000000002E-002   -0.50062782172354325     
   4.3500000000000004E-002   -0.25266993772782842     
   4.3799999999999999E-002     4.1773837165214156E-002
   4.4100000000000000E-002    0.36430986266345144     
   4.4400000000000002E-002    0.69382802351583683     
   4.4700000000000004E-002     1.0080402762958658     
   4.4999999999999998E-002     1.2849586619713549     
   4.5300000000000000E-002     1.5040960373695438     
   4.5600000000000002E-002     1.6475849645797109     
   4.5899999999999996E-002     1.7012404165690782     
   4.6200000000000005E-002     1.6554896859678130     
   4.6500000000000000E-002     1.5056120982680365     
   4.6799999999999994E-002     1.2517599405431532     
   4.7100000000000003E-002    0.89921476256175126     
   4.7399999999999998E-002    0.45810205897890477     
   4.7700000000000006E-002    -5.6911063527245898E-002
   4.8000000000000001E-002   -0.62709942068405500     
   4.8300000000000010E-002    -1.2304236010729468     
   4.8600000000000004E-002    -1.8420239908968536     
   4.8899999999999999E-002    -2.4350477791057288     
   4.9200000000000008E-002    -2.9815727431056764     
   4.9500000000000002E-002    -3.4539512928835241     
   4.9800000000000011E-002    -3.8260779442491382     
   5.0100000000000006E-002    -4.0745160229106689     
   5.0400000000000000E-002    -4.1800809883593324     
   5.0700000000000009E-002    -4.1290011561562086     
   5.1000000000000004E-002    -3.9139844143655784     
   5.1299999999999998E-002    -3.5354139928194206     
   5.1600000000000007E-002    -3.0014453727579893     
   5.1900000000000002E-002    -2.3280396428413628     
   5.2200000000000010E-002    -1.5385417585103034     
   5.2500000000000005E-002   -0.66261170354843024     
   5.2800000000000000E-002    0.26487706032953273     
   5.3099999999999994E-002     1.2058191115451729     
   5.3400000000000003E-002     2.1206894648745269     
   5.3699999999999998E-002     2.9700252646090575     
   5.4000000000000006E-002     3.7166877419352078     
   5.4300000000000001E-002     4.3274486348317618     
   5.4599999999999996E-002     4.7742011290503434     
   5.4900000000000004E-002     5.0353563344974619     
   5.5199999999999999E-002     5.0965630276711673     
   5.5499999999999994E-002     4.9513994730946873     
   5.5800000000000002E-002     4.6016731085727045     
   5.6099999999999997E-002     4.0575122800481651     
   5.6400000000000006E-002     3.3375922327560317     
   5.6700000000000000E-002     2.4686406672683572     
   5.6999999999999995E-002     1.4846175365578935     
   5.7300000000000004E-002    0.42607526509315929     
   5.7599999999999998E-002   -0.66141005058518654     
   5.7900000000000007E-002    -1.7291216503368898     
   5.8200000000000002E-002    -2.7271308174163615     
   5.8499999999999996E-002    -3.6071446782795573     
   5.8800000000000005E-002    -4.3255174702220396     
   5.9100000000000000E-002    -4.8459837034254090     
   5.9400000000000008E-002    -5.1423104841995055     
   5.9700000000000003E-002    -5.2004579032073295     
   6.0000000000000012E-002    -5.0204235873640677     
   6.0300000000000006E-002    -4.6168995767138634     
   6.0600000000000001E-002    -4.0182395049337778     
   6.0900000000000010E-002    -3.2650757749783459     
   6.1200000000000004E-002    -2.4077532005681102     
   6.1500000000000013E-002    -1.5026106551035905     
   6.1800000000000008E-002   -0.60811450923536048     
   6.2100000000000002E-002    0.21980804178090374     
   6.2399999999999997E-002    0.93191802196974471     
   6.2700000000000006E-002     1.4890221811572242     
   6.3000000000000000E-002     1.8649678040090700     
   6.3300000000000009E-002     2.0479521036067951     
   6.3600000000000004E-002     2.0409767910123757     
   6.3899999999999998E-002     1.8610326999856839     
   6.4199999999999993E-002     1.5368970459903732     
   6.4500000000000002E-002     1.1063642604891153     
   6.4800000000000010E-002    0.61291143035336859     
   6.5100000000000005E-002    0.10205535393631587     
   6.5400000000000000E-002   -0.38192379101801444     
   6.5700000000000008E-002   -0.79875737890814014     
   6.5999999999999989E-002    -1.1143734285864966     
   6.6299999999999998E-002    -1.3021311148808035     
   6.6600000000000006E-002    -1.3433652537845495     
   6.6900000000000001E-002    -1.2273874470620458     
   6.7199999999999996E-002   -0.95062889388736149     
   6.7500000000000004E-002   -0.51582901657175873     
   6.7800000000000013E-002     6.8750740153637524E-002
   6.8099999999999994E-002    0.79031857821509544     
   6.8400000000000002E-002     1.6318879244657603     
   6.8700000000000011E-002     2.5721525682316484     
   6.8999999999999992E-002     3.5853755159618563     
   6.9300000000000000E-002     4.6411078180391661     
   6.9600000000000009E-002     5.7043175298309272     
   6.9900000000000004E-002     6.7352308647506414     
   7.0199999999999999E-002     7.6895932484546776     
   7.0500000000000007E-002     8.5205117168883380     
   7.0800000000000016E-002     9.1802155045689755     
   7.1099999999999997E-002     9.6223996463978114     
   7.1400000000000005E-002     9.8052780272491908     
   7.1700000000000000E-002     9.6944243018689811     
   7.1999999999999995E-002     9.2662529806330234     
   7.2300000000000003E-002     8.5103798433554321     
   7.2600000000000012E-002     7.4308118207859017     
   7.2900000000000006E-002     6.0470813753627635     
   7.3200000000000001E-002     4.3939839108385366     
   7.3499999999999996E-002     2.5196582430428243     
   7.3800000000000004E-002    0.48273240123148808     
   7.4099999999999999E-002    -1.6505013483066473     
   7.4400000000000008E-002    -3.8100608862296284     
   7.4700000000000003E-002    -5.9268459009278054     
   7.5000000000000011E-002    -7.9362583413057033     
   7.5299999999999992E-002    -9.7808782284320923     
   7.5600000000000001E-002    -11.412702057060280     
   7.5900000000000009E-002    -12.794965233275098     
   7.6200000000000004E-002    -13.901773342393684     
   7.6499999999999999E-002    -14.717055446187125     
   7.6800000000000007E-002    -15.232979411716276     
   7.7099999999999988E-002    -15.447199084054631     
   7.7399999999999997E-002    -15.360833707976496     
   7.7700000000000005E-002    -14.976679347063119     
   7.8000000000000014E-002    -14.296961504062793     
   7.8299999999999995E-002    -13.323038452135695     
   7.8600000000000003E-002    -12.056066631283473     
   7.8900000000000012E-002    -10.499043382057843     
   7.9199999999999993E-002    -8.6596060997858189     
   7.9500000000000001E-002    -6.5521419516422030     
   7.9800000000000010E-002    -4.2020315457706952     
   8.0100000000000018E-002    -1.6484421891476329     
   8.0399999999999999E-002     1.0544585707245822     
   8.0700000000000008E-002     3.8359482991403420     
   8.1000000000000003E-002     6.6102787262321430     
   8.1299999999999997E-002     9.2803231247215479     
   8.1600000000000006E-002     11.741738452557705     
   8.1900000000000014E-002     13.888601836996894     
   8.2199999999999995E-002     15.620434273501413     
   8.2500000000000004E-002     16.849705034477090     
   8.2799999999999999E-002     17.508368347385392     
   8.3100000000000007E-002     17.552694086153341     
   8.3400000000000002E-002     16.967773340070099     
   8.3700000000000011E-002     15.769653866497698     
   8.4000000000000005E-002     14.004981451181131     
   8.4300000000000000E-002     11.749574822457395     
   8.4599999999999995E-002     9.1039856003034725     
   8.4900000000000003E-002     6.1877259156748607     
   8.5199999999999998E-002     3.1337950434267885     
   8.5500000000000007E-002     8.1159000973186401E-002
   8.5800000000000001E-002    -2.8331393422206723     
   8.6100000000000010E-002    -5.4805195949365952     
   8.6399999999999991E-002    -7.7475936564999088     
   8.6699999999999999E-002    -9.5416100536479647     
   8.7000000000000008E-002    -10.795358899179671     
   8.7300000000000003E-002    -11.470661803948630     
   8.7599999999999997E-002    -11.559299712831793     
   8.7900000000000006E-002    -11.083645884387119     
   8.8200000000000014E-002    -10.095656661849334     
   8.8499999999999995E-002    -8.6729152277249923     
   8.8800000000000004E-002    -6.9149418162631795     
   8.9100000000000013E-002    -4.9372439212169823     
   8.9399999999999993E-002    -2.8633612924094756     
   8.9700000000000002E-002   -0.81875276395303143     
   9.0000000000000011E-002     1.0766399980781620     
   9.0299999999999991E-002     2.7167968566045815     
   9.0600000000000000E-002     4.0157783964568567     
   9.0900000000000009E-002     4.9122140030739683     
   9.1200000000000017E-002     5.3725473447581678     
   9.1499999999999998E-002     5.3934228182418309     
   9.1800000000000007E-002     5.0017637196914295     
   9.2100000000000001E-002     4.2508145058815785     
   9.2399999999999996E-002     3.2157869802831014     
   9.2700000000000005E-002     1.9898934757931186     
   9.3000000000000013E-002    0.67627439393592725     
   9.3300000000000008E-002   -0.62025420671394549     
   9.3600000000000003E-002    -1.7993269447880111     
   9.3899999999999997E-002    -2.7732392127854455     
   9.4200000000000006E-002    -3.4733479476800553     
   9.4500000000000001E-002    -3.8532968584125893     
   9.4800000000000009E-002    -3.8926721374814206     
   9.5100000000000004E-002    -3.5984675174001657     
   9.5399999999999999E-002    -3.0031738743029930     
   9.5699999999999993E-002    -2.1615429933613499     
   9.6000000000000002E-002    -1.1450231110399018     
   9.6300000000000011E-002    -3.6270868222768260E-002
   9.6600000000000005E-002     1.0777695123127871     
   9.6900000000000000E-002     2.1144452576417350     
   9.7200000000000009E-002     3.0004335774745248     
   9.7499999999999989E-002     3.6780003635610075     
   9.7799999999999998E-002     4.1107439426425998     
   9.8100000000000007E-002     4.2833765588930595     
   9.8400000000000015E-002     4.2021968703405381     
   9.8699999999999996E-002     3.8949345720695847     
   9.9000000000000005E-002     3.4061061318208612     
   9.9300000000000013E-002     2.7917782967471432     
   9.9599999999999994E-002     2.1136773658089911     
   9.9900000000000003E-002     1.4331376681344785     
  0.10020000000000001         0.80631759702727623     
  0.10049999999999999         0.27847594950944554     
  0.10080000000000000        -0.11955188933045652     
  0.10110000000000001        -0.37240896095879894     
  0.10140000000000000        -0.48124994450544178     
  0.10170000000000000        -0.46193305372515603     
  0.10200000000000001        -0.34137207617250770     
  0.10230000000000002        -0.15489532920324359     
  0.10260000000000000          5.7766374852416896E-002
  0.10290000000000001         0.25820998564892933     
  0.10320000000000000         0.41265651247049229     
  0.10350000000000001         0.49461402303330904     
  0.10380000000000000         0.48744825417452042     
  0.10410000000000001         0.38430425496689036     
  0.10440000000000001         0.18880925834887752     
  0.10470000000000000         -8.6126308365016224E-002
  0.10500000000000000        -0.42192138150553637     
  0.10530000000000000        -0.79541782712860909     
  0.10560000000000000         -1.1818368766952771     
  0.10590000000000001         -1.5580728607488294     
  0.10620000000000000         -1.9034789358384931     
  0.10650000000000001         -2.2023242845587996     
  0.10679999999999999         -2.4445770321072540     
  0.10710000000000000         -2.6250203324166956     
  0.10740000000000001         -2.7442838534662441     
  0.10770000000000000         -2.8072312716816774     
  0.10800000000000000         -2.8210283050916956     
  0.10830000000000001         -2.7956659122495986     
  0.10859999999999999         -2.7418217446851640     
  0.10890000000000000         -2.6690766068765748     
  0.10920000000000001         -2.5859947911035723     
  0.10950000000000001         -2.4991061795687846     
  0.10979999999999999         -2.4126526372023722     
  0.11009999999999999         -2.3281126594627342     
  0.11040000000000001         -2.2439000665350086     
  0.11070000000000001         -2.1567494673026699     
  0.11100000000000000         -2.0619366112726687     
  0.11130000000000000         -1.9529925756063267     
  0.11160000000000002         -1.8238837057386239     
  0.11190000000000001         -1.6695646860341948     
  0.11220000000000001         -1.4857350147209900     
  0.11250000000000000         -1.2708841156128072     
  0.11280000000000000         -1.0260710598580369     
  0.11309999999999999        -0.75409051078981115     
  0.11340000000000001        -0.46015198523993783     
  0.11369999999999998        -0.15070018267749777     
  0.11400000000000000         0.16818895505529258     
  0.11430000000000000         0.49060129220779780     
  0.11460000000000002         0.81228591749286083     
  0.11489999999999999          1.1311837152326003     
  0.11520000000000001          1.4467629624621037     
  0.11550000000000001          1.7604166652167899     
  0.11580000000000000          2.0735568685477253     
  0.11609999999999999          2.3863418306622162     
  0.11640000000000002          2.6981316088300313     
  0.11670000000000001          3.0046785979280397     
  0.11700000000000001          3.2980242883567614     
  0.11730000000000000          3.5693388973214870     
  0.11760000000000000          3.8078293793646063     
  0.11789999999999999          4.0029947266032542     
  0.11820000000000001          4.1481852686131866     
  0.11850000000000001          4.2410938017692406     
  0.11880000000000000          4.2866159815917655     
  0.11910000000000000          4.2961432765635124     
  0.11940000000000002          4.2860156979359054     
  0.11970000000000001          4.2780154818686045     
  0.12000000000000001          4.2934564926333669     
  0.12030000000000000          4.3484473420256169     
  0.12060000000000000          4.4520089424695932     
  0.12089999999999999          4.6010587480387617     
  0.12119999999999999          4.7785295624289947     
  0.12150000000000001          4.9538826546338353     
  0.12180000000000001          5.0843065384905559     
  0.12210000000000000          5.1204416991851129     
  0.12239999999999999          5.0120953574607139     
  0.12270000000000002          4.7148696349094665     
  0.12300000000000001          4.1986683787987893     
  0.12330000000000001          3.4531309026110568     
  0.12360000000000000          2.4907689753490176     
  0.12390000000000000          1.3485950432851572     
  0.12419999999999999          8.5147249671069847E-002
  0.12450000000000001         -1.2265817731607531     
  0.12480000000000001         -2.5072908223169175     
  0.12509999999999999         -3.6820725358284099     
  0.12540000000000001         -4.6931316272467223     
  0.12570000000000003         -5.5086908525665059     
  0.12600000000000000         -6.1301556793792038     
  0.12630000000000002         -6.5957711678078468     
  0.12659999999999999         -6.9775256475614587     
  0.12690000000000001         -7.3747118066953892     
  0.12719999999999998         -7.8999094132373031     
  0.12750000000000000         -8.6624378322195685     
  0.12780000000000002         -9.7527802051524972     
  0.12809999999999999         -11.221538883381225     
  0.12840000000000001         -13.063204588535246     
  0.12869999999999998         -15.209030654668002     
  0.12900000000000000         -17.520923591856288     
  0.12930000000000003         -19.796659391473895     
  0.12959999999999999         -21.784344672635257     
  0.12990000000000002         -23.199500323091979     
  0.13019999999999998         -23.755043141222959     
  0.13050000000000000         -23.191942406216469     
  0.13080000000000003         -21.306035271264989     
  0.13109999999999999         -17.978066683321153     
  0.13140000000000002         -13.194844561045691     
  0.13169999999999998         -7.0596240167484314     
  0.13200000000000001         0.20414059781956384     
  0.13229999999999997          8.2641712821350364     
  0.13260000000000000          16.699684842306777     
  0.13290000000000002          25.029373709916001     
  0.13319999999999999          32.750297311876515     
  0.13350000000000001          39.374534252982372     
  0.13380000000000003          44.466328935639631     
  0.13410000000000000          47.679958491195556     
  0.13440000000000002          48.784173821234866     
  0.13469999999999999          47.678584498297589     
  0.13500000000000001          44.401962213098933     
  0.13529999999999998          39.127783453617461     
  0.13560000000000000          32.149629745369552     
  0.13590000000000002          23.856347587582682     
  0.13619999999999999          14.704067424761909     
  0.13650000000000001          5.1852619715064865     
  0.13680000000000003         -4.2057244215514542     
  0.13710000000000000         -13.005887478326033     
  0.13740000000000002         -20.808209854488918     
  0.13769999999999999         -27.281566752039787     
  0.13800000000000001         -32.189666172199452     
  0.13829999999999998         -35.396101982271226     
  0.13860000000000000         -36.863223954503262     
  0.13890000000000002         -36.650322563266840     
  0.13919999999999999         -34.901796357702992     
  0.13950000000000001         -31.829792537175280     
  0.13979999999999998         -27.698627172373239     
  0.14010000000000000         -22.804462111737958     
  0.14040000000000002         -17.456783463521852     
  0.14069999999999999         -11.959968908326552     
  0.14100000000000001         -6.5937385167084877     
  0.14130000000000004         -1.6030046143160579     
  0.14160000000000000          2.8139468050150231     
  0.14189999999999997          6.5136961621188760     
  0.14219999999999999          9.4069374225304845     
  0.14250000000000002          11.459718576458854     
  0.14279999999999998          12.690191735882419     
  0.14310000000000000          13.157445928414273     
  0.14339999999999997          12.955271004843279     
  0.14369999999999999          12.200438631605042     
  0.14400000000000002          11.021588948586931     
  0.14429999999999998          9.5524903620031978     
  0.14460000000000001          7.9195065158984796     
  0.14490000000000003          6.2348319365874945     
  0.14520000000000000          4.5949323942857827     
  0.14550000000000002          3.0761969378378566     
  0.14579999999999999          1.7333013131213866     
  0.14610000000000001         0.60090068701704857     
  0.14640000000000003        -0.30485110620846978     
  0.14670000000000000        -0.98219257404306060     
  0.14699999999999996         -1.4417401450453089     
  0.14729999999999999         -1.7042479717938219     
  0.14760000000000001         -1.7955770030615401     
  0.14789999999999998         -1.7455204667007684     
  0.14820000000000000         -1.5865022696644695     