  -1.4999999999999999E-002     0.0000000000000000     
  -1.4700000000000000E-002     0.0000000000000000     
  -1.4400000000000000E-002     0.0000000000000000     
  -1.4100000000000000E-002     0.0000000000000000     
  -1.3800000000000000E-002     0.0000000000000000     
  -1.3500000000000000E-002     0.0000000000000000     
  -1.3200000000000000E-002     0.0000000000000000     
  -1.2899999999999998E-002     0.0000000000000000     
  -1.2600000000000000E-002     0.0000000000000000     
  -1.2299999999999998E-002     0.0000000000000000     
  -1.2000000000000000E-002     0.0000000000000000     
  -1.1699999999999999E-002     0.0000000000000000     
  -1.1399999999999999E-002     0.0000000000000000     
  -1.1099999999999999E-002     0.0000000000000000     
  -1.0799999999999999E-002     0.0000000000000000     
  -1.0499999999999999E-002     0.0000000000000000     
  -1.0199999999999999E-002     0.0000000000000000     
  -9.8999999999999991E-003     0.0000000000000000     
  -9.5999999999999992E-003     0.0000000000000000     
  -9.2999999999999992E-003     0.0000000000000000     
  -8.9999999999999993E-003     0.0000000000000000     
  -8.6999999999999994E-003     0.0000000000000000     
  -8.3999999999999995E-003     0.0000000000000000     
  -8.0999999999999996E-003     0.0000000000000000     
  -7.7999999999999988E-003     0.0000000000000000     
  -7.4999999999999997E-003     0.0000000000000000     
  -7.1999999999999998E-003     0.0000000000000000     
  -6.8999999999999981E-003     0.0000000000000000     
  -6.5999999999999982E-003     0.0000000000000000     
  -6.3000000000000000E-003     0.0000000000000000     
  -6.0000000000000001E-003     0.0000000000000000     
  -5.6999999999999985E-003     0.0000000000000000     
  -5.3999999999999986E-003     0.0000000000000000     
  -5.1000000000000004E-003     0.0000000000000000     
  -4.7999999999999987E-003     0.0000000000000000     
  -4.5000000000000005E-003     0.0000000000000000     
  -4.1999999999999989E-003     0.0000000000000000     
  -3.8999999999999990E-003     0.0000000000000000     
  -3.5999999999999990E-003    -8.6003524541226728E-042
  -3.2999999999999991E-003     4.1531275109354336E-041
  -2.9999999999999992E-003     2.9476906067663491E-040
  -2.6999999999999993E-003     4.8928296152628530E-038
  -2.3999999999999994E-003     1.4593625936887778E-037
  -2.0999999999999977E-003     2.8799674944216433E-036
  -1.7999999999999995E-003    -2.0594792674807005E-036
  -1.4999999999999979E-003    -2.6005845199989040E-035
  -1.1999999999999997E-003     2.9892655031152709E-034
  -8.9999999999999976E-004    -5.2339098673702402E-034
  -5.9999999999999810E-004    -4.8404497608929459E-033
  -2.9999999999999992E-004     4.2947295742775398E-032
   0.0000000000000000         -1.5084539800418540E-031
   3.0000000000000165E-004     1.5406231125639554E-031
   5.9999999999999984E-004     7.2481238637259347E-031
   9.0000000000000149E-004    -2.8478111275948314E-030
   1.2000000000000031E-003     1.3075736172777514E-030
   1.5000000000000013E-003     1.7833954850868612E-029
   1.8000000000000030E-003    -5.8887015532550453E-029
   2.1000000000000012E-003     4.6592649177609574E-029
   2.3999999999999994E-003     2.6449685002889336E-028
   2.7000000000000010E-003    -1.0354089491474377E-027
   2.9999999999999992E-003     6.3649534626354511E-028
   3.3000000000000008E-003     6.4702699600260476E-027
   3.6000000000000025E-003    -6.7131051986050526E-027
   3.9000000000000007E-003    -1.8539606537249992E-025
   4.2000000000000023E-003     1.2646640153439308E-024
   4.5000000000000005E-003    -3.5680166348712300E-024
   4.7999999999999987E-003    -2.2257901846750493E-024
   5.1000000000000004E-003     6.9053956875305643E-023
   5.4000000000000020E-003    -3.4913655517935971E-022
   5.7000000000000037E-003     1.0178006518877441E-021
   5.9999999999999984E-003    -1.4852079819876376E-021
   6.3000000000000000E-003    -2.2532180470976903E-021
   6.6000000000000017E-003     2.2813910851591481E-020
   6.9000000000000034E-003    -8.5454219704039136E-020
   7.2000000000000015E-003     2.1540163026367377E-019
   7.5000000000000032E-003    -3.7515544993608559E-019
   7.8000000000000014E-003     3.1080111779972981E-019
   8.0999999999999996E-003     6.9397653879079542E-019
   8.4000000000000012E-003    -4.0258840829366313E-018
   8.7000000000000029E-003     1.1486621714103512E-017
   9.0000000000000011E-003    -2.2694014914983237E-017
   9.2999999999999992E-003     1.5365072295380615E-017
   9.6000000000000009E-003     2.0501836194025194E-016
   9.8999999999999991E-003    -2.0070973775657589E-015
   1.0200000000000001E-002     1.3542118129204636E-014
   1.0500000000000002E-002    -7.5697661312655042E-014
   1.0800000000000004E-002     3.5744626481481443E-013
   1.1099999999999999E-002    -1.4007189619439700E-012
   1.1400000000000000E-002     4.3140186233967170E-012
   1.1700000000000002E-002    -8.8406335929340044E-012
   1.2000000000000004E-002     1.7096502615122973E-012
   1.2300000000000002E-002     7.4533738969271901E-011
   1.2600000000000000E-002    -3.3079932749857961E-010
   1.2900000000000002E-002     6.7704840261793044E-010
   1.3200000000000000E-002     5.2048166867662862E-011
   1.3500000000000002E-002    -4.4295023122920139E-009
   1.3800000000000003E-002     1.0741221665879228E-008
   1.4100000000000001E-002     5.8579223734370876E-010
   1.4400000000000000E-002    -5.2065019558771151E-008
   1.4700000000000001E-002     6.9035842342831536E-008
   1.4999999999999999E-002     1.3379732442662466E-007
   1.5300000000000001E-002    -3.4945642713778438E-007
   1.5600000000000003E-002    -3.3872752706557564E-007
   1.5899999999999997E-002     1.0713440053426770E-006
   1.6199999999999999E-002     1.2312062211781086E-006
   1.6500000000000001E-002    -2.4764525403201400E-006
   1.6800000000000002E-002    -5.3489393414862207E-006
   1.7100000000000004E-002     3.9839362400171544E-006
   1.7400000000000006E-002     3.3435315505288813E-005
   1.7700000000000000E-002     8.0577431315608091E-005
   1.8000000000000002E-002     1.3990611084096680E-004
   1.8300000000000004E-002     2.1491191030604252E-004
   1.8600000000000005E-002     3.2259542450454584E-004
   1.8900000000000000E-002     4.9258884455463800E-004
   1.9200000000000002E-002     7.6302891539545628E-004
   1.9500000000000003E-002     1.1786259734747500E-003
   1.9799999999999998E-002     1.7981464488977801E-003
   2.0100000000000000E-002     2.7034716010563438E-003
   2.0400000000000001E-002     4.0060595266028440E-003
   2.0700000000000003E-002     5.8549975762323620E-003
   2.0999999999999998E-002     8.4432049320131135E-003
   2.1299999999999999E-002     1.2010165093392403E-002
   2.1600000000000001E-002     1.6841406990124722E-002
   2.1900000000000003E-002     2.3266215905180028E-002
   2.2200000000000004E-002     3.1653652299983980E-002
   2.2500000000000006E-002     4.2396132563674485E-002
   2.2800000000000001E-002     5.5874717699915998E-002
   2.3100000000000002E-002     7.2416155665042045E-002
   2.3400000000000004E-002     9.2236984059960017E-002
   2.3699999999999999E-002    0.11536517225102882     
   2.4000000000000000E-002    0.14154950980911896     
   2.4300000000000002E-002    0.17015453914196402     
   2.4599999999999997E-002    0.20005304072943197     
   2.4900000000000005E-002    0.22953622441591504     
   2.5200000000000000E-002    0.25623984146210316     
   2.5499999999999995E-002    0.27710917284638609     
   2.5800000000000003E-002    0.28844186248657638     
   2.6099999999999998E-002    0.28599969265917469     
   2.6400000000000007E-002    0.26519943710228977     
   2.6700000000000002E-002    0.22142703919140716     
   2.6999999999999996E-002    0.15043776338859613     
   2.7300000000000005E-002     4.8856722768891588E-002
   2.7600000000000000E-002    -8.5259494229643504E-002
   2.7900000000000008E-002   -0.25189881615758214     
   2.8200000000000003E-002   -0.44854815200894088     
   2.8499999999999998E-002   -0.66984636653748297     
   2.8800000000000006E-002   -0.90738009707183864     
   2.9100000000000001E-002    -1.1497071269621111     
   2.9400000000000003E-002    -1.3827358419716471     
   2.9700000000000004E-002    -1.5903457826292500     
   3.0000000000000006E-002    -1.7553698289844739     
   3.0300000000000001E-002    -1.8608205873585448     
   3.0600000000000002E-002    -1.8912708535670646     
   3.0900000000000004E-002    -1.8343050639567580     
   3.1199999999999999E-002    -1.6818420151376665     
   3.1500000000000007E-002    -1.4313279219311030     
   3.1800000000000002E-002    -1.0864137683894621     
   3.2099999999999997E-002   -0.65726423122858146     
   3.2400000000000005E-002   -0.16039468042399099     
   3.2700000000000000E-002    0.38233503657104734     
   3.3000000000000002E-002    0.94492835534423025     
   3.3300000000000003E-002     1.4987917245308351     
   3.3599999999999998E-002     2.0151994349919509     
   3.3900000000000000E-002     2.4668171950434186     
   3.4200000000000001E-002     2.8299785190647864     
   3.4500000000000003E-002     3.0863586074379432     
   3.4799999999999998E-002     3.2238791680642707     
   3.5099999999999999E-002     3.2377850044061911     
   3.5400000000000001E-002     3.1305133487261338     
   3.5699999999999996E-002     2.9111975759496289     
   3.6000000000000004E-002     2.5948953874524068     
   3.6299999999999999E-002     2.2010281216286063     
   3.6600000000000008E-002     1.7518261175660219     
   3.6900000000000002E-002     1.2706332730704890     
   3.7199999999999997E-002    0.78034389792641301     
   3.7500000000000006E-002    0.30201214288803413     
   3.7800000000000000E-002   -0.14630644514127031     
   3.8100000000000009E-002   -0.55014711080417378     
   3.8400000000000004E-002   -0.89924262670236843     
   3.8699999999999998E-002    -1.1872302767276188     
   3.9000000000000007E-002    -1.4115743656505391     
   3.9300000000000002E-002    -1.5729828730653270     
   3.9600000000000003E-002    -1.6745733116764356     
   3.9900000000000005E-002    -1.7214092301640620     
   4.0200000000000000E-002    -1.7196519966660910     
   4.0500000000000001E-002    -1.6760109470326270     
   4.0800000000000003E-002    -1.5972731880598481     
   4.1100000000000005E-002    -1.4900940276634205     
   4.1399999999999999E-002    -1.3608173296399444     
   4.1700000000000008E-002    -1.2154621571847191     
   4.2000000000000003E-002    -1.0600965436771126     
   4.2299999999999997E-002   -0.90061029681469917     
   4.2600000000000006E-002   -0.74331574849153059     
   4.2900000000000001E-002   -0.59486545754874798     
   4.3200000000000002E-002   -0.46218726288667367     
   4.3500000000000004E-002   -0.35287940989548661     
   4.3799999999999999E-002   -0.27413531835738170     
   4.4100000000000000E-002   -0.23278293158024760     
   4.4400000000000002E-002   -0.23459222388896059     
   4.4700000000000004E-002   -0.28289952729305551     
   4.4999999999999998E-002   -0.37856579152476816     
   4.5300000000000000E-002   -0.51856553792536131     
   4.5600000000000002E-002   -0.69548827261082347     
   4.5899999999999996E-002   -0.89757046504392368     
   4.6200000000000005E-002    -1.1080251010602598     
   4.6500000000000000E-002    -1.3063635916657530     
   4.6799999999999994E-002    -1.4691321967595083     
   4.7100000000000003E-002    -1.5713360162277927     
   4.7399999999999998E-002    -1.5890212911465837     
   4.7700000000000006E-002    -1.5011128770512017     
   4.8000000000000001E-002    -1.2918973674591598     
   4.8300000000000010E-002   -0.95340959983586959     
   4.8600000000000004E-002   -0.48701617538060105     
   4.8899999999999999E-002     9.5438963169332203E-002
   4.9200000000000008E-002    0.77136235825544941     
   4.9500000000000002E-002     1.5084071059241180     
   4.9800000000000011E-002     2.2661816568779036     
   5.0100000000000006E-002     2.9987678043171040     
   5.0400000000000000E-002     3.6584912520261890     
   5.0700000000000009E-002     4.1992421516018537     
   5.1000000000000004E-002     4.5803339387081055     
   5.1299999999999998E-002     4.7705149860293359     
   5.1600000000000007E-002     4.7496662930397378     
   5.1900000000000002E-002     4.5115397214733273     
   5.2200000000000010E-002     4.0642853042866065     
   5.2500000000000005E-002     3.4290341719038890     
   5.2800000000000000E-002     2.6394898299924705     
   5.3099999999999994E-002     1.7383294057801684     
   5.3400000000000003E-002    0.77391440736542694     
   5.3699999999999998E-002   -0.20264147160129353     
   5.4000000000000006E-002    -1.1424427877342043     
   5.4300000000000001E-002    -2.0014362466156692     
   5.4599999999999996E-002    -2.7430852920245181     
   5.4900000000000004E-002    -3.3415310028071534     
   5.5199999999999999E-002    -3.7813349966052954     
   5.5499999999999994E-002    -4.0583585265242972     
   5.5800000000000002E-002    -4.1790118891431867     
   5.6099999999999997E-002    -4.1580537169647860     
   5.6400000000000006E-002    -4.0170981297672226     
   5.6700000000000000E-002    -3.7816842540737055     
   5.6999999999999995E-002    -3.4785291071122444     
   5.7300000000000004E-002    -3.1334387286224392     
   5.7599999999999998E-002    -2.7687688455313193     
   5.7900000000000007E-002    -2.4016981732046174     
   5.8200000000000002E-002    -2.0436400125017302     
   5.8499999999999996E-002    -1.6993705411322604     
   5.8800000000000005E-002    -1.3674031007823708     
   5.9100000000000000E-002    -1.0418013449085914     
   5.9400000000000008E-002   -0.71246454585391383     
   5.9700000000000003E-002   -0.36793280833753572     
   6.0000000000000012E-002     2.3639288871588407E-003
   6.0300000000000006E-002    0.40713609440679399     
   6.0600000000000001E-002    0.84992613816428253     
   6.0900000000000010E-002     1.3286523656175073     
   6.1200000000000004E-002     1.8349623137608611     
   6.1500000000000013E-002     2.3527525844942843     
   6.1800000000000008E-002     2.8605181626213017     
   6.2100000000000002E-002     3.3316731554413748     
   6.2399999999999997E-002     3.7364279626040084     
   6.2700000000000006E-002     4.0453797884670628     
   6.3000000000000000E-002     4.2306933177226957     
   6.3300000000000009E-002     4.2696812808641953     
   6.3600000000000004E-002     4.1472153132913050     
   6.3899999999999998E-002     3.8565036977251088     
   6.4199999999999993E-002     3.4014099272699156     
   6.4500000000000002E-002     2.7961813499259955     
   6.4800000000000010E-002     2.0645082180484478     
   6.5100000000000005E-002     1.2389894216802697     
   6.5400000000000000E-002    0.35825204520445281     
   6.5700000000000008E-002   -0.53532554607224403     
   6.5999999999999989E-002    -1.3979961508715419     
   6.6299999999999998E-002    -2.1881225193674276     
   6.6600000000000006E-002    -2.8684015311959574     
   6.6900000000000001E-002    -3.4075326347028230     
   6.7199999999999996E-002    -3.7825794879746919     
   6.7500000000000004E-002    -3.9793889966530775     
   6.7800000000000013E-002    -3.9925169465040611     
   6.8099999999999994E-002    -3.8261022568377570     
   6.8400000000000002E-002    -3.4920463781225544     
   6.8700000000000011E-002    -3.0093369882419254     
   6.8999999999999992E-002    -2.4035679253545847     
   6.9300000000000000E-002    -1.7041704805962057     
   6.9600000000000009E-002   -0.94432554626221799     
   6.9900000000000004E-002   -0.15937067983309544     
   7.0199999999999999E-002    0.61520376782177411     
   7.0500000000000007E-002     1.3434310097851083     
   7.0800000000000016E-002     1.9918753930990667     
   7.1099999999999997E-002     2.5303835872812463     
   7.1400000000000005E-002     2.9326934619714082     
   7.1700000000000000E-002     3.1795565617515589     
   7.1999999999999995E-002     3.2587203031727485     
   7.2300000000000003E-002     3.1666254666101130     
   7.2600000000000012E-002     2.9099001995555338     
   7.2900000000000006E-002     2.5045781987138662     
   7.3200000000000001E-002     1.9766410611204788     
   7.3499999999999996E-002     1.3609396630585835     
   7.3800000000000004E-002    0.69868759104526201     
   7.4099999999999999E-002     3.5602417644125417E-002
   7.4400000000000008E-002   -0.58166759036300575     
   7.4700000000000003E-002    -1.1095768929624334     
   7.5000000000000011E-002    -1.5104025019464364     
   7.5299999999999992E-002    -1.7563643569663774     
   7.5600000000000001E-002    -1.8324496086484645     
   7.5900000000000009E-002    -1.7372120825691204     
   7.6200000000000004E-002    -1.4846273347521048     
   7.6499999999999999E-002    -1.1026682885510630     
   7.6800000000000007E-002   -0.63079483374218570     
   7.7099999999999988E-002   -0.11797862546850019     
   7.7399999999999997E-002    0.38277506449293425     
   7.7700000000000005E-002    0.81873581543061213     
   7.8000000000000014E-002     1.1417080074773727     
   7.8299999999999995E-002     1.3135887749067987     
   7.8600000000000003E-002     1.3093327901583673     
   7.8900000000000012E-002     1.1196203487011616     
   7.9199999999999993E-002    0.75265664876678395     
   7.9500000000000001E-002    0.23305779905273238     
   7.9800000000000010E-002   -0.39939421346717319     
   8.0100000000000018E-002    -1.0928880190657655     
   8.0399999999999999E-002    -1.7886870280547496     
   8.0700000000000008E-002    -2.4253744716769048     
   8.1000000000000003E-002    -2.9442135731697281     
   8.1299999999999997E-002    -3.2951420881507394     
   8.1600000000000006E-002    -3.4404831422997559     
   8.1900000000000014E-002    -3.3587009808510704     
   8.2199999999999995E-002    -3.0473194299739670     
   8.2500000000000004E-002    -2.5223693080276970     
   8.2799999999999999E-002    -1.8181353050606064     
   8.3100000000000007E-002   -0.98464030761620758     
   8.3400000000000002E-002    -8.2475421947404981E-002
   8.3700000000000011E-002    0.82095869182126413     
   8.4000000000000005E-002     1.6579474990884129     
   8.4300000000000000E-002     2.3663858700926470     
   8.4599999999999995E-002     2.8940358227975884     
   8.4900000000000003E-002     3.2043636111708844     
   8.5199999999999998E-002     3.2784909709561596     
   8.5500000000000007E-002     3.1162663353077344     
   8.5800000000000001E-002     2.7369577732152033     
   8.6100000000000010E-002     2.1755805765046272     
   8.6399999999999991E-002     1.4800396622337766     
   8.6699999999999999E-002    0.70672322465807791     
   8.7000000000000008E-002    -8.5966842751921901E-002
   8.7300000000000003E-002   -0.84163158197687771     
   8.7599999999999997E-002    -1.5109602001083864     
   8.7900000000000006E-002    -2.0561635671098690     
   8.8200000000000014E-002    -2.4522845576650649     
   8.8499999999999995E-002    -2.6887460671409156     
   8.8800000000000004E-002    -2.7689507272331610     
   8.9100000000000013E-002    -2.7076676042564380     
   8.9399999999999993E-002    -2.5292103570531808     
   8.9700000000000002E-002    -2.2635446047637888     
   9.0000000000000011E-002    -1.9422893893643893     
   9.0299999999999991E-002    -1.5964733354650358     
   9.0600000000000000E-002    -1.2528005623277092     
   9.0900000000000009E-002   -0.93202469011148903     
   9.1200000000000017E-002   -0.64840748674215631     
   9.1499999999999998E-002   -0.40870015363110657     
   9.1800000000000007E-002   -0.21343256971419025     
   9.2100000000000001E-002    -5.7990295989688669E-002
   9.2399999999999996E-002     6.6369500705569656E-002
   9.2700000000000005E-002    0.17022697630298284     
   9.3000000000000013E-002    0.26529599870999399     
   9.3300000000000008E-002    0.36301773464417231     
   9.3600000000000003E-002    0.47383492286963974     
   9.3899999999999997E-002    0.60717817545071440     
   9.4200000000000006E-002    0.77130805914619049     
   9.4500000000000001E-002    0.97374325955240493     
   9.4800000000000009E-002     1.2210616523744742     
   9.5100000000000004E-002     1.5196175390559696     
   9.5399999999999999E-002     1.8748966077926492     
   9.5699999999999993E-002     2.2910670027505500     
   9.6000000000000002E-002     2.7705334174732390     
   9.6300000000000011E-002     3.3120581879713615     
   9.6600000000000005E-002     3.9101257845101864     
   9.6900000000000000E-002     4.5535352618836633     
   9.7200000000000009E-002     5.2239283278788804     
   9.7499999999999989E-002     5.8960942376072349     
   9.7799999999999998E-002     6.5372193915137746     
   9.8100000000000007E-002     7.1087092496436579     
   9.8400000000000015E-002     7.5678755367129824     
   9.8699999999999996E-002     7.8695092324523479     
   9.9000000000000005E-002     7.9703596601371061     
   9.9300000000000013E-002     7.8318380002463162     
   9.9599999999999994E-002     7.4226691321807721     
   9.9900000000000003E-002     6.7233536468682233     
  0.10020000000000001          5.7275424580052432     
  0.10049999999999999          4.4436572207209917     
  0.10080000000000000          2.8959115045823118     
  0.10110000000000001          1.1226785388320071     
  0.10140000000000000        -0.82473212713536848     
  0.10170000000000000         -2.8839987182492428     
  0.10200000000000001         -4.9869151251571742     
  0.10230000000000002         -7.0612199189470664     
  0.10260000000000000         -9.0344344886545898     
  0.10290000000000001         -10.839349181877022     
  0.10320000000000000         -12.414403266315365     
  0.10350000000000001         -13.706879321374966     
  0.10380000000000000         -14.675694631617549     
  0.10410000000000001         -15.290084475534961     
  0.10440000000000001         -15.531441151148513     
  0.10470000000000000         -15.392668545920813     
  0.10500000000000000         -14.875871370491062     
  0.10530000000000000         -13.993581469842638     
  0.10560000000000000         -12.766292748347286     
  0.10590000000000001         -11.221770910246054     
  0.10620000000000000         -9.3958536600450806     
  0.10650000000000001         -7.3301106809683123     
  0.10679999999999999         -5.0726877520358453     
  0.10710000000000000         -2.6784231776407954     
  0.10740000000000001        -0.20773490026208197     
  0.10770000000000000          2.2742633750249355     
  0.10800000000000000          4.6965045437713702     
  0.10830000000000001          6.9869164831066479     
  0.10859999999999999          9.0724522101164826     
  0.10890000000000000          10.882046010074115     
  0.10920000000000001          12.351856449849107     
  0.10950000000000001          13.425876729299912     
  0.10979999999999999          14.062154345893759     
  0.11009999999999999          14.234986692918243     
  0.11040000000000001          13.936018743193467     
  0.11070000000000001          13.179283550187758     
  0.11100000000000000          11.998089339539375     
  0.11130000000000000          10.446102612766847     
  0.11160000000000002          8.5959748840916124     
  0.11190000000000001          6.5329470067006525     
  0.11220000000000001          4.3540028347429995     
  0.11250000000000000          2.1607259553923051     
  0.11280000000000000          5.3965576562641004E-002
  0.11309999999999999         -1.8699881885501228     
  0.11340000000000001         -3.5268943848999039     
  0.11369999999999998         -4.8474921942641860     
  0.11400000000000000         -5.7811052545101820     
  0.11430000000000000         -6.2987238006213717     
  0.11460000000000002         -6.3936642969218909     
  0.11489999999999999         -6.0821867989952159     
  0.11520000000000001         -5.4020587083841747     
  0.11550000000000001         -4.4102042347035226     
  0.11580000000000000         -3.1793296970704881     
  0.11609999999999999         -1.7945181840707010     
  0.11640000000000002        -0.34771824165282061     
  0.11670000000000001          1.0675078521355639     
  0.11700000000000001          2.3599090076099212     
  0.11730000000000000          3.4478055626829263     
  0.11760000000000000          4.2618905352646870     
  0.11789999999999999          4.7504284274617836     
  0.11820000000000001          4.8830315746948116     
  0.11850000000000001          4.6504901112163850     
  0.11880000000000000          4.0690049442125362     
  0.11910000000000000          3.1762074933158435     
  0.11940000000000002          2.0301639547939274     
  0.11970000000000001         0.70717098802815537     
  0.12000000000000001        -0.70605057100052515     
  0.12030000000000000         -2.1150136924551881     
  0.12060000000000000         -3.4254336791654096     
  0.12089999999999999         -4.5494752021244587     
  0.12119999999999999         -5.4104293322575803     
  0.12150000000000001         -5.9508101863218421     
  0.12180000000000001         -6.1333438384655672     
  0.12210000000000000         -5.9456410986716808     
  0.12239999999999999         -5.4020085681974477     
  0.12270000000000002         -4.5398118715983848     
  0.12300000000000001         -3.4197977530295578     
  0.12330000000000001         -2.1208373798345761     
  0.12360000000000000        -0.73358055788375287     
  0.12390000000000000         0.64458276674250325     
  0.12419999999999999          1.9177613882322375     
  0.12450000000000001          2.9984221916623923     
  0.12480000000000001          3.8136480487616700     
  0.12509999999999999          4.3109159140628277     
  0.12540000000000001          4.4621755718077249     
  0.12570000000000003          4.2653458110987330     
  0.12600000000000000          3.7455231545628771     
  0.12630000000000002          2.9519331788519643     
  0.12659999999999999          1.9531356068013874     
  0.12690000000000001         0.83408457834072469     
  0.12719999999999998        -0.31427345448811617     
  0.12750000000000000         -1.4010700582867379     
  0.12780000000000002         -2.3417651144334966     
  0.12809999999999999         -3.0689454246905612     
  0.12840000000000001         -3.5338555399974063     
  0.12869999999999998         -3.7127296406576518     
  0.12900000000000000         -3.6091265584208436     
  0.12930000000000003         -3.2492606204764858     
  0.12959999999999999         -2.6840321021911211     
  0.12990000000000002         -1.9800820378181809     
  0.13019999999999998         -1.2136623233147117     
  0.13050000000000000        -0.46530779364027652     
  0.13080000000000003         0.19242363377697441     
  0.13109999999999999         0.69804094518386273     
  0.13140000000000002          1.0085912747635062     
  0.13169999999999998          1.1049320085341918     
  0.13200000000000001         0.99004244113059681     
  0.13229999999999997         0.69050428417158338     
  0.13260000000000000         0.25175643434550132     
  0.13290000000000002        -0.26778420011709730     
  0.13319999999999999        -0.80267596096499660     
  0.13350000000000001         -1.2888968250506720     
  0.13380000000000003         -1.6701976065913193     
  0.13410000000000000         -1.9047249051464388     
  0.13440000000000002         -1.9682586677759790     
  0.13469999999999999         -1.8570651343536178     
  0.13500000000000001         -1.5862246538587776     
  0.13529999999999998         -1.1869039172883364     
  0.13560000000000000        -0.70326845770009316     
  0.13590000000000002        -0.18351996661158748     
  0.13619999999999999         0.32317879207807276     
  0.13650000000000001         0.77384929678308267     
  0.13680000000000003          1.1377593019568204     
  0.13710000000000000          1.3957841143535297     
  0.13740000000000002          1.5450252992102314     
  0.13769999999999999          1.5953180600588519     
  0.13800000000000001          1.5669272570843835     
  0.13829999999999998          1.4887334049678087     
  0.13860000000000000          1.3900352129267346     
  0.13890000000000002          1.2996252684908836     
  0.13919999999999999          1.2403694939090630     
  0.13950000000000001          1.2263130789960250     
  0.13979999999999998          1.2637943068258326     
  0.14010000000000000          1.3488857789022175     
  0.14040000000000002          1.4707282725862025     
  0.14069999999999999          1.6134730527819914     
  0.14100000000000001          1.7586848366976133     
  0.14130000000000004          1.8893364678097591     
  0.14160000000000000          1.9903633499268838     
  0.14189999999999997          2.0519512214884013     
  0.14219999999999999          2.0696521519827229     
  0.14250000000000002          2.0436151656588093     
  0.14279999999999998          1.9787117222257962     
  0.14310000000000000          1.8827209653811514     
  0.14339999999999997          1.7648115446977641     
  0.14369999999999999          1.6336133741547954     
  0.14400000000000002          1.4968863467297131     
  0.14429999999999998          1.3597565087725070     
  0.14460000000000001          1.2245910005834653     
  0.14490000000000003          1.0919521743300606     
  0.14520000000000000         0.95961867940092072     
  0.14550000000000002         0.82452618519540066     
  0.14579999999999999         0.68210572720536589     
  0.14610000000000001         0.52796283415474110     
  0.14640000000000003         0.35911930873833559     
  0.14670000000000000         0.17158291189151614     
  0.14699999999999996         -3.5534391502581197E-002
  0.14729999999999999        -0.26189895911925792     
  0.14760000000000001        -0.50627988767262333     
  0.14789999999999998        -0.76380558284517341     
  0.14820000000000000         -1.0294691546489507     