  -1.4999999999999999E-002     0.0000000000000000     
  -1.4700000000000000E-002     0.0000000000000000     
  -1.4400000000000000E-002     0.0000000000000000     
  -1.4100000000000000E-002     0.0000000000000000     
  -1.3800000000000000E-002     0.0000000000000000     
  -1.3500000000000000E-002     0.0000000000000000     
  -1.3200000000000000E-002     0.0000000000000000     
  -1.2899999999999998E-002     0.0000000000000000     
  -1.2600000000000000E-002     0.0000000000000000     
  -1.2299999999999998E-002     0.0000000000000000     
  -1.2000000000000000E-002     0.0000000000000000     
  -1.1699999999999999E-002     0.0000000000000000     
  -1.1399999999999999E-002     0.0000000000000000     
  -1.1099999999999999E-002     0.0000000000000000     
  -1.0799999999999999E-002     0.0000000000000000     
  -1.0499999999999999E-002     0.0000000000000000     
  -1.0199999999999999E-002     0.0000000000000000     
  -9.8999999999999991E-003     0.0000000000000000     
  -9.5999999999999992E-003     0.0000000000000000     
  -9.2999999999999992E-003     0.0000000000000000     
  -8.9999999999999993E-003     0.0000000000000000     
  -8.6999999999999994E-003     0.0000000000000000     
  -8.3999999999999995E-003     0.0000000000000000     
  -8.0999999999999996E-003     0.0000000000000000     
  -7.7999999999999988E-003     0.0000000000000000     
  -7.4999999999999997E-003     0.0000000000000000     
  -7.1999999999999998E-003     0.0000000000000000     
  -6.8999999999999981E-003     0.0000000000000000     
  -6.5999999999999982E-003     0.0000000000000000     
  -6.3000000000000000E-003     0.0000000000000000     
  -6.0000000000000001E-003     0.0000000000000000     
  -5.6999999999999985E-003     0.0000000000000000     
  -5.3999999999999986E-003     0.0000000000000000     
  -5.1000000000000004E-003     0.0000000000000000     
  -4.7999999999999987E-003     0.0000000000000000     
  -4.5000000000000005E-003     0.0000000000000000     
  -4.1999999999999989E-003     0.0000000000000000     
  -3.8999999999999990E-003     0.0000000000000000     
  -3.5999999999999990E-003     0.0000000000000000     
  -3.2999999999999991E-003     0.0000000000000000     
  -2.9999999999999992E-003     0.0000000000000000     
  -2.6999999999999993E-003     0.0000000000000000     
  -2.3999999999999994E-003     0.0000000000000000     
  -2.0999999999999977E-003     0.0000000000000000     
  -1.7999999999999995E-003     0.0000000000000000     
  -1.4999999999999979E-003     0.0000000000000000     
  -1.1999999999999997E-003     0.0000000000000000     
  -8.9999999999999976E-004     0.0000000000000000     
  -5.9999999999999810E-004     0.0000000000000000     
  -2.9999999999999992E-004     0.0000000000000000     
   0.0000000000000000          0.0000000000000000     
   3.0000000000000165E-004     0.0000000000000000     
   5.9999999999999984E-004     0.0000000000000000     
   9.0000000000000149E-004     0.0000000000000000     
   1.2000000000000031E-003     0.0000000000000000     
   1.5000000000000013E-003     0.0000000000000000     
   1.8000000000000030E-003     0.0000000000000000     
   2.1000000000000012E-003     0.0000000000000000     
   2.3999999999999994E-003     0.0000000000000000     
   2.7000000000000010E-003     0.0000000000000000     
   2.9999999999999992E-003     0.0000000000000000     
   3.3000000000000008E-003     0.0000000000000000     
   3.6000000000000025E-003     0.0000000000000000     
   3.9000000000000007E-003     0.0000000000000000     
   4.2000000000000023E-003     0.0000000000000000     
   4.5000000000000005E-003     0.0000000000000000     
   4.7999999999999987E-003     0.0000000000000000     
   5.1000000000000004E-003     0.0000000000000000     
   5.4000000000000020E-003     0.0000000000000000     
   5.7000000000000037E-003     0.0000000000000000     
   5.9999999999999984E-003     0.0000000000000000     
   6.3000000000000000E-003     0.0000000000000000     
   6.6000000000000017E-003     0.0000000000000000     
   6.9000000000000034E-003     0.0000000000000000     
   7.2000000000000015E-003     0.0000000000000000     
   7.5000000000000032E-003     0.0000000000000000     
   7.8000000000000014E-003     0.0000000000000000     
   8.0999999999999996E-003     0.0000000000000000     
   8.4000000000000012E-003    -1.2343602739359930E-043
   8.7000000000000029E-003     8.8653702345916785E-043
   9.0000000000000011E-003     3.9960319597846032E-036
   9.2999999999999992E-003    -3.8099111539130516E-035
   9.6000000000000009E-003    -2.1244879965001372E-034
   9.8999999999999991E-003     3.0351680553861771E-033
   1.0200000000000001E-002    -2.4165526454519289E-033
   1.0500000000000002E-002    -6.3788036215806300E-032
   1.0800000000000004E-002     2.9248878522268248E-031
   1.1099999999999999E-002    -1.8088720194151051E-031
   1.1400000000000000E-002    -1.0827242238428676E-030
   1.1700000000000002E-002    -5.0080382355724096E-030
   1.2000000000000004E-002    -1.1060705034820418E-030
   1.2300000000000002E-002     6.2923038885314391E-028
   1.2600000000000000E-002    -4.7237887324349309E-027
   1.2900000000000002E-002     1.2127609149614024E-026
   1.3200000000000000E-002     3.8427164155629835E-026
   1.3500000000000002E-002    -4.5706880718122923E-025
   1.3800000000000003E-002     1.8306548496364282E-024
   1.4100000000000001E-002    -2.8665251365727926E-024
   1.4400000000000000E-002    -8.7003084418526093E-024
   1.4700000000000001E-002     7.1791744429942859E-023
   1.4999999999999999E-002    -2.3951546526594202E-022
   1.5300000000000001E-002     4.4584605042636091E-022
   1.5600000000000003E-002    -2.4458631973944903E-022
   1.5899999999999997E-002    -9.4294564358698881E-022
   1.6199999999999999E-002     1.3589218974244995E-021
   1.6500000000000001E-002     6.4685873065770866E-021
   1.6800000000000002E-002    -1.0601746485041243E-020
   1.7100000000000004E-002    -2.2842567343803538E-019
   1.7400000000000006E-002     2.1779476439695917E-018
   1.7700000000000000E-002    -1.2503317390227170E-017
   1.8000000000000002E-002     5.7616668256872530E-017
   1.8300000000000004E-002    -2.3512800319653095E-016
   1.8600000000000005E-002     8.8907713542425370E-016
   1.8900000000000000E-002    -3.1599773689146140E-015
   1.9200000000000002E-002     1.0421001595549759E-014
   1.9500000000000003E-002    -3.0492587973391020E-014
   1.9799999999999998E-002     7.1023508130480632E-014
   2.0100000000000000E-002    -8.4436633304210234E-014
   2.0400000000000001E-002    -2.8272448370642960E-013
   2.0700000000000003E-002     2.3582572815594652E-012
   2.0999999999999998E-002    -8.9381987454852540E-012
   2.1299999999999999E-002     1.9763153089632289E-011
   2.1600000000000001E-002    -9.6166189363179751E-012
   2.1900000000000003E-002    -1.0714200675746856E-010
   2.2200000000000004E-002     4.0353463108989090E-010
   2.2500000000000006E-002    -4.7346517577995628E-010
   2.2800000000000001E-002    -1.1001557068705970E-009
   2.3100000000000002E-002     4.6511041725405516E-009
   2.3400000000000004E-002    -2.5683396636798019E-009
   2.3699999999999999E-002    -1.6502874495316437E-008
   2.4000000000000000E-002     2.5452703104811477E-008
   2.4300000000000002E-002     4.4983522124415542E-008
   2.4599999999999997E-002    -1.0358282368322750E-007
   2.4900000000000005E-002    -1.6892884084034477E-007
   2.5200000000000000E-002     2.4501344052503171E-007
   2.5499999999999995E-002     6.0792425606645846E-007
   2.5800000000000003E-002    -2.7632415747636828E-007
   2.6099999999999998E-002    -1.7471615092350527E-006
   2.6400000000000007E-002    -4.4516076039805551E-007
   2.6700000000000002E-002     5.6497482457471490E-006
   2.6999999999999996E-002     1.3543311421473867E-005
   2.7300000000000005E-002     1.8872878597462221E-005
   2.7600000000000000E-002     2.3578391693998119E-005
   2.7900000000000008E-002     3.6682713492294054E-005
   2.8200000000000003E-002     6.5398474244253934E-005
   2.8499999999999998E-002     1.0893780426629957E-004
   2.8800000000000006E-002     1.6557521759273663E-004
   2.9100000000000001E-002     2.4455252693596598E-004
   2.9400000000000003E-002     3.6673204718096994E-004
   2.9700000000000004E-002     5.5339204395203395E-004
   3.0000000000000006E-002     8.2043059997121608E-004
   3.0300000000000001E-002     1.1885943789795583E-003
   3.0600000000000002E-002     1.6961715107783148E-003
   3.0900000000000004E-002     2.3967397681425870E-003
   3.1199999999999999E-002     3.3471077373254483E-003
   3.1500000000000007E-002     4.6038766643990356E-003
   3.1800000000000002E-002     6.2329746426291717E-003
   3.2099999999999997E-002     8.3159615538765056E-003
   3.2400000000000005E-002     1.0938608022434194E-002
   3.2700000000000000E-002     1.4174684110241255E-002
   3.3000000000000002E-002     1.8078544592479266E-002
   3.3300000000000003E-002     2.2683955495586865E-002
   3.3599999999999998E-002     2.7994457702760898E-002
   3.3900000000000000E-002     3.3961972606887589E-002
   3.4200000000000001E-002     4.0467413835152441E-002
   3.4500000000000003E-002     4.7304808199108109E-002
   3.4799999999999998E-002     5.4183691062165786E-002
   3.5099999999999999E-002     6.0723125384843091E-002
   3.5400000000000001E-002     6.6447656059636748E-002
   3.5699999999999996E-002     7.0796254334863501E-002
   3.6000000000000004E-002     7.3144684458396891E-002
   3.6299999999999999E-002     7.2854833981798026E-002
   3.6600000000000008E-002     6.9318787671538151E-002
   3.6900000000000002E-002     6.2008679346640706E-002
   3.7199999999999997E-002     5.0534079974360595E-002
   3.7500000000000006E-002     3.4719707231633194E-002
   3.7800000000000000E-002     1.4645251651894432E-002
   3.8100000000000009E-002    -9.2848542724277526E-003
   3.8400000000000004E-002    -3.6342794898771812E-002
   3.8699999999999998E-002    -6.5483428765614846E-002
   3.9000000000000007E-002    -9.5354573186261740E-002
   3.9300000000000002E-002   -0.12439213141216063     
   3.9600000000000003E-002   -0.15088745426764030     
   3.9900000000000005E-002   -0.17311317673885759     
   4.0200000000000000E-002   -0.18949119133058437     
   4.0500000000000001E-002   -0.19870040580951542     
   4.0800000000000003E-002   -0.19979242091069918     
   4.1100000000000005E-002   -0.19233316589167734     
   4.1399999999999999E-002   -0.17643098719818637     
   4.1700000000000008E-002   -0.15280061915600199     
   4.2000000000000003E-002   -0.12272769684986200     
   4.2299999999999997E-002    -8.7965699660067634E-002
   4.2600000000000006E-002    -5.0678984130501883E-002
   4.2900000000000001E-002    -1.3229368596511571E-002
   4.3200000000000002E-002     2.1949579548204520E-002
   4.3500000000000004E-002     5.2478374830496673E-002
   4.3799999999999999E-002     7.6316112277462170E-002
   4.4100000000000000E-002     9.1832191374879052E-002
   4.4400000000000002E-002     9.7856371814128748E-002
   4.4700000000000004E-002     9.3839814089452758E-002
   4.4999999999999998E-002     7.9830902371116286E-002
   4.5300000000000000E-002     5.6472789503731136E-002
   4.5600000000000002E-002     2.4987372694815182E-002
   4.5899999999999996E-002    -1.2951737979514856E-002
   4.6200000000000005E-002    -5.5311982125298753E-002
   4.6500000000000000E-002    -9.9780182518995550E-002
   4.6799999999999994E-002   -0.14388261498696678     
   4.7100000000000003E-002   -0.18510799047915058     
   4.7399999999999998E-002   -0.22106716103758264     
   4.7700000000000006E-002   -0.24953778232941534     
   4.8000000000000001E-002   -0.26862920989530531     
   4.8300000000000010E-002   -0.27687548237821963     
   4.8600000000000004E-002   -0.27327911605149485     
   4.8899999999999999E-002   -0.25742338506529017     
   4.9200000000000008E-002   -0.22947488443334205     
   4.9500000000000002E-002   -0.19021050116540511     
   4.9800000000000011E-002   -0.14102882852553930     
   5.0100000000000006E-002    -8.3771419148448545E-002
   5.0400000000000000E-002    -2.0737490651009684E-002
   5.0700000000000009E-002     4.5470694444259184E-002
   5.1000000000000004E-002    0.11219837309472293     
   5.1299999999999998E-002    0.17674570623683977     
   5.1600000000000007E-002    0.23664120954047960     
   5.1900000000000002E-002    0.28981806206652000     
   5.2200000000000010E-002    0.33459960000301475     
   5.2500000000000005E-002    0.36988778654261673     
   5.2800000000000000E-002    0.39516438907585488     
   5.3099999999999994E-002    0.41047810460873191     
   5.3400000000000003E-002    0.41642548625542025     
   5.3699999999999998E-002    0.41397060937502766     
   5.4000000000000006E-002    0.40441821968701508     
   5.4300000000000001E-002    0.38927801349692243     
   5.4599999999999996E-002    0.37004386206521689     
   5.4900000000000004E-002    0.34818195029697890     
   5.5199999999999999E-002    0.32494981702177061     
   5.5499999999999994E-002    0.30129097398357602     
   5.5800000000000002E-002    0.27788855003156254     
   5.6099999999999997E-002    0.25503496554743799     
   5.6400000000000006E-002    0.23270391998818582     
   5.6700000000000000E-002    0.21058903056127240     
   5.6999999999999995E-002    0.18814154708796418     
   5.7300000000000004E-002    0.16477008720736813     
   5.7599999999999998E-002    0.13985333213355003     
   5.7900000000000007E-002    0.11285467618959272     
   5.8200000000000002E-002     8.3513028744560722E-002
   5.8499999999999996E-002     5.1823509751083345E-002
   5.8800000000000005E-002     1.8220359644311641E-002
   5.9100000000000000E-002    -1.6453922836484603E-002
   5.9400000000000008E-002    -5.1117850456501440E-002
   5.9700000000000003E-002    -8.4296150439126277E-002
   6.0000000000000012E-002   -0.11436155258835297     
   6.0300000000000006E-002   -0.13973951826202471     
   6.0600000000000001E-002   -0.15889904257279627     
   6.0900000000000010E-002   -0.17076352417871174     
   6.1200000000000004E-002   -0.17474782443844736     
   6.1500000000000013E-002   -0.17075048149150948     
   6.1800000000000008E-002   -0.15936454684074486     
   6.2100000000000002E-002   -0.14182139304746297     
   6.2399999999999997E-002   -0.11988031098673664     
   6.2700000000000006E-002    -9.5698608987366610E-002
   6.3000000000000000E-002    -7.1627764917982700E-002
   6.3300000000000009E-002    -4.9944884853253539E-002
   6.3600000000000004E-002    -3.2638778339623628E-002
   6.3899999999999998E-002    -2.1302718454749597E-002
   6.4199999999999993E-002    -1.6976949560347537E-002
   6.4500000000000002E-002    -1.9890992212575700E-002
   6.4800000000000010E-002    -2.9583036860245295E-002
   6.5100000000000005E-002    -4.4983071875033767E-002
   6.5400000000000000E-002    -6.4530518948857279E-002
   6.5700000000000008E-002    -8.6289800864436828E-002
   6.5999999999999989E-002   -0.10817462451136439     
   6.6299999999999998E-002   -0.12821884861401461     
   6.6600000000000006E-002   -0.14469230673639252     
   6.6900000000000001E-002   -0.15621139625133493     
   6.7199999999999996E-002   -0.16201062964533333     
   6.7500000000000004E-002   -0.16179865949096794     
   6.7800000000000013E-002   -0.15577328391389833     
   6.8099999999999994E-002   -0.14470423742854902     
   6.8400000000000002E-002   -0.12968656180633584     
   6.8700000000000011E-002   -0.11204411361028890     
   6.8999999999999992E-002    -9.3214489931846889E-002
   6.9300000000000000E-002    -7.4623523384998725E-002
   6.9600000000000009E-002    -5.7573974152677287E-002
   6.9900000000000004E-002    -4.3108483983018843E-002
   7.0199999999999999E-002    -3.2035321693228813E-002
   7.0500000000000007E-002    -2.4866256499438324E-002
   7.0800000000000016E-002    -2.1729067693365627E-002
   7.1099999999999997E-002    -2.2614298609586941E-002
   7.1400000000000005E-002    -2.7353048295630584E-002
   7.1700000000000000E-002    -3.5569118279597682E-002
   7.1999999999999995E-002    -4.6941129612014298E-002
   7.2300000000000003E-002    -6.1214698971599216E-002
   7.2600000000000012E-002    -7.8224389949003159E-002
   7.2900000000000006E-002    -9.8013512800187608E-002
   7.3200000000000001E-002   -0.12073260652221743     
   7.3499999999999996E-002   -0.14660981534190023     
   7.3800000000000004E-002   -0.17598721779845736     
   7.4099999999999999E-002   -0.20909521564754863     
   7.4400000000000008E-002   -0.24589482739302165     
   7.4700000000000003E-002   -0.28605566442756919     
   7.5000000000000011E-002   -0.32877762370491287     
   7.5299999999999992E-002   -0.37274442591499857     
   7.5600000000000001E-002   -0.41608233929824462     
   7.5900000000000009E-002   -0.45631929082838057     
   7.6200000000000004E-002   -0.49061681772543769     
   7.6499999999999999E-002   -0.51591463858832254     
   7.6800000000000007E-002   -0.52897967811120328     
   7.7099999999999988E-002   -0.52699657046007442     
   7.7399999999999997E-002   -0.50758828242144904     
   7.7700000000000005E-002   -0.46890462620222889     
   7.8000000000000014E-002   -0.41029865316742081     
   7.8299999999999995E-002   -0.33216023750334717     
   7.8600000000000003E-002   -0.23588166942911401     
   7.8900000000000012E-002   -0.12401095096074591     
   7.9199999999999993E-002     5.4876200672735862E-005
   7.9500000000000001E-002    0.13214562918704245     
   7.9800000000000010E-002    0.26757987279853007     
   8.0100000000000018E-002    0.40150570079978204     
   8.0399999999999999E-002    0.52907040095830848     
   8.0700000000000008E-002    0.64578589253553331     
   8.1000000000000003E-002    0.74766548916358289     
   8.1299999999999997E-002    0.83106472451697411     
   8.1600000000000006E-002    0.89308287910927520     
   8.1900000000000014E-002    0.93168415652650050     
   8.2199999999999995E-002    0.94534011500617621     
   8.2500000000000004E-002    0.93323309820655320     
   8.2799999999999999E-002    0.89539356422097716     
   8.3100000000000007E-002    0.83257789603411969     
   8.3400000000000002E-002    0.74645508339058841     
   8.3700000000000011E-002    0.63966489681171357     
   8.4000000000000005E-002    0.51572824219767277     
   8.4300000000000000E-002    0.37923116051677069     
   8.4599999999999995E-002    0.23554812804590033     
   8.4900000000000003E-002     9.0691383284187688E-002
   8.5199999999999998E-002    -4.8854133102398445E-002
   8.5500000000000007E-002   -0.17694309286820065     
   8.5800000000000001E-002   -0.28793102558409545     
   8.6100000000000010E-002   -0.37696802788130218     
   8.6399999999999991E-002   -0.44102758452656937     
   8.6699999999999999E-002   -0.47894898449815537     
   8.7000000000000008E-002   -0.49130544560675249     
   8.7300000000000003E-002   -0.48092550631316699     
   8.7599999999999997E-002   -0.45230469792819333     
   8.7900000000000006E-002   -0.41114834722464533     
   8.8200000000000014E-002   -0.36404389999188824     
   8.8499999999999995E-002   -0.31728861666916219     
   8.8800000000000004E-002   -0.27648166809642571     
   8.9100000000000013E-002   -0.24588678307876793     
   8.9399999999999993E-002   -0.22758505762938630     
   8.9700000000000002E-002   -0.22158435941490728     
   9.0000000000000011E-002   -0.22564893299342254     
   9.0299999999999991E-002   -0.23531292999214967     
   9.0600000000000000E-002   -0.24477207985144492     
   9.0900000000000009E-002   -0.24736310485519322     
   9.1200000000000017E-002   -0.23611287254283839     
   9.1499999999999998E-002   -0.20496014209261676     
   9.1800000000000007E-002   -0.14927582335639505     
   9.2100000000000001E-002    -6.6376798668648943E-002
   9.2399999999999996E-002     4.3889109671959151E-002
   9.2700000000000005E-002    0.17914998660623915     
   9.3000000000000013E-002    0.33436236237525302     
   9.3300000000000008E-002    0.50222680598277580     
   9.3600000000000003E-002    0.67372850214823421     
   9.3899999999999997E-002    0.83853403196893694     
   9.4200000000000006E-002    0.98570457223408614     
   9.4500000000000001E-002     1.1044147275149621     
   9.4800000000000009E-002     1.1846068103311809     
   9.5100000000000004E-002     1.2176996595243339     
   9.5399999999999999E-002     1.1970952797293863     
   9.5699999999999993E-002     1.1185023752958128     
   9.6000000000000002E-002    0.98045932144664427     
   9.6300000000000011E-002    0.78460631907163791     
   9.6600000000000005E-002    0.53560606089020024     
   9.6900000000000000E-002    0.24106082137625057     
   9.7200000000000009E-002    -8.8372968100817545E-002
   9.7499999999999989E-002   -0.43976534652778515     
   9.7799999999999998E-002   -0.79845379492726676     
   9.8100000000000007E-002    -1.1483333618001870     
   9.8400000000000015E-002    -1.4729757851744887     
   9.8699999999999996E-002    -1.7564869500352933     
   9.9000000000000005E-002    -1.9842707516249387     
   9.9300000000000013E-002    -2.1438327448882304     
   9.9599999999999994E-002    -2.2253301760536539     
   9.9900000000000003E-002    -2.2223437436975080     
  0.10020000000000001         -2.1322138882486388     
  0.10049999999999999         -1.9559442323724539     
  0.10080000000000000         -1.6982614241003893     
  0.10110000000000001         -1.3673332069794792     
  0.10140000000000000        -0.97435696921155457     
  0.10170000000000000        -0.53322166617299926     
  0.10200000000000001         -5.9733269187534403E-002
  0.10230000000000002         0.42916518738116499     
  0.10260000000000000         0.91570692527277298     
  0.10290000000000001          1.3819573641165697     
  0.10320000000000000          1.8109739721027711     
  0.10350000000000001          2.1869457817238800     
  0.10380000000000000          2.4957977512236100     
  0.10410000000000001          2.7261127293661884     
  0.10440000000000001          2.8692520951574068     
  0.10470000000000000          2.9199565728634069     
  0.10500000000000000          2.8765259996311228     
  0.10530000000000000          2.7406161926970380     
  0.10560000000000000          2.5176399696246410     
  0.10590000000000001          2.2159398356919562     
  0.10620000000000000          1.8463210410077635     
  0.10650000000000001          1.4217899161548517     
  0.10679999999999999         0.95633597028748263     
  0.10710000000000000         0.46428664102672401     
  0.10740000000000001         -4.0077125661471896E-002
  0.10770000000000000        -0.54357236128406483     
  0.10800000000000000         -1.0344068527504859     
  0.10830000000000001         -1.5021711254860550     
  0.10859999999999999         -1.9377215885422114     
  0.10890000000000000         -2.3329187509132416     
  0.10920000000000001         -2.6805804915568499     
  0.10950000000000001         -2.9737097022681227     
  0.10979999999999999         -3.2049223214093456     
  0.11009999999999999         -3.3661593241629286     
  0.11040000000000001         -3.4488304890078214     
  0.11070000000000001         -3.4441083678895437     
  0.11100000000000000         -3.3431547837216611     
  0.11130000000000000         -3.1383603687301256     
  0.11160000000000002         -2.8243621349912780     
  0.11190000000000001         -2.3991642802374264     
  0.11220000000000001         -1.8660342118307274     
  0.11250000000000000         -1.2341413892429038     
  0.11280000000000000        -0.51928307031725951     
  0.11309999999999999         0.25556348143273683     
  0.11340000000000001          1.0608191917812013     
  0.11369999999999998          1.8611057522808929     
  0.11400000000000000          2.6172255077902267     
  0.11430000000000000          3.2889179034892622     
  0.11460000000000002          3.8367716315014935     
  0.11489999999999999          4.2257672927667222     
  0.11520000000000001          4.4282142372899171     
  0.11550000000000001          4.4256312097878663     
  0.11580000000000000          4.2115694645064350     
  0.11609999999999999          3.7923528162740436     
  0.11640000000000002          3.1867638815460859     
  0.11670000000000001          2.4254287201324063     
  0.11700000000000001          1.5491436135055185     
  0.11730000000000000         0.60641738637362341     
  0.11760000000000000        -0.34994268787500166     
  0.11789999999999999         -1.2666280609136706     
  0.11820000000000001         -2.0930660379327457     
  0.11850000000000001         -2.7844150896603277     
  0.11880000000000000         -3.3047245543783514     
  0.11910000000000000         -3.6290801669317121     
  0.11940000000000002         -3.7446407025396424     
  0.11970000000000001         -3.6512981578279202     
  0.12000000000000001         -3.3616148084530484     
  0.12030000000000000         -2.8989733189831708     
  0.12060000000000000         -2.2962644871505127     
  0.12089999999999999         -1.5940648914375988     
  0.12119999999999999        -0.83722524009876242     
  0.12150000000000001         -7.2295465519338756E-002
  0.12180000000000001         0.65524851620747748     
  0.12210000000000000          1.3038721165493274     
  0.12239999999999999          1.8383106192810301     
  0.12270000000000002          2.2316873360180773     
  0.12300000000000001          2.4673302516008007     
  0.12330000000000001          2.5392606627333083     
  0.12360000000000000          2.4521882904270682     
  0.12390000000000000          2.2212205285591460     
  0.12419999999999999          1.8700763309096748     
  0.12450000000000001          1.4295091915623042     
  0.12480000000000001         0.93486871870200472     
  0.12509999999999999         0.42273639930517160     
  0.12540000000000001         -7.1263649627690689E-002
  0.12570000000000003        -0.51499585192738917     
  0.12600000000000000        -0.88241199443511498     
  0.12630000000000002         -1.1546739102721444     
  0.12659999999999999         -1.3212376574466860     
  0.12690000000000001         -1.3801805695942613     
  0.12719999999999998         -1.3372454356839043     
  0.12750000000000000         -1.2051515299033946     
  0.12780000000000002         -1.0018959983915117     
  0.12809999999999999        -0.74906317346562656     
  0.12840000000000001        -0.47019909528426601     
  0.12869999999999998        -0.18878534129570498     
  0.12900000000000000          7.2902208911061459E-002
  0.12930000000000003         0.29519838926581560     
  0.12959999999999999         0.46203466748190497     
  0.12990000000000002         0.56123782389743637     
  0.13019999999999998         0.58546537183750025     
  0.13050000000000000         0.53242509629417245     
  0.13080000000000003         0.40479357435593394     
  0.13109999999999999         0.21052048659938369     
  0.13140000000000002         -3.7676934703915130E-002
  0.13169999999999998        -0.32223309636282216     
  0.13200000000000001        -0.62162114034369553     
  0.13229999999999997        -0.91187363711234026     
  0.13260000000000000         -1.1674311618515123     
  0.13290000000000002         -1.3632875998283072     
  0.13319999999999999         -1.4768527913782141     
  0.13350000000000001         -1.4897588506123878     
  0.13380000000000003         -1.3900923594023142     
  0.13410000000000000         -1.1738882981271210     
  0.13440000000000002        -0.84586354037066502     
  0.13469999999999999        -0.41982133004383432     
  0.13500000000000001          8.1946948070737574E-002
  0.13529999999999998         0.63007749035763916     
  0.13560000000000000          1.1899703295212856     
  0.13590000000000002          1.7247086359760411     
  0.13619999999999999          2.1979029993735484     
  0.13650000000000001          2.5762358538592665     
  0.13680000000000003          2.8328045239035173     
  0.13710000000000000          2.9488116120016548     
  0.13740000000000002          2.9146455114448453     
  0.13769999999999999          2.7313867351622809     
  0.13800000000000001          2.4102888784883336     
  0.13829999999999998          1.9714778072280146     
  0.13860000000000000          1.4425875459578363     
  0.13890000000000002         0.85625294889280223     
  0.13919999999999999         0.24797972809090121     
  0.13950000000000001        -0.34666778296116563     
  0.13979999999999998        -0.89498865798609917     
  0.14010000000000000         -1.3688715877961550     
  0.14040000000000002         -1.7469587673005447     
  0.14069999999999999         -2.0156643899129243     
  0.14100000000000001         -2.1697033110283193     
  0.14130000000000004         -2.2123411491803346     
  0.14160000000000000         -2.1546500626372009     
  0.14189999999999997         -2.0133579750668158     
  0.14219999999999999         -1.8090683041567652     
  0.14250000000000002         -1.5652938900787263     
  0.14279999999999998         -1.3053344269047624     
  0.14310000000000000         -1.0495191517328588     
  0.14339999999999997        -0.81431241756366646     
  0.14369999999999999        -0.61083245819702581     
  0.14400000000000002        -0.44423906981626471     
  0.14429999999999998        -0.31377291999238138     
  0.14460000000000001        -0.21307508793894486     
  0.14490000000000003        -0.13277582880062233     
  0.14520000000000000         -6.1525566004453358E-002
  0.14550000000000002          1.2428541927118139E-002
  0.14579999999999999          9.8056723414527078E-002
  0.14610000000000001         0.20115997981455883     
  0.14640000000000003         0.32330317714824985     
  0.14670000000000000         0.46075312767095283     
  0.14699999999999996         0.60604099738828976     
  0.14729999999999999         0.74874983218413771     
  0.14760000000000001         0.87655613384320841     
  0.14789999999999998         0.97808072080891029     
  0.14820000000000000          1.0443557769774008     