  -1.4999999999999999E-002     0.0000000000000000     
  -1.4700000000000000E-002     0.0000000000000000     
  -1.4400000000000000E-002     0.0000000000000000     
  -1.4100000000000000E-002     0.0000000000000000     
  -1.3800000000000000E-002     0.0000000000000000     
  -1.3500000000000000E-002     0.0000000000000000     
  -1.3200000000000000E-002     0.0000000000000000     
  -1.2899999999999998E-002     0.0000000000000000     
  -1.2600000000000000E-002     0.0000000000000000     
  -1.2299999999999998E-002     0.0000000000000000     
  -1.2000000000000000E-002     0.0000000000000000     
  -1.1699999999999999E-002     0.0000000000000000     
  -1.1399999999999999E-002     0.0000000000000000     
  -1.1099999999999999E-002     0.0000000000000000     
  -1.0799999999999999E-002     0.0000000000000000     
  -1.0499999999999999E-002     0.0000000000000000     
  -1.0199999999999999E-002     0.0000000000000000     
  -9.8999999999999991E-003     0.0000000000000000     
  -9.5999999999999992E-003     0.0000000000000000     
  -9.2999999999999992E-003     0.0000000000000000     
  -8.9999999999999993E-003     0.0000000000000000     
  -8.6999999999999994E-003     3.8660872261177488E-044
  -8.3999999999999995E-003    -6.3700096307894840E-038
  -8.0999999999999996E-003     3.0729448750151978E-036
  -7.7999999999999988E-003    -4.2670830443683008E-035
  -7.4999999999999997E-003     1.5918300553459979E-034
  -7.1999999999999998E-003    -1.4899164207885455E-034
  -6.8999999999999981E-003    -8.2464223429782719E-034
  -6.5999999999999982E-003     3.5377175344895922E-033
  -6.3000000000000000E-003    -1.9757877443205869E-032
  -6.0000000000000001E-003     1.7510994167283824E-031
  -5.6999999999999985E-003    -1.4898518063387239E-030
  -5.3999999999999986E-003     1.0288525685866729E-029
  -5.1000000000000004E-003    -5.5647708053403870E-029
  -4.7999999999999987E-003     2.3063283481410767E-028
  -4.5000000000000005E-003    -7.0356950647428279E-028
  -4.1999999999999989E-003     1.4206091170749077E-027
  -3.8999999999999990E-003    -1.1270692723264970E-027
  -3.5999999999999990E-003    -3.2019584406777741E-027
  -3.2999999999999991E-003     1.1243676775433609E-026
  -2.9999999999999992E-003    -1.7138040411112526E-027
  -2.6999999999999993E-003    -8.7994477501599745E-026
  -2.3999999999999994E-003     3.3153552933716228E-025
  -2.0999999999999977E-003    -6.4279482864287750E-025
  -1.7999999999999995E-003     4.5490550726281682E-025
  -1.4999999999999979E-003     1.4056505055676892E-024
  -1.1999999999999997E-003    -5.6501019607463270E-024
  -8.9999999999999976E-004     8.6511853213449656E-024
  -5.9999999999999810E-004     5.8112190368694329E-024
  -2.9999999999999992E-004    -7.9255395433072209E-023
   0.0000000000000000          2.9048040514677704E-022
   3.0000000000000165E-004    -7.4682693360889204E-022
   5.9999999999999984E-004     1.5027853975207183E-021
   9.0000000000000149E-004    -2.3054879342724308E-021
   1.2000000000000031E-003     2.0252519623654305E-021
   1.5000000000000013E-003     2.3442739231747746E-021
   1.8000000000000030E-003    -1.7040378390009230E-020
   2.1000000000000012E-003     5.2716206804009508E-020
   2.3999999999999994E-003    -1.2429115688800216E-019
   2.7000000000000010E-003     2.4807069231346536E-019
   2.9999999999999992E-003    -4.3710415453263143E-019
   3.3000000000000008E-003     7.0715837429388849E-019
   3.6000000000000025E-003    -1.1413148486556121E-018
   3.9000000000000007E-003     2.1405868843165167E-018
   4.2000000000000023E-003    -5.0698201914237439E-018
   4.5000000000000005E-003     1.3224524271373854E-017
   4.7999999999999987E-003    -3.1037006459015554E-017
   5.1000000000000004E-003     5.2361853716932690E-017
   5.4000000000000020E-003    -1.0084070701576507E-017
   5.7000000000000037E-003    -3.8814520855011269E-016
   5.9999999999999984E-003     2.1820089600100776E-015
   6.3000000000000000E-003    -9.0483012147638518E-015
   6.6000000000000017E-003     3.4646619401871915E-014
   6.9000000000000034E-003    -1.2820067673220217E-013
   7.2000000000000015E-003     4.3970310185341924E-013
   7.5000000000000032E-003    -1.2765810067128439E-012
   7.8000000000000014E-003     2.6192790225619065E-012
   8.0999999999999996E-003    -9.9314873819827710E-013
   8.4000000000000012E-003    -2.0015971366709909E-011
   8.7000000000000029E-003     9.8883351072077728E-011
   9.0000000000000011E-003    -2.4305982814339441E-010
   9.2999999999999992E-003     1.6921881852136875E-010
   9.6000000000000009E-003     1.0379826262252619E-009
   9.8999999999999991E-003    -3.8189295687395692E-009
   1.0200000000000001E-002     3.2672570636181429E-009
   1.0500000000000002E-002     1.2743568812528403E-008
   1.0800000000000004E-002    -3.4754921170968168E-008
   1.1099999999999999E-002    -1.2857924170922901E-008
   1.1400000000000000E-002     1.4752558857183783E-007
   1.1700000000000002E-002    -3.1485945542985998E-008
   1.2000000000000004E-002    -5.3652349118553913E-007
   1.2300000000000002E-002    -2.4166304184237009E-008
   1.2600000000000000E-002     1.5708683349757836E-006
   1.2900000000000002E-002     9.2281690638706568E-007
   1.3200000000000000E-002    -3.5134869403315342E-006
   1.3500000000000002E-002    -4.6108416366475480E-006
   1.3800000000000003E-002     7.5747017723466768E-006
   1.4100000000000001E-002     3.0546485791885067E-005
   1.4400000000000000E-002     4.9388575978447597E-005
   1.4700000000000001E-002     5.9174637684403484E-005
   1.4999999999999999E-002     7.9838427064937549E-005
   1.5300000000000001E-002     1.3820165625878238E-004
   1.5600000000000003E-002     2.3967511295168727E-004
   1.5899999999999997E-002     3.7295524468671334E-004
   1.6199999999999999E-002     5.4649549753408113E-004
   1.6500000000000001E-002     8.0693850305497028E-004
   1.6800000000000002E-002     1.2131642059258201E-003
   1.7100000000000004E-002     1.8056431704613445E-003
   1.7400000000000006E-002     2.6202206735550862E-003
   1.7700000000000000E-002     3.7292623405742941E-003
   1.8000000000000002E-002     5.2505364557561759E-003
   1.8300000000000004E-002     7.3128705298041901E-003
   1.8600000000000005E-002     1.0032196763956983E-002
   1.8900000000000000E-002     1.3529748683796519E-002
   1.9200000000000002E-002     1.7954547674828274E-002
   1.9500000000000003E-002     2.3464426826026109E-002
   1.9799999999999998E-002     3.0179267844017942E-002
   2.0100000000000000E-002     3.8150751698981862E-002
   2.0400000000000001E-002     4.7356226784876151E-002
   2.0700000000000003E-002     5.7682604484464516E-002
   2.0999999999999998E-002     6.8879906671510949E-002
   2.1299999999999999E-002     8.0506969612839277E-002
   2.1600000000000001E-002     9.1903966222006445E-002
   2.1900000000000003E-002    0.10219339697673331     
   2.2200000000000004E-002    0.11028482475948943     
   2.2500000000000006E-002    0.11487989654981524     
   2.2800000000000001E-002    0.11450992414883361     
   2.3100000000000002E-002    0.10762202033024944     
   2.3400000000000004E-002     9.2707688399551735E-002
   2.3699999999999999E-002     6.8444852603168571E-002
   2.4000000000000000E-002     3.3845707447402770E-002
   2.4300000000000002E-002    -1.1577042153064343E-002
   2.4599999999999997E-002    -6.7645335846591728E-002
   2.4900000000000005E-002   -0.13336536228925261     
   2.5200000000000000E-002   -0.20683458148065878     
   2.5499999999999995E-002   -0.28522662335076610     
   2.5800000000000003E-002   -0.36486555046475855     
   2.6099999999999998E-002   -0.44137377437950098     
   2.6400000000000007E-002   -0.50990364947590405     
   2.6700000000000002E-002   -0.56545923371692119     
   2.6999999999999996E-002   -0.60328482150721763     
   2.7300000000000005E-002   -0.61928509681691124     
   2.7600000000000000E-002   -0.61042308359375619     
   2.7900000000000008E-002   -0.57505363376682617     
   2.8200000000000003E-002   -0.51320112529760009     
   2.8499999999999998E-002   -0.42667259181696132     
   2.8800000000000006E-002   -0.31901599941415848     
   2.9100000000000001E-002   -0.19535661701317883     
   2.9400000000000003E-002    -6.2036337530514858E-002
   2.9700000000000004E-002     7.3767676358229992E-002
   3.0000000000000006E-002    0.20451772086430678     
   3.0300000000000001E-002    0.32294094533043982     
   3.0600000000000002E-002    0.42262405381293405     
   3.0900000000000004E-002    0.49845258016417260     
   3.1199999999999999E-002    0.54685733840023221     
   3.1500000000000007E-002    0.56606786166353840     
   3.1800000000000002E-002    0.55628376556524106     
   3.2099999999999997E-002    0.51959371569248569     
   3.2400000000000005E-002    0.45976642395871226     
   3.2700000000000000E-002    0.38194326749004126     
   3.3000000000000002E-002    0.29228340258757590     
   3.3300000000000003E-002    0.19760530238203811     
   3.3599999999999998E-002    0.10501989769215020     
   3.3900000000000000E-002     2.1510511443840932E-002
   3.4200000000000001E-002    -4.6536581882729848E-002
   3.4500000000000003E-002    -9.3633137387034285E-002
   3.4799999999999998E-002   -0.11538559416790406     
   3.5099999999999999E-002   -0.10884921069233733     
   3.5400000000000001E-002    -7.2915347780415071E-002
   3.5699999999999996E-002    -8.3988183551589393E-003
   3.6000000000000004E-002     8.1966313712328764E-002
   3.6299999999999999E-002    0.19335737636505401     
   3.6600000000000008E-002    0.31896906454393603     
   3.6900000000000002E-002    0.45037864616643197     
   3.7199999999999997E-002    0.57789044251230337     
   3.7500000000000006E-002    0.69110493337365975     
   3.7800000000000000E-002    0.77972982721095063     
   3.8100000000000009E-002    0.83443133465110686     
   3.8400000000000004E-002    0.84761934050592269     
   3.8699999999999998E-002    0.81418954123154297     
   3.9000000000000007E-002    0.73235910199706522     
   3.9300000000000002E-002    0.60418003149329680     
   3.9600000000000003E-002    0.43561681705484157     
   3.9900000000000005E-002    0.23646546668523996     
   4.0200000000000000E-002     1.9789701346352478E-002
   4.0500000000000001E-002   -0.19892247308350017     
   4.0800000000000003E-002   -0.40274209345407896     
   4.1100000000000005E-002   -0.57475400981657154     
   4.1399999999999999E-002   -0.69951857751739255     
   4.1700000000000008E-002   -0.76434882832556628     
   4.2000000000000003E-002   -0.76040884999705394     
   4.2299999999999997E-002   -0.68366364588049733     
   4.2600000000000006E-002   -0.53552125575163445     
   4.2900000000000001E-002   -0.32281794417850179     
   4.3200000000000002E-002    -5.7385355441026700E-002
   4.3500000000000004E-002    0.24461889505376638     
   4.3799999999999999E-002    0.56374389356937060     
   4.4100000000000000E-002    0.87855339973387991     
   4.4400000000000002E-002     1.1670019203483826     
   4.4700000000000004E-002     1.4077684564794746     
   4.4999999999999998E-002     1.5815383013685222     
   4.5300000000000000E-002     1.6721055475728570     
   4.5600000000000002E-002     1.6672095190034000     
   4.5899999999999996E-002     1.5592277345599024     
   4.6200000000000005E-002     1.3455231648501942     
   4.6500000000000000E-002     1.0285546200757214     
   4.6799999999999994E-002    0.61602349663617395     
   4.7100000000000003E-002    0.12071175677780956     
   4.7399999999999998E-002   -0.43993910364580763     
   4.7700000000000006E-002    -1.0443546919978157     
   4.8000000000000001E-002    -1.6673131093754046     
   4.8300000000000010E-002    -2.2807325217151257     
   4.8600000000000004E-002    -2.8549879902032798     
   4.8899999999999999E-002    -3.3601597713614528     
   4.9200000000000008E-002    -3.7674438013885481     
   4.9500000000000002E-002    -4.0508026255543603     
   4.9800000000000011E-002    -4.1885818761653377     
   5.0100000000000006E-002    -4.1649589038950854     
   5.0400000000000000E-002    -3.9713637524104346     
   5.0700000000000009E-002    -3.6076421641224505     
   5.1000000000000004E-002    -3.0822625276680622     
   5.1299999999999998E-002    -2.4120755520744401     
   5.1600000000000007E-002    -1.6218939347582961     
   5.1900000000000002E-002   -0.74336452246604390     
   5.2200000000000010E-002    0.18675888216608461     
   5.2500000000000005E-002     1.1286862156423054     
   5.2800000000000000E-002     2.0415276489677665     
   5.3099999999999994E-002     2.8853050655537320     
   5.3400000000000003E-002     3.6230234119623783     
   5.3699999999999998E-002     4.2223605193551572     
   5.4000000000000006E-002     4.6568497789704777     
   5.4300000000000001E-002     4.9068812618175137     
   5.4599999999999996E-002     4.9601678270964369     
   5.4900000000000004E-002     4.8122672589398698     
   5.5199999999999999E-002     4.4667496362880943     
   5.5499999999999994E-002     3.9347901141603536     
   5.5800000000000002E-002     3.2350401776931039     
   5.6099999999999997E-002     2.3934140189908089     
   5.6400000000000006E-002     1.4425290879137127     
   5.6700000000000000E-002    0.42054222207503578     
   5.6999999999999995E-002   -0.63018129509097975     
   5.7300000000000004E-002    -1.6641340020967545     
   5.7599999999999998E-002    -2.6346213515063313     
   5.7900000000000007E-002    -3.4964613532316520     
   5.8200000000000002E-002    -4.2087182522012148     
   5.8499999999999996E-002    -4.7371854196424135     
   5.8800000000000005E-002    -5.0567406902747178     
   5.9100000000000000E-002    -5.1536716586244982     
   5.9400000000000008E-002    -5.0271352775375071     
   5.9700000000000003E-002    -4.6897300626776177     
   6.0000000000000012E-002    -4.1670988870554080     
   6.0300000000000006E-002    -3.4962433616006456     
   6.0600000000000001E-002    -2.7230440433994376     
   6.0900000000000010E-002    -1.8989485630469969     
   6.1200000000000004E-002    -1.0771657487378821     
   6.1500000000000013E-002   -0.30866627379013617     
   6.1800000000000008E-002    0.36193495138107779     
   6.2100000000000002E-002    0.89944096795907991     
   6.2399999999999997E-002     1.2803496065246167     
   6.2700000000000006E-002     1.4943966511188482     
   6.3000000000000000E-002     1.5448558888194766     
   6.3300000000000009E-002     1.4474714116997638     
   6.3600000000000004E-002     1.2285105116949688     
   6.3899999999999998E-002    0.92234379139197875     
   6.4199999999999993E-002    0.56872909935572968     
   6.4500000000000002E-002    0.20954087425200493     
   6.4800000000000010E-002   -0.11418730350898067     
   6.5100000000000005E-002   -0.36450266938178116     
   6.5400000000000000E-002   -0.50853229512423404     
   6.5700000000000008E-002   -0.52001278212773838     
   6.5999999999999989E-002   -0.38012360872717732     
   6.6299999999999998E-002    -7.7724430998344640E-002
   6.6600000000000006E-002    0.39036429890656110     
   6.6900000000000001E-002     1.0193036953771042     
   6.7199999999999996E-002     1.7965374131122147     
   6.7500000000000004E-002     2.7019970447704789     
   6.7800000000000013E-002     3.7081928095931667     
   6.8099999999999994E-002     4.7802714891626312     
   6.8400000000000002E-002     5.8768710385096785     
   6.8700000000000011E-002     6.9513701375904411     
   6.8999999999999992E-002     7.9528030032609065     
   6.9300000000000000E-002     8.8274772976289952     
   6.9600000000000009E-002     9.5216396473348830     
   6.9900000000000004E-002     9.9844625511501484     
   7.0199999999999999E-002     10.170944026682292     
   7.0500000000000007E-002     10.044444861034913     
   7.0800000000000016E-002     9.5797747007293772     
   7.1099999999999997E-002     8.7659176527416012     
   7.1400000000000005E-002     7.6071986284802096     
   7.1700000000000000E-002     6.1236266668503871     
   7.1999999999999995E-002     4.3506984773376631     
   7.2300000000000003E-002     2.3381348215954443     
   7.2600000000000012E-002    0.14725382640519064     
   7.2900000000000006E-002    -2.1524375374602798     
   7.3200000000000001E-002    -4.4865782755139811     
   7.3499999999999996E-002    -6.7796008757936361     
   7.3800000000000004E-002    -8.9585492543961394     
   7.4099999999999999E-002    -10.956071594136105     
   7.4400000000000008E-002    -12.712959025526510     
   7.4700000000000003E-002    -14.179697731748718     
   7.5000000000000011E-002    -15.317617172419677     
   7.5299999999999992E-002    -16.098527687519688     
   7.5600000000000001E-002    -16.504100609118819     
   7.5900000000000009E-002    -16.525176847415661     
   7.6200000000000004E-002    -16.160220984868442     
   7.6499999999999999E-002    -15.414447710624804     
   7.6800000000000007E-002    -14.299247708569451     
   7.7099999999999988E-002    -12.831851964251696     
   7.7399999999999997E-002    -11.035600701204467     
   7.7700000000000005E-002    -8.9410906510522405     
   7.8000000000000014E-002    -6.5875159196872435     
   7.8299999999999995E-002    -4.0230909422068537     
   7.8600000000000003E-002    -1.3061818981718536     
   7.8900000000000012E-002     1.4939648006692208     
   7.9199999999999993E-002     4.2981237325526891     
   7.9500000000000001E-002     7.0193113346425688     
   7.9800000000000010E-002     9.5655421412894928     
   8.0100000000000018E-002     11.843292171830415     
   8.0399999999999999E-002     13.762498806549525     
   8.0700000000000008E-002     15.242138827768111     
   8.1000000000000003E-002     16.215011573739325     
   8.1299999999999997E-002     16.632516846878261     
   8.1600000000000006E-002     16.468978873029400     
   8.1900000000000014E-002     15.724004738256799     
   8.2199999999999995E-002     14.423635473650886     
   8.2500000000000004E-002     12.620199189293745     
   8.2799999999999999E-002     10.390324570761788     
   8.3100000000000007E-002     7.8314933464082408     
   8.3400000000000002E-002     5.0575093805449791     
   8.3700000000000011E-002     2.1930663061184665     
   8.4000000000000005E-002   -0.63291067163773285     
   8.4300000000000000E-002    -3.2939413299081557     
   8.4599999999999995E-002    -5.6718645855481071     
   8.4900000000000003E-002    -7.6632161920280071     
   8.5199999999999998E-002    -9.1857319633942325     
   8.5500000000000007E-002    -10.182269164254622     
   8.5800000000000001E-002    -10.623180443984221     
   8.6100000000000010E-002    -10.508805310626331     
   8.6399999999999991E-002    -9.8701839560059046     
   8.6699999999999999E-002    -8.7670078097618696     
   8.7000000000000008E-002    -7.2835759605364894     
   8.7300000000000003E-002    -5.5233224960837841     
   8.7599999999999997E-002    -3.6034330111762456     
   8.7900000000000006E-002    -1.6476484194085312     
   8.8200000000000014E-002    0.22266441836075862     
   8.8499999999999995E-002     1.8961579435475253     
   8.8800000000000004E-002     3.2783026443451795     
   8.9100000000000013E-002     4.2972228276866575     
   8.9399999999999993E-002     4.9077102771001728     
   8.9700000000000002E-002     5.0943443172161738     
   9.0000000000000011E-002     4.8719588757880929     
   9.0299999999999991E-002     4.2829762490808445     
   9.0600000000000000E-002     3.3936052791178866     
   9.0900000000000009E-002     2.2886943730859488     
   9.1200000000000017E-002     1.0652734590324573     
   9.1499999999999998E-002   -0.17514598077193716     
   9.1800000000000007E-002    -1.3346771416927907     
   9.2100000000000001E-002    -2.3254832780061667     
   9.2399999999999996E-002    -3.0758785962850319     
   9.2700000000000005E-002    -3.5360932165375223     
   9.3000000000000013E-002    -3.6809861375418595     
   9.3300000000000008E-002    -3.5101870963298913     
   9.3600000000000003E-002    -3.0479394500300216     
   9.3899999999999997E-002    -2.3408430668215434     
   9.4200000000000006E-002    -1.4523748709203796     
   9.4500000000000001E-002   -0.45698389958077679     
   9.4800000000000009E-002    0.56596068494622431     
   9.5100000000000004E-002     1.5389436042377056     
   9.5399999999999999E-002     2.3929422888334253     
   9.5699999999999993E-002     3.0727623585592587     
   9.6000000000000002E-002     3.5405601084977860     
   9.6300000000000011E-002     3.7784353110480731     
   9.6600000000000005E-002     3.7890661243472139     
   9.6900000000000000E-002     3.5936172075508446     
   9.7200000000000009E-002     3.2287413685333286     
   9.7499999999999989E-002     2.7424997445029149     
   9.7799999999999998E-002     2.1887768462982664     
   9.8100000000000007E-002     1.6218806156533772     
   9.8400000000000015E-002     1.0916982358428930     
   9.8699999999999996E-002    0.63898492070332724     
   9.9000000000000005E-002    0.29211915691169121     
   9.9300000000000013E-002     6.5699059269099400E-002
   9.9599999999999994E-002    -3.9577486559513222E-002
   9.9900000000000003E-002    -3.6079476236355837E-002
  0.10020000000000001          5.3065411117087416E-002
  0.10049999999999999         0.19777995241062132     
  0.10080000000000000         0.36457896242315208     
  0.10110000000000001         0.52003180272063976     
  0.10140000000000000         0.63449782722242420     
  0.10170000000000000         0.68505413249402847     
  0.10200000000000001         0.65665209669036495     
  0.10230000000000002         0.54321914122596837     
  0.10260000000000000         0.34800139729361090     
  0.10290000000000001          8.1472372559755687E-002
  0.10320000000000000        -0.24026104141109705     
  0.10350000000000001        -0.59683293370040469     
  0.10380000000000000        -0.96658391383997233     
  0.10410000000000001         -1.3291120564440639     
  0.10440000000000001         -1.6667518564588411     
  0.10470000000000000         -1.9655443245388833     
  0.10500000000000000         -2.2165591368404391     
  0.10530000000000000         -2.4165956448404415     
  0.10560000000000000         -2.5668503538557621     
  0.10590000000000001         -2.6717726329766700     
  0.10620000000000000         -2.7387463065503304     
  0.10650000000000001         -2.7764383670589918     
  0.10679999999999999         -2.7928787522843659     
  0.10710000000000000         -2.7947992104570876     
  0.10740000000000001         -2.7869094616248677     
  0.10770000000000000         -2.7712310563633169     
  0.10800000000000000         -2.7472153930178211     
  0.10830000000000001         -2.7124544436218754     
  0.10859999999999999         -2.6633507100601332     
  0.10890000000000000         -2.5959912665271001     
  0.10920000000000001         -2.5074480942743471     
  0.10950000000000001         -2.3962317921229079     
  0.10979999999999999         -2.2621563931940671     
  0.11009999999999999         -2.1062499580164360     
  0.11040000000000001         -1.9310636838656423     
  0.11070000000000001         -1.7391115748642672     
  0.11100000000000000         -1.5310432025450367     
  0.11130000000000000         -1.3061820546012111     
  0.11160000000000002         -1.0622505190909679     
  0.11190000000000001        -0.79480769371029447     
  0.11220000000000001        -0.49807312187519798     
  0.11250000000000000        -0.16651767002574916     
  0.11280000000000000         0.20290433859501220     
  0.11309999999999999         0.60963959334238671     
  0.11340000000000001          1.0486697408542451     
  0.11369999999999998          1.5092647246110231     
  0.11400000000000000          1.9758759603491711     
  0.11430000000000000          2.4298855828567327     
  0.11460000000000002          2.8518893035568058     
  0.11489999999999999          3.2250448795889799     
  0.11520000000000001          3.5381053933881415     
  0.11550000000000001          3.7880770232586447     
  0.11580000000000000          3.9816495543940977     
  0.11609999999999999          4.1347746166039450     
  0.11640000000000002          4.2710346631471614     
  0.11670000000000001          4.4184107304337008     
  0.11700000000000001          4.6040558272596597     
  0.11730000000000000          4.8485945863469784     
  0.11760000000000000          5.1620157896603889     
  0.11789999999999999          5.5403535825035179     
  0.11820000000000001          5.9626547901508822     
  0.11850000000000001          6.3920785040747328     
  0.11880000000000000          6.7801408852591551     
  0.11910000000000000          7.0719203174925793     
  0.11940000000000002          7.2126205929066014     
  0.11970000000000001          7.1558635850891967     
  0.12000000000000001          6.8717048797336355     
  0.12030000000000000          6.3511322557591301     
  0.12060000000000000          5.6084970775276970     
  0.12089999999999999          4.6826267552352014     
  0.12119999999999999          3.6320342016307072     
  0.12150000000000001          2.5259759454454276     
  0.12180000000000001          1.4358487986036870     
  0.12210000000000000         0.42493890244275601     
  0.12239999999999999        -0.46400545022145884     
  0.12270000000000002         -1.2181238146709925     
  0.12300000000000001         -1.8586258726979124     
  0.12330000000000001         -2.4421909789391996     
  0.12360000000000000         -3.0574962800658669     
  0.12390000000000000         -3.8159580886565059     
  0.12419999999999999         -4.8369628093109780     
  0.12450000000000001         -6.2309017911418803     
  0.12480000000000001         -8.0814680364373483     
  0.12509999999999999         -10.426610137048542     
  0.12540000000000001         -13.242858640577126     
  0.12570000000000003         -16.438014230792941     
  0.12600000000000000         -19.848496037189815     
  0.12630000000000002         -23.243410009579257     
  0.12659999999999999         -26.339289859379736     
  0.12690000000000001         -28.821861810538092     
  0.12719999999999998         -30.373569542537901     
  0.12750000000000000         -30.703654980109523     
  0.12780000000000002         -29.578242897350169     
  0.12809999999999999         -26.849874297944968     
  0.12840000000000001         -22.477991335596361     
  0.12869999999999998         -16.540846796727152     
  0.12900000000000000         -9.2401065313989772     
  0.12930000000000003        -0.89236592565105255     
  0.12959999999999999          8.0910106503089416     
  0.12990000000000002          17.231920470868339     
  0.13019999999999998          26.018816888571159     
  0.13050000000000000          33.944762958913302     
  0.13080000000000003          40.545641706172667     
  0.13109999999999999          45.434385396024680     
  0.13140000000000002          48.328286856294952     
  0.13169999999999998          49.066888497301875     
  0.13200000000000001          47.623048746683473     
  0.13229999999999997          44.101553500632676     
  0.13260000000000000          38.726886207445162     
  0.13290000000000002          31.823856838879767     
  0.13319999999999999          23.793229793559593     
  0.13350000000000001          15.083169939242334     
  0.13380000000000003          6.1572568590147725     
  0.13410000000000000         -2.5349393345454927     
  0.13440000000000002         -10.583221917782490     
  0.13469999999999999         -17.638582853068534     
  0.13500000000000001         -23.429862999931821     
  0.13529999999999998         -27.773479115439031     
  0.13560000000000000         -30.576800815405882     
  0.13590000000000002         -31.836593225100010     
  0.13619999999999999         -31.630882139245518     
  0.13650000000000001         -30.107181868854909     
  0.13680000000000003         -27.469090397373321     
  0.13710000000000000         -23.959001175775402     
  0.13740000000000002         -19.840141623649924     
  0.13769999999999999         -15.380137508415952     
  0.13800000000000001         -10.834702255970045     
  0.13829999999999998         -6.4345086718837212     
  0.13860000000000000         -2.3741773422979131     
  0.13890000000000002          1.1942824990927861     
  0.13919999999999999          4.1648754426877543     
  0.13950000000000001          6.4797604248648808     
  0.13979999999999998          8.1251861693496839     
  0.14010000000000000          9.1248590997703030     
  0.14040000000000002          9.5343297750577545     
  0.14069999999999999          9.4328294386863565     
  0.14100000000000001          8.9143045285607272     
  0.14130000000000004          8.0790338810904156     
  0.14160000000000000          7.0269654094530232     
  0.14189999999999997          5.8520283910199087     
  0.14219999999999999          4.6379434991423958     
  0.14250000000000002          3.4551584096529240     
  0.14279999999999998          2.3593691286119238     
  0.14310000000000000          1.3912882489214542     
  0.14339999999999997         0.57761853220770554     
  0.14369999999999999         -6.8361073483878168E-002
  0.14400000000000002        -0.54510395851044202     
  0.14429999999999998        -0.86041092147714437     
  0.14460000000000001         -1.0297283078623372     
  0.14490000000000003         -1.0739903965735975     
  0.14520000000000000         -1.0182410275894176     
  0.14550000000000002        -0.88842293918096193     
  0.14579999999999999        -0.70983257692365331     
  0.14610000000000001        -0.50673898134727080     
  0.14640000000000003        -0.30003330925471222     
  0.14670000000000000        -0.10598757461685411     
  0.14699999999999996          6.3298637366312541E-002
  0.14729999999999999         0.20015160908906848     
  0.14760000000000001         0.30126521206040840     
  0.14789999999999998         0.36710372079357056     
  0.14820000000000000         0.40070330518508263     