  -1.4999999999999999E-002     0.0000000000000000     
  -1.4700000000000000E-002     0.0000000000000000     
  -1.4400000000000000E-002     0.0000000000000000     
  -1.4100000000000000E-002     0.0000000000000000     
  -1.3800000000000000E-002     0.0000000000000000     
  -1.3500000000000000E-002     0.0000000000000000     
  -1.3200000000000000E-002     0.0000000000000000     
  -1.2899999999999998E-002     0.0000000000000000     
  -1.2600000000000000E-002     0.0000000000000000     
  -1.2299999999999998E-002     0.0000000000000000     
  -1.2000000000000000E-002     0.0000000000000000     
  -1.1699999999999999E-002     0.0000000000000000     
  -1.1399999999999999E-002     0.0000000000000000     
  -1.1099999999999999E-002     0.0000000000000000     
  -1.0799999999999999E-002     0.0000000000000000     
  -1.0499999999999999E-002     0.0000000000000000     
  -1.0199999999999999E-002     0.0000000000000000     
  -9.8999999999999991E-003     0.0000000000000000     
  -9.5999999999999992E-003     0.0000000000000000     
  -9.2999999999999992E-003     0.0000000000000000     
  -8.9999999999999993E-003     0.0000000000000000     
  -8.6999999999999994E-003     0.0000000000000000     
  -8.3999999999999995E-003     0.0000000000000000     
  -8.0999999999999996E-003     0.0000000000000000     
  -7.7999999999999988E-003     0.0000000000000000     
  -7.4999999999999997E-003     0.0000000000000000     
  -7.1999999999999998E-003     0.0000000000000000     
  -6.8999999999999981E-003     0.0000000000000000     
  -6.5999999999999982E-003     0.0000000000000000     
  -6.3000000000000000E-003     0.0000000000000000     
  -6.0000000000000001E-003     0.0000000000000000     
  -5.6999999999999985E-003     0.0000000000000000     
  -5.3999999999999986E-003     0.0000000000000000     
  -5.1000000000000004E-003     0.0000000000000000     
  -4.7999999999999987E-003     0.0000000000000000     
  -4.5000000000000005E-003     0.0000000000000000     
  -4.1999999999999989E-003     0.0000000000000000     
  -3.8999999999999990E-003     0.0000000000000000     
  -3.5999999999999990E-003     0.0000000000000000     
  -3.2999999999999991E-003     0.0000000000000000     
  -2.9999999999999992E-003     0.0000000000000000     
  -2.6999999999999993E-003     0.0000000000000000     
  -2.3999999999999994E-003     0.0000000000000000     
  -2.0999999999999977E-003     0.0000000000000000     
  -1.7999999999999995E-003     0.0000000000000000     
  -1.4999999999999979E-003     0.0000000000000000     
  -1.1999999999999997E-003     0.0000000000000000     
  -8.9999999999999976E-004     0.0000000000000000     
  -5.9999999999999810E-004     0.0000000000000000     
  -2.9999999999999992E-004     0.0000000000000000     
   0.0000000000000000          0.0000000000000000     
   3.0000000000000165E-004     0.0000000000000000     
   5.9999999999999984E-004     0.0000000000000000     
   9.0000000000000149E-004     0.0000000000000000     
   1.2000000000000031E-003     0.0000000000000000     
   1.5000000000000013E-003     0.0000000000000000     
   1.8000000000000030E-003     0.0000000000000000     
   2.1000000000000012E-003     0.0000000000000000     
   2.3999999999999994E-003     0.0000000000000000     
   2.7000000000000010E-003     0.0000000000000000     
   2.9999999999999992E-003     0.0000000000000000     
   3.3000000000000008E-003     0.0000000000000000     
   3.6000000000000025E-003     0.0000000000000000     
   3.9000000000000007E-003     0.0000000000000000     
   4.2000000000000023E-003     0.0000000000000000     
   4.5000000000000005E-003     0.0000000000000000     
   4.7999999999999987E-003     0.0000000000000000     
   5.1000000000000004E-003     0.0000000000000000     
   5.4000000000000020E-003     0.0000000000000000     
   5.7000000000000037E-003     0.0000000000000000     
   5.9999999999999984E-003     0.0000000000000000     
   6.3000000000000000E-003     0.0000000000000000     
   6.6000000000000017E-003     0.0000000000000000     
   6.9000000000000034E-003     0.0000000000000000     
   7.2000000000000015E-003     0.0000000000000000     
   7.5000000000000032E-003     0.0000000000000000     
   7.8000000000000014E-003     0.0000000000000000     
   8.0999999999999996E-003     0.0000000000000000     
   8.4000000000000012E-003     0.0000000000000000     
   8.7000000000000029E-003     0.0000000000000000     
   9.0000000000000011E-003     0.0000000000000000     
   9.2999999999999992E-003     0.0000000000000000     
   9.6000000000000009E-003     1.0800102911193108E-045
   9.8999999999999991E-003    -8.9919692827184453E-043
   1.0200000000000001E-002     1.4958560232833177E-036
   1.0500000000000002E-002    -6.0534814462989159E-035
   1.0800000000000004E-002    -7.4013974410062840E-035
   1.1099999999999999E-002     4.2307974357800037E-033
   1.1400000000000000E-002     4.2013916764586362E-033
   1.1700000000000002E-002    -2.1388472180769164E-031
   1.2000000000000004E-002     4.3823815101933351E-031
   1.2300000000000002E-002     6.4750226435785736E-030
   1.2600000000000000E-002    -3.8207132666434205E-029
   1.2900000000000002E-002    -3.6626549879231315E-029
   1.3200000000000000E-002     1.1223235098497925E-027
   1.3500000000000002E-002    -3.9091319247321283E-027
   1.3800000000000003E-002    -5.4231970155640123E-027
   1.4100000000000001E-002     9.0402239572093476E-026
   1.4400000000000000E-002    -2.9573002377100452E-025
   1.4700000000000001E-002     5.4311174422570183E-027
   1.4999999999999999E-002     3.4326475807222628E-024
   1.5300000000000001E-002    -1.3050286001906792E-023
   1.5600000000000003E-002     1.5631735036533624E-023
   1.5899999999999997E-002     5.3585729299616416E-023
   1.6199999999999999E-002    -2.8309855242448161E-022
   1.6500000000000001E-002     4.0606393913984074E-022
   1.6800000000000002E-002     1.3627322779571175E-021
   1.7100000000000004E-002    -1.0262833028480989E-020
   1.7400000000000006E-002     3.6817477697679325E-020
   1.7700000000000000E-002    -1.0159912039899546E-019
   1.8000000000000002E-002     2.7663793045549335E-019
   1.8300000000000004E-002    -9.2575714710526428E-019
   1.8600000000000005E-002     3.7778975099759999E-018
   1.8900000000000000E-002    -1.6306945464503493E-017
   1.9200000000000002E-002     6.9953569641047944E-017
   1.9500000000000003E-002    -3.0022884065524262E-016
   1.9799999999999998E-002     1.3067311655949814E-015
   2.0100000000000000E-002    -5.7093219441329897E-015
   2.0400000000000001E-002     2.4220762310789681E-014
   2.0700000000000003E-002    -9.5479848018237419E-014
   2.0999999999999998E-002     3.3230476491883598E-013
   2.1299999999999999E-002    -9.4656618219893721E-013
   2.1600000000000001E-002     1.8267944300511242E-012
   2.1900000000000003E-002    -5.9591956179843856E-014
   2.2200000000000004E-002    -1.7333524071175384E-011
   2.2500000000000006E-002     7.9868445602091926E-011
   2.2800000000000001E-002    -1.9031635528984449E-010
   2.3100000000000002E-002     1.1573467707214054E-010
   2.3400000000000004E-002     9.0185932381047749E-010
   2.3699999999999999E-002    -3.3068307080822954E-009
   2.4000000000000000E-002     3.1647773513795895E-009
   2.4300000000000002E-002     1.0323451629524704E-008
   2.4599999999999997E-002    -3.3105951518138815E-008
   2.4900000000000005E-002     2.6855431673979488E-009
   2.5200000000000000E-002     1.2689940511894695E-007
   2.5499999999999995E-002    -1.0792953635070314E-007
   2.5800000000000003E-002    -3.7988421048958018E-007
   2.6099999999999998E-002     3.6249182362756693E-007
   2.6400000000000007E-002     1.1362645987418219E-006
   2.6700000000000002E-002    -5.0981007503141867E-007
   2.6999999999999996E-002    -3.4921363403853171E-006
   2.7300000000000005E-002    -1.5742903926170571E-006
   2.7600000000000000E-002     1.1282496650959194E-005
   2.7900000000000008E-002     3.4955810001960301E-005
   2.8200000000000003E-002     6.5232073863349073E-005
   2.8499999999999998E-002     1.0197977020914937E-004
   2.8800000000000006E-002     1.5347373656299807E-004
   2.9100000000000001E-002     2.3509002906082943E-004
   2.9400000000000003E-002     3.6705657385197992E-004
   2.9700000000000004E-002     5.7332304346509127E-004
   3.0000000000000006E-002     8.8381463608293743E-004
   3.0300000000000001E-002     1.3403185727332626E-003
   3.0600000000000002E-002     2.0020827428588240E-003
   3.0900000000000004E-002     2.9501150965779428E-003
   3.1199999999999999E-002     4.2909872241922841E-003
   3.1500000000000007E-002     6.1594996850984178E-003
   3.1800000000000002E-002     8.7206306836567684E-003
   3.2099999999999997E-002     1.2170956335927048E-002
   3.2400000000000005E-002     1.6738349387198353E-002
   3.2700000000000000E-002     2.2677708166928840E-002
   3.3000000000000002E-002     3.0258863830463039E-002
   3.3300000000000003E-002     3.9744659819722729E-002
   3.3599999999999998E-002     5.1363974242756683E-002
   3.3900000000000000E-002     6.5276830667876637E-002
   3.4200000000000001E-002     8.1525518590413820E-002
   3.4500000000000003E-002     9.9975227207065254E-002
   3.4799999999999998E-002    0.12025357650374779     
   3.5099999999999999E-002    0.14168721281604177     
   3.5400000000000001E-002    0.16324259161587748     
   3.5699999999999996E-002    0.18349337376943886     
   3.6000000000000004E-002    0.20059782047814112     
   3.6299999999999999E-002    0.21232265003440143     
   3.6600000000000008E-002    0.21610413258417130     
   3.6900000000000002E-002    0.20917376651987235     
   3.7199999999999997E-002    0.18875084617678820     
   3.7500000000000006E-002    0.15223553619159300     
   3.7800000000000000E-002     9.7536123330686550E-002
   3.8100000000000009E-002     2.3337975012396820E-002
   3.8400000000000004E-002    -7.0585667180285722E-002
   3.8699999999999998E-002   -0.18306536759013800     
   3.9000000000000007E-002   -0.31138935332535134     
   3.9300000000000002E-002   -0.45114889238135619     
   3.9600000000000003E-002   -0.59628742276186597     
   3.9900000000000005E-002   -0.73931579974102313     
   4.0200000000000000E-002   -0.87160574444651950     
   4.0500000000000001E-002   -0.98393993510093092     
   4.0800000000000003E-002    -1.0671293621301559     
   4.1100000000000005E-002    -1.1127010465552674     
   4.1399999999999999E-002    -1.1136650921456916     
   4.1700000000000008E-002    -1.0651802904894883     
   4.2000000000000003E-002   -0.96510057636959223     
   4.2299999999999997E-002   -0.81438564415346104     
   4.2600000000000006E-002   -0.61722260087534997     
   4.2900000000000001E-002   -0.38088771327636017     
   4.3200000000000002E-002   -0.11543190387230728     
   4.3500000000000004E-002    0.16697975788413172     
   4.3799999999999999E-002    0.45287253949148765     
   4.4100000000000000E-002    0.72835671112396527     
   4.4400000000000002E-002    0.98010217094748853     
   4.4700000000000004E-002     1.1962276570183308     
   4.4999999999999998E-002     1.3671004627929879     
   4.5300000000000000E-002     1.4858928762805597     
   4.5600000000000002E-002     1.5489516096194613     
   4.5899999999999996E-002     1.5558088855726206     
   4.6200000000000005E-002     1.5091254554490012     
   4.6500000000000000E-002     1.4142678829693272     
   4.6799999999999994E-002     1.2786185609706859     
   4.7100000000000003E-002     1.1111993675697920     
   4.7399999999999998E-002    0.92170559419326126     
   4.7700000000000006E-002    0.71987073885594521     
   4.8000000000000001E-002    0.51505219420553083     
   4.8300000000000010E-002    0.31539284873573825     
   4.8600000000000004E-002    0.12772840145726516     
   4.8899999999999999E-002    -4.2578227260362318E-002
   4.9200000000000008E-002   -0.19204589517726126     
   4.9500000000000002E-002   -0.31855344440202776     
   4.9800000000000011E-002   -0.42145603464574743     
   5.0100000000000006E-002   -0.50141971795744589     
   5.0400000000000000E-002   -0.55975937284044996     
   5.0700000000000009E-002   -0.59865050915742757     
   5.1000000000000004E-002   -0.62051891671178538     
   5.1299999999999998E-002   -0.62779706106616007     
   5.1600000000000007E-002   -0.62309872501789221     
   5.1900000000000002E-002   -0.60859548460101764     
   5.2200000000000010E-002   -0.58625471030887799     
   5.2500000000000005E-002   -0.55782001675810333     
   5.2800000000000000E-002   -0.52448057625602285     
   5.3099999999999994E-002   -0.48733403809219750     
   5.3400000000000003E-002   -0.44706925315223423     
   5.3699999999999998E-002   -0.40416737994955482     
   5.4000000000000006E-002   -0.35909586787608611     
   5.4300000000000001E-002   -0.31208491010254419     
   5.4599999999999996E-002   -0.26351412859019147     
   5.4900000000000004E-002   -0.21377822530418966     
   5.5199999999999999E-002   -0.16345302581593685     
   5.5499999999999994E-002   -0.11342416571656753     
   5.5800000000000002E-002    -6.4798011532808328E-002
   5.6099999999999997E-002    -1.9202433126114294E-002
   5.6400000000000006E-002     2.1445471789098874E-002
   5.6700000000000000E-002     5.4767600847526549E-002
   5.6999999999999995E-002     7.7952265173778665E-002
   5.7300000000000004E-002     8.8137327946795629E-002
   5.7599999999999998E-002     8.2252837108703528E-002
   5.7900000000000007E-002     5.7593982325206169E-002
   5.8200000000000002E-002     1.2040883424411331E-002
   5.8499999999999996E-002    -5.5739010768590093E-002
   5.8800000000000005E-002   -0.14546035052798226     
   5.9100000000000000E-002   -0.25536089844137688     
   5.9400000000000008E-002   -0.38165187412000567     
   5.9700000000000003E-002   -0.51831375989507378     
   6.0000000000000012E-002   -0.65757631548556916     
   6.0300000000000006E-002   -0.78964012020005836     
   6.0600000000000001E-002   -0.90350406407496142     
   6.0900000000000010E-002   -0.98765497361943588     
   6.1200000000000004E-002    -1.0306997191674114     
   6.1500000000000013E-002    -1.0227593077418784     
   6.1800000000000008E-002   -0.95604931323107556     
   6.2100000000000002E-002   -0.82605522027570111     
   6.2399999999999997E-002   -0.63224678593686390     
   6.2700000000000006E-002   -0.37838849054847046     
   6.3000000000000000E-002    -7.2841241429085699E-002
   6.3300000000000009E-002    0.27195292407431232     
   6.3600000000000004E-002    0.63998150143153421     
   6.3899999999999998E-002     1.0126695526671738     
   6.4199999999999993E-002     1.3702541447136103     
   6.4500000000000002E-002     1.6930610958431795     
   6.4800000000000010E-002     1.9630651271737170     
   6.5100000000000005E-002     2.1651110426780913     
   6.5400000000000000E-002     2.2880408529554952     
   6.5700000000000008E-002     2.3254189253579423     
   6.5999999999999989E-002     2.2758142715918876     
   6.6299999999999998E-002     2.1428651591200358     
   6.6600000000000006E-002     1.9347240727589088     
   6.6900000000000001E-002     1.6633772680295569     
   6.7199999999999996E-002     1.3436229091466330     
   6.7500000000000004E-002    0.99181257657456201     
   6.7800000000000013E-002    0.62476425710493588     
   6.8099999999999994E-002    0.25862177919695806     
   6.8400000000000002E-002    -9.2166229431853944E-002
   6.8700000000000011E-002   -0.41527929514739276     
   6.8999999999999992E-002   -0.70134436410073364     
   6.9300000000000000E-002   -0.94385199821314192     
   6.9600000000000009E-002    -1.1392239220798377     
   6.9900000000000004E-002    -1.2866031996989811     
   7.0199999999999999E-002    -1.3872479063265499     
   7.0500000000000007E-002    -1.4442548608365720     
   7.0800000000000016E-002    -1.4619355055523111     
   7.1099999999999997E-002    -1.4453000876777071     
   7.1400000000000005E-002    -1.3998126841291318     
   7.1700000000000000E-002    -1.3309090000509463     
   7.1999999999999995E-002    -1.2438323367927238     
   7.2300000000000003E-002    -1.1435903189336298     
   7.2600000000000012E-002    -1.0348520166680428     
   7.2900000000000006E-002   -0.92189716268133115     
   7.3200000000000001E-002   -0.80883990792315763     
   7.3499999999999996E-002   -0.69951956634503909     
   7.3800000000000004E-002   -0.59746085860244147     
   7.4099999999999999E-002   -0.50596761049603423     
   7.4400000000000008E-002   -0.42779844419116525     
   7.4700000000000003E-002   -0.36516093688001322     
   7.5000000000000011E-002   -0.31948166611022516     
   7.5299999999999992E-002   -0.29121082577409946     
   7.5600000000000001E-002   -0.27969449329979251     
   7.5900000000000009E-002   -0.28282007150102806     
   7.6200000000000004E-002   -0.29717462824241270     
   7.6499999999999999E-002   -0.31798672235497993     
   7.6800000000000007E-002   -0.33924459963897002     
   7.7099999999999988E-002   -0.35395445975517970     
   7.7399999999999997E-002   -0.35445993716576446     
   7.7700000000000005E-002   -0.33302014693081783     
   7.8000000000000014E-002   -0.28236975975550455     
   7.8299999999999995E-002   -0.19628400933409512     
   7.8600000000000003E-002    -7.0238590250848110E-002
   7.8900000000000012E-002     9.7906341495957949E-002
   7.9199999999999993E-002    0.30746048218872840     
   7.9500000000000001E-002    0.55450808238005855     
   7.9800000000000010E-002    0.83163880217723640     
   8.0100000000000018E-002     1.1282126761516156     
   8.0399999999999999E-002     1.4305186096185547     
   8.0700000000000008E-002     1.7225475104368415     
   8.1000000000000003E-002     1.9869397643972260     
   8.1299999999999997E-002     2.2058131438207340     
   8.1600000000000006E-002     2.3622994151681191     
   8.1900000000000014E-002     2.4415945729706001     
   8.2199999999999995E-002     2.4323057855457519     
   8.2500000000000004E-002     2.3276459912165723     
   8.2799999999999999E-002     2.1258010630544977     
   8.3100000000000007E-002     1.8307184974021640     
   8.3400000000000002E-002     1.4519810520717722     
   8.3700000000000011E-002     1.0041311873957437     
   8.4000000000000005E-002    0.50631945824857283     
   8.4300000000000000E-002    -1.9182826543177798E-002
   8.4599999999999995E-002   -0.54842393928477584     
   8.4900000000000003E-002    -1.0568127510468297     
   8.5199999999999998E-002    -1.5214296406805710     
   8.5500000000000007E-002    -1.9217611334811744     
   8.5800000000000001E-002    -2.2410568939770070     
   8.6100000000000010E-002    -2.4675771913939029     
   8.6399999999999991E-002    -2.5944742866525914     
   8.6699999999999999E-002    -2.6204733556186874     
   8.7000000000000008E-002    -2.5494420244335538     
   8.7300000000000003E-002    -2.3897154065737203     
   8.7599999999999997E-002    -2.1536855459332287     
   8.7900000000000006E-002    -1.8566288744023638     
   8.8200000000000014E-002    -1.5159323050567217     
   8.8499999999999995E-002    -1.1498905297323581     
   8.8800000000000004E-002   -0.77699302820278593     
   8.9100000000000013E-002   -0.41496395661930768     
   8.9399999999999993E-002    -7.9788937812933031E-002
   8.9700000000000002E-002    0.21452100301898872     
   9.0000000000000011E-002    0.45707880936664896     
   9.0299999999999991E-002    0.64025717293857154     
   9.0600000000000000E-002    0.76020293665904348     
   9.0900000000000009E-002    0.81777601658724708     
   9.1200000000000017E-002    0.81771736614465218     
   9.1499999999999998E-002    0.76948755360687082     
   9.1800000000000007E-002    0.68687515956246048     
   9.2100000000000001E-002    0.58646762011176912     
   9.2399999999999996E-002    0.48783224569831218     
   9.2700000000000005E-002    0.41108283210826446     
   9.3000000000000013E-002    0.37533911873498860     
   9.3300000000000008E-002    0.39740699249435857     
   9.3600000000000003E-002    0.48864534039332130     
   9.3899999999999997E-002    0.65441732871097991     
   9.4200000000000006E-002    0.89222900975630703     
   9.4500000000000001E-002     1.1906512825977467     
   9.4800000000000009E-002     1.5304779811405049     
   9.5100000000000004E-002     1.8848216293432878     
   9.5399999999999999E-002     2.2214035706554913     
   9.5699999999999993E-002     2.5052299184886984     
   9.6000000000000002E-002     2.7013103626158310     
   9.6300000000000011E-002     2.7785305634925148     
   9.6600000000000005E-002     2.7124900487592845     
   9.6900000000000000E-002     2.4885654149772298     
   9.7200000000000009E-002     2.1037404287065229     
   9.7499999999999989E-002     1.5675418194060666     
   9.7799999999999998E-002    0.90205829324292397     
   9.8100000000000007E-002    0.14017225719401413     
   9.8400000000000015E-002   -0.67628186036397531     
   9.8699999999999996E-002    -1.5002004910886546     
   9.9000000000000005E-002    -2.2831484987908288     
   9.9300000000000013E-002    -2.9786288371545027     
   9.9599999999999994E-002    -3.5466544193369818     
   9.9900000000000003E-002    -3.9561728947361701     
  0.10020000000000001         -4.1874289001707323     
  0.10049999999999999         -4.2334060153238982     
  0.10080000000000000         -4.0992855527759540     
  0.10110000000000001         -3.8018705385114102     
  0.10140000000000000         -3.3671352459313746     
  0.10170000000000000         -2.8274922036934940     
  0.10200000000000001         -2.2191748364383019     
  0.10230000000000002         -1.5783755609297436     
  0.10260000000000000        -0.93898510089217468     
  0.10290000000000001        -0.33007162787001298     
  0.10320000000000000         0.22612836213752216     
  0.10350000000000001         0.71405659690999745     
  0.10380000000000000          1.1259801189086058     
  0.10410000000000001          1.4603672974591999     
  0.10440000000000001          1.7205942589622529     
  0.10470000000000000          1.9141803675984044     
  0.10500000000000000          2.0496663729475006     
  0.10530000000000000          2.1357421552943570     
  0.10560000000000000          2.1799668947097066     
  0.10590000000000001          2.1868552854697820     
  0.10620000000000000          2.1585874268991678     
  0.10650000000000001          2.0942582820452746     
  0.10679999999999999          1.9907037979774473     
  0.10710000000000000          1.8439699216277643     
  0.10740000000000001          1.6497042026753719     
  0.10770000000000000          1.4053127660836613     
  0.10800000000000000          1.1107867902814581     
  0.10830000000000001         0.76973849546804507     
  0.10859999999999999         0.39025092691377533     
  0.10890000000000000         -1.5596738082081209E-002
  0.10920000000000001        -0.43163074402862023     
  0.10950000000000001        -0.83886478218071125     
  0.10979999999999999         -1.2167070852387976     
  0.11009999999999999         -1.5445815042063471     
  0.11040000000000001         -1.8039804393777137     
  0.11070000000000001         -1.9797529862416581     
  0.11100000000000000         -2.0617663552468333     
  0.11130000000000000         -2.0459646886768965     
  0.11160000000000002         -1.9344293807150403     
  0.11190000000000001         -1.7358298075709353     
  0.11220000000000001         -1.4644173204033584     
  0.11250000000000000         -1.1385784022487628     
  0.11280000000000000        -0.77981888547879497     
  0.11309999999999999        -0.41038367032722256     
  0.11340000000000001         -5.1583149366189122E-002
  0.11369999999999998         0.27755265430567655     
  0.11400000000000000         0.56214825808439861     
  0.11430000000000000         0.79213849768917355     
  0.11460000000000002         0.96252772917028151     
  0.11489999999999999          1.0734710438853752     
  0.11520000000000001          1.1295999015953535     
  0.11550000000000001          1.1387263255010234     
  0.11580000000000000          1.1107951121513551     
  0.11609999999999999          1.0564712013994282     
  0.11640000000000002         0.98570642315095391     
  0.11670000000000001         0.90688494547046239     
  0.11700000000000001         0.82578490216596256     
  0.11730000000000000         0.74540392996774152     
  0.11760000000000000         0.66639094444666314     
  0.11789999999999999         0.58686947212093732     
  0.11820000000000001         0.50394678018871730     
  0.11850000000000001         0.41462904629981728     
  0.11880000000000000         0.31641007383786729     
  0.11910000000000000         0.20901436983139315     
  0.11940000000000002          9.4363938017506810E-002
  0.11970000000000001         -2.2831007579853464E-002
  0.12000000000000001        -0.13491473305176119     
  0.12030000000000000        -0.23261289917474587     
  0.12060000000000000        -0.30531931591977579     
  0.12089999999999999        -0.34265593551422741     
  0.12119999999999999        -0.33595497596441087     
  0.12150000000000001        -0.27938290083219797     
  0.12180000000000001        -0.17139669465078150     
  0.12210000000000000         -1.5181340694937847E-002
  0.12239999999999999         0.18077094306052494     
  0.12270000000000002         0.40317841117554937     
  0.12300000000000001         0.63483391275934109     
  0.12330000000000001         0.85538974879577256     
  0.12360000000000000          1.0434522331303318     
  0.12390000000000000          1.1780091195318867     
  0.12419999999999999          1.2403558151591365     
  0.12450000000000001          1.2160566712300938     
  0.12480000000000001          1.0957472021240593     
  0.12509999999999999         0.87658104756565836     
  0.12540000000000001         0.56264750318990220     
  0.12570000000000003         0.16473196957442068     
  0.12600000000000000        -0.29954126495420058     
  0.12630000000000002        -0.80687760308303746     
  0.12659999999999999         -1.3296340502341832     
  0.12690000000000001         -1.8367887438635155     
  0.12719999999999998         -2.2962338544782881     
  0.12750000000000000         -2.6764382870612984     
  0.12780000000000002         -2.9480847823552097     
  0.12809999999999999         -3.0866269557878923     
  0.12840000000000001         -3.0734984375105729     
  0.12869999999999998         -2.8978020680005470     
  0.12900000000000000         -2.5579180312471497     
  0.12930000000000003         -2.0619048749265652     
  0.12959999999999999         -1.4279186502816748     
  0.12990000000000002        -0.68407087417927959     
  0.13019999999999998         0.13309802021092945     
  0.13050000000000000         0.98003451723295465     
  0.13080000000000003          1.8083244319453484     
  0.13109999999999999          2.5681972159808057     
  0.13140000000000002          3.2112421562239359     
  0.13169999999999998          3.6935994137488017     
  0.13200000000000001          3.9797493889232496     
  0.13229999999999997          4.0449213453023960     
  0.13260000000000000          3.8773622007017972     
  0.13290000000000002          3.4799401304588042     
  0.13319999999999999          2.8700971223798510     
  0.13350000000000001          2.0798632816597364     
  0.13380000000000003          1.1537769863856839     
  0.13410000000000000         0.14565410752027164     
  0.13440000000000002        -0.88369982635373900     
  0.13469999999999999         -1.8714629211392324     
  0.13500000000000001         -2.7572283435806746     
  0.13529999999999998         -3.4861950475820369     
  0.13560000000000000         -4.0139188302817264     
  0.13590000000000002         -4.3092641329876251     
  0.13619999999999999         -4.3563546627641632     
  0.13650000000000001         -4.1557974333161178     
  0.13680000000000003         -3.7246710824803113     
  0.13710000000000000         -3.0949396735217420     
  0.13740000000000002         -2.3111653072643561     
  0.13769999999999999         -1.4273924680301013     
  0.13800000000000001        -0.50273567090701154     
  0.13829999999999998         0.40231036400133441     
  0.13860000000000000          1.2304631300774600     
  0.13890000000000002          1.9320473420007411     
  0.13919999999999999          2.4673888375207098     
  0.13950000000000001          2.8103861469352771     
  0.13979999999999998          2.9497666013680157     
  0.14010000000000000          2.8883385333794758     
  0.14040000000000002          2.6441795544241136     
  0.14069999999999999          2.2474901454432117     
  0.14100000000000001          1.7376688570144496     
  0.14130000000000004          1.1613664555861056     
  0.14160000000000000         0.56668788246295354     
  0.14189999999999997          2.9493124994103934E-004
  0.14219999999999999        -0.49586318621054987     
  0.14250000000000002        -0.88927303048716710     
  0.14279999999999998         -1.1578745652093467     
  0.14310000000000000         -1.2918996621334569     
  0.14339999999999997         -1.2946703262232331     
  0.14369999999999999         -1.1805789332488756     
  0.14400000000000002        -0.97408442758145075     
  0.14429999999999998        -0.70669877100305190     
  0.14460000000000001        -0.41288253742428177     
  0.14490000000000003        -0.12730108733341389     
  0.14520000000000000         0.11889906095402474     
  0.14550000000000002         0.30195944413454473     
  0.14579999999999999         0.40696783713395018     
  0.14610000000000001         0.42916004828896459     
  0.14640000000000003         0.37504731843709183     
  0.14670000000000000         0.26013889514317212     
  0.14699999999999996         0.10760032435226308     
  0.14729999999999999         -5.3937270034708981E-002
  0.14760000000000001        -0.19538984296794779     
  0.14789999999999998        -0.28905512682458978     
  0.14820000000000000        -0.31239698975166275     