  -1.4999999999999999E-002     0.0000000000000000     
  -1.4700000000000000E-002     0.0000000000000000     
  -1.4400000000000000E-002     0.0000000000000000     
  -1.4100000000000000E-002     0.0000000000000000     
  -1.3800000000000000E-002     0.0000000000000000     
  -1.3500000000000000E-002     0.0000000000000000     
  -1.3200000000000000E-002     0.0000000000000000     
  -1.2899999999999998E-002     0.0000000000000000     
  -1.2600000000000000E-002     0.0000000000000000     
  -1.2299999999999998E-002     1.0234474876995311E-043
  -1.2000000000000000E-002     1.5046085015147924E-037
  -1.1699999999999999E-002    -5.5758670564744659E-036
  -1.1399999999999999E-002     2.2662637126719794E-034
  -1.1099999999999999E-002    -1.6029963707082136E-032
  -1.0799999999999999E-002     5.5121478814017035E-031
  -1.0499999999999999E-002    -9.8616855038903546E-030
  -1.0199999999999999E-002     1.1059380957464847E-028
  -9.8999999999999991E-003    -8.3171667472513758E-028
  -9.5999999999999992E-003     4.1872620578952130E-027
  -9.2999999999999992E-003    -1.2425274211910581E-026
  -8.9999999999999993E-003     1.9001341407634359E-027
  -8.6999999999999994E-003     2.0773783034384402E-025
  -8.3999999999999995E-003    -1.3572127708718950E-024
  -8.0999999999999996E-003     5.5839608218183431E-024
  -7.7999999999999988E-003    -1.7479309853581814E-023
  -7.4999999999999997E-003     4.5355876044141932E-023
  -7.1999999999999998E-003    -1.1064297391790329E-022
  -6.8999999999999981E-003     2.9594856906795198E-022
  -6.5999999999999982E-003    -7.7899826722748081E-022
  -6.3000000000000000E-003     8.1142964602321665E-022
  -6.0000000000000001E-003     8.5802106617697715E-021
  -5.6999999999999985E-003    -7.1801301518104872E-020
  -5.3999999999999986E-003     3.2648172958649320E-019
  -5.1000000000000004E-003    -1.0317249822596149E-018
  -4.7999999999999987E-003     2.2871795644775057E-018
  -4.5000000000000005E-003    -2.8261776960697185E-018
  -4.1999999999999989E-003    -2.7666204273199687E-018
  -3.8999999999999990E-003     2.7717383909329118E-017
  -3.5999999999999990E-003    -9.2860823320989343E-017
  -3.2999999999999991E-003     2.1163608776637416E-016
  -2.9999999999999992E-003    -3.4718289089762187E-016
  -2.6999999999999993E-003     3.4365527285433286E-016
  -2.3999999999999994E-003     1.2300293578958724E-016
  -2.0999999999999977E-003    -1.4809491242088899E-015
  -1.7999999999999995E-003     4.0113586881849975E-015
  -1.4999999999999979E-003    -7.4662432620298557E-015
  -1.1999999999999997E-003     1.0678112107212048E-014
  -8.9999999999999976E-004    -1.0999616910519403E-014
  -5.9999999999999810E-004     3.1241763996042357E-015
  -2.9999999999999992E-004     2.1795192348546680E-014
   0.0000000000000000         -7.1741190417033040E-014
   3.0000000000000165E-004     1.3731964931706298E-013
   5.9999999999999984E-004    -1.6855102488479693E-013
   9.0000000000000149E-004     7.8438706488544459E-014
   1.2000000000000031E-003     1.8294597348056023E-013
   1.5000000000000013E-003    -5.0071881558437842E-013
   1.8000000000000030E-003     5.5037551810657300E-013
   2.1000000000000012E-003    -1.7252787634921552E-014
   2.3999999999999994E-003    -9.1593071200101008E-013
   2.7000000000000010E-003     1.2070445753950574E-012
   2.9999999999999992E-003     3.6197619899663367E-013
   3.3000000000000008E-003    -2.2983439249828468E-012
   3.6000000000000025E-003    -3.4497332445622127E-012
   3.9000000000000007E-003     2.5986452925012846E-011
   4.2000000000000023E-003    -4.0915771263625506E-011
   4.5000000000000005E-003    -6.6067901859938665E-011
   4.7999999999999987E-003     4.6199274385972811E-010
   5.1000000000000004E-003    -9.8441955911541150E-010
   5.4000000000000020E-003     2.9928208847383153E-010
   5.7000000000000037E-003     4.3513757820715363E-009
   5.9999999999999984E-003    -1.2764244205937097E-008
   6.3000000000000000E-003     8.7354318927572600E-009
   6.6000000000000017E-003     4.2151385747995742E-008
   6.9000000000000034E-003    -1.1258706051167042E-007
   7.2000000000000015E-003    -2.1170579218980248E-008
   7.5000000000000032E-003     4.6590584910976520E-007
   7.8000000000000014E-003    -2.5225105640537448E-007
   8.0999999999999996E-003    -1.6092926806012478E-006
   8.4000000000000012E-003     6.7246287302033919E-007
   8.7000000000000029E-003     4.8900011466567321E-006
   9.0000000000000011E-003     4.6543956357789360E-007
   9.2999999999999992E-003    -1.2143131149646273E-005
   9.6000000000000009E-003    -8.4579334404190832E-006
   9.8999999999999991E-003     2.9351219356445237E-005
   1.0200000000000001E-002     7.5570474021469412E-005
   1.0500000000000002E-002     9.0956161035835018E-005
   1.0800000000000004E-002     9.1926252922457921E-005
   1.1099999999999999E-002     1.4725045707893471E-004
   1.1400000000000000E-002     2.9194652326608526E-004
   1.1700000000000002E-002     4.8947606660463758E-004
   1.2000000000000004E-002     7.1226702821061000E-004
   1.2300000000000002E-002     1.0250488009744367E-003
   1.2600000000000000E-002     1.5435949841902054E-003
   1.2900000000000002E-002     2.3361551870466363E-003
   1.3200000000000000E-002     3.4302627929743614E-003
   1.3500000000000002E-002     4.9184087726037856E-003
   1.3800000000000003E-002     6.9881206284239383E-003
   1.4100000000000001E-002     9.8313028901556680E-003
   1.4400000000000000E-002     1.3599215444874113E-002
   1.4700000000000001E-002     1.8481913402934966E-002
   1.4999999999999999E-002     2.4755385445276924E-002
   1.5300000000000001E-002     3.2688603811812711E-002
   1.5600000000000003E-002     4.2449937954536436E-002
   1.5899999999999997E-002     5.4142948562007347E-002
   1.6199999999999999E-002     6.7853152527493035E-002
   1.6500000000000001E-002     8.3538948531883733E-002
   1.6800000000000002E-002    0.10087594752875559     
   1.7100000000000004E-002    0.11923706126732442     
   1.7400000000000006E-002    0.13774770158302008     
   1.7700000000000000E-002    0.15523342773612839     
   1.8000000000000002E-002    0.17007295764015107     
   1.8300000000000004E-002    0.18022560927782777     
   1.8600000000000005E-002    0.18340519602203836     
   1.8900000000000000E-002    0.17716695528201137     
   1.9200000000000002E-002    0.15895131757428943     
   1.9500000000000003E-002    0.12630986407421466     
   1.9799999999999998E-002     7.7272509653014271E-002
   2.0100000000000000E-002     1.0602541258471879E-002
   2.0400000000000001E-002    -7.4043205528330616E-002
   2.0700000000000003E-002   -0.17587170924219570     
   2.0999999999999998E-002   -0.29268396051483703     
   2.1299999999999999E-002   -0.42065690149739876     
   2.1600000000000001E-002   -0.55442543298330393     
   2.1900000000000003E-002   -0.68743198670942485     
   2.2200000000000004E-002   -0.81222701831375965     
   2.2500000000000006E-002   -0.92069473918162681     
   2.2800000000000001E-002    -1.0045700604280774     
   2.3100000000000002E-002    -1.0563748261302910     
   2.3400000000000004E-002    -1.0700354547069306     
   2.3699999999999999E-002    -1.0412483540668669     
   2.4000000000000000E-002   -0.96793882528415587     
   2.4300000000000002E-002   -0.85077325635232881     
   2.4599999999999997E-002   -0.69326351741094816     
   2.4900000000000005E-002   -0.50128670831588384     
   2.5200000000000000E-002   -0.28278177159041351     
   2.5499999999999995E-002    -4.7457363274194322E-002
   2.5800000000000003E-002    0.19410453844076761     
   2.6099999999999998E-002    0.43117227696114024     
   2.6400000000000007E-002    0.65377556094525824     
   2.6700000000000002E-002    0.85324957062487539     
   2.6999999999999996E-002     1.0223256170730437     
   2.7300000000000005E-002     1.1558306972454107     
   2.7600000000000000E-002     1.2508360802991323     
   2.7900000000000008E-002     1.3063843173507441     
   2.8200000000000003E-002     1.3228583656787185     
   2.8499999999999998E-002     1.3017091505683487     
   2.8800000000000006E-002     1.2455451220547846     
   2.9100000000000001E-002     1.1575845374488507     
   2.9400000000000003E-002     1.0409346081367874     
   2.9700000000000004E-002    0.89855515022301280     
   3.0000000000000006E-002    0.73371384534182915     
   3.0300000000000001E-002    0.55013970641366061     
   3.0600000000000002E-002    0.35163309644853091     
   3.0900000000000004E-002    0.14264090593896450     
   3.1199999999999999E-002    -7.1093968508699479E-002
   3.1500000000000007E-002   -0.28250424869241320     
   3.1800000000000002E-002   -0.48315571117140393     
   3.2099999999999997E-002   -0.66372013085590398     
   3.2400000000000005E-002   -0.81385918023249582     
   3.2700000000000000E-002   -0.92267490254533313     
   3.3000000000000002E-002   -0.97959902873545723     
   3.3300000000000003E-002   -0.97520809111912721     
   3.3599999999999998E-002   -0.90235915192333516     
   3.3900000000000000E-002   -0.75673429847169482     
   3.4200000000000001E-002   -0.53762590690702006     
   3.4500000000000003E-002   -0.24901990709331012     
   3.4799999999999998E-002    0.10045142604346169     
   3.5099999999999999E-002    0.49777351568838535     
   3.5400000000000001E-002    0.92588532498360876     
   3.5699999999999996E-002     1.3638485422841384     
   3.6000000000000004E-002     1.7882663389194178     
   3.6299999999999999E-002     2.1751296267079856     
   3.6600000000000008E-002     2.5008222836685774     
   3.6900000000000002E-002     2.7433816206452608     
   3.7199999999999997E-002     2.8840503861879894     
   3.7500000000000006E-002     2.9090522539251693     
   3.7800000000000000E-002     2.8100728296827162     
   3.8100000000000009E-002     2.5845290691372949     
   3.8400000000000004E-002     2.2364552611725497     
   3.8699999999999998E-002     1.7761237414051192     
   3.9000000000000007E-002     1.2195871139441297     
   3.9300000000000002E-002    0.58815302667196723     
   3.9600000000000003E-002    -9.2759410863951841E-002
   3.9900000000000005E-002   -0.79445759805386318     
   4.0200000000000000E-002    -1.4862788405229539     
   4.0500000000000001E-002    -2.1366853823182232     
   4.0800000000000003E-002    -2.7146584516532881     
   4.1100000000000005E-002    -3.1912989791392037     
   4.1399999999999999E-002    -3.5411604360184996     
   4.1700000000000008E-002    -3.7437443699012025     
   4.2000000000000003E-002    -3.7849345101355656     
   4.2299999999999997E-002    -3.6584679122515098     
   4.2600000000000006E-002    -3.3670701096875320     
   4.2900000000000001E-002    -2.9235102789454221     
   4.3200000000000002E-002    -2.3508044499671308     
   4.3500000000000004E-002    -1.6819755625773447     
   4.3799999999999999E-002   -0.95972664061274227     
   4.4100000000000000E-002   -0.23436242629206666     
   4.4400000000000002E-002    0.43852770515567430     
   4.4700000000000004E-002     1.0008957334853834     
   4.4999999999999998E-002     1.3964439737732288     
   4.5300000000000000E-002     1.5743766438109137     
   4.5600000000000002E-002     1.4939758932013454     
   4.5899999999999996E-002     1.1288063007499500     
   4.6200000000000005E-002    0.46986984673293009     
   4.6500000000000000E-002   -0.47093580182083461     
   4.6799999999999994E-002    -1.6598310151888245     
   4.7100000000000003E-002    -3.0413836752120638     
   4.7399999999999998E-002    -4.5396848191762746     
   4.7700000000000006E-002    -6.0618289703332051     
   4.8000000000000001E-002    -7.5031534436208114     
   4.8300000000000010E-002    -8.7536676813253553     
   4.8600000000000004E-002    -9.7053072469673261     
   4.8899999999999999E-002    -10.259875050214934     
   4.9200000000000008E-002    -10.336661881454091     
   4.9500000000000002E-002    -9.8797016704704390     
   4.9800000000000011E-002    -8.8627592377131883     
   5.0100000000000006E-002    -7.2932824436980184     
   5.0400000000000000E-002    -5.2138977648441873     
   5.0700000000000009E-002    -2.6999964966236867     
   5.1000000000000004E-002    0.14339206526296455     
   5.1299999999999998E-002     3.1873027805586154     
   5.1600000000000007E-002     6.2881986809918891     
   5.1900000000000002E-002     9.2970279140418768     
   5.2200000000000010E-002     12.068267394258207     
   5.2500000000000005E-002     14.469248144628471     
   5.2800000000000000E-002     16.389067748936426     
   5.3099999999999994E-002     17.745174974342493     
   5.3400000000000003E-002     18.485914082100699     
   5.3699999999999998E-002     18.593120141978723     
   5.4000000000000006E-002     18.081291812242036     
   5.4300000000000001E-002     16.993512259505046     
   5.4599999999999996E-002     15.396404627546506     
   5.4900000000000004E-002     13.374300083610793     
   5.5199999999999999E-002     11.022834006349456     
   5.5499999999999994E-002     8.4411795914088916     
   5.5800000000000002E-002     5.7270915859468552     
   5.6099999999999997E-002     2.9733364502893913     
   5.6400000000000006E-002    0.26412280421640122     
   5.6700000000000000E-002    -2.3267172101050559     
   5.6999999999999995E-002    -4.7356521464326331     
   5.7300000000000004E-002    -6.9071055076578194     
   5.7599999999999998E-002    -8.7938369319395484     
   5.7900000000000007E-002    -10.356463459596561     
   5.8200000000000002E-002    -11.561440159909809     
   5.8499999999999996E-002    -12.380910925293897     
   5.8800000000000005E-002    -12.794663428388482     
   5.9100000000000000E-002    -12.792282314093265     
   5.9400000000000008E-002    -12.375014695060909     
   5.9700000000000003E-002    -11.557786746069500     
   6.0000000000000012E-002    -10.371653483761911     
   6.0300000000000006E-002    -8.8652793951440643     
   6.0600000000000001E-002    -7.1046344146112901     
   6.0900000000000010E-002    -5.1701389458803124     
   6.1200000000000004E-002    -3.1544177175739971     
   6.1500000000000013E-002    -1.1573476299100920     
   6.1800000000000008E-002    0.72104453628015031     
   6.2100000000000002E-002     2.3862804811054170     
   6.2399999999999997E-002     3.7564410697038548     
   6.2700000000000006E-002     4.7686324116650827     
   6.3000000000000000E-002     5.3825551107818859     
   6.3300000000000009E-002     5.5845461252565025     
   6.3600000000000004E-002     5.3879548177020329     
   6.3899999999999998E-002     4.8315932197853773     
   6.4199999999999993E-002     3.9769228491121940     
   6.4500000000000002E-002     2.9020552046083088     
   6.4800000000000010E-002     1.6959634082680028     
   6.5100000000000005E-002    0.45137603001997528     
   6.5400000000000000E-002   -0.74277365398881967     
   6.5700000000000008E-002    -1.8078899758862637     
   6.5999999999999989E-002    -2.6805466649420691     
   6.6299999999999998E-002    -3.3167534011801054     
   6.6600000000000006E-002    -3.6942106639697116     
   6.6900000000000001E-002    -3.8122043220218935     
   6.7199999999999996E-002    -3.6905377404508464     
   6.7500000000000004E-002    -3.3656928739993712     
   6.7800000000000013E-002    -2.8867088905656337     
   6.8099999999999994E-002    -2.3109119984492636     
   6.8400000000000002E-002    -1.6974650103814435     
   6.8700000000000011E-002    -1.1026245219588997     
   6.8999999999999992E-002   -0.57535509505629256     
   6.9300000000000000E-002   -0.15362085120197494     
   6.9600000000000009E-002    0.13752830714719777     
   6.9900000000000004E-002    0.28779211999874410     
   7.0199999999999999E-002    0.30062907927604632     
   7.0500000000000007E-002    0.19150560272898670     
   7.0800000000000016E-002    -1.4190415671173531E-002
   7.1099999999999997E-002   -0.28451687312652096     
   7.1400000000000005E-002   -0.58479199098581414     
   7.1700000000000000E-002   -0.88118874942501524     
   7.1999999999999995E-002    -1.1428471249173131     
   7.2300000000000003E-002    -1.3450833487822846     
   7.2600000000000012E-002    -1.4710743962384094     
   7.2900000000000006E-002    -1.5117222306087745     
   7.3200000000000001E-002    -1.4654908479850626     
   7.3499999999999996E-002    -1.3375056841683661     
   7.3800000000000004E-002    -1.1386597228098667     
   7.4099999999999999E-002   -0.88284417592193642     
   7.4400000000000008E-002   -0.58497814844487561     
   7.4700000000000003E-002   -0.26073835836487869     
   7.5000000000000011E-002     7.5881516750573558E-002
   7.5299999999999992E-002    0.41318471577413612     
   7.5600000000000001E-002    0.74221083918183484     
   7.5900000000000009E-002     1.0570928250123903     
   7.6200000000000004E-002     1.3546884267225883     
   7.6499999999999999E-002     1.6358833661340710     
   7.6800000000000007E-002     1.9039761572424634     
   7.7099999999999988E-002     2.1653425928459704     
   7.7399999999999997E-002     2.4302536038703608     
   7.7700000000000005E-002     2.7102896502674101     
   7.8000000000000014E-002     3.0176949869602150     
   7.8299999999999995E-002     3.3650404940388285     
   7.8600000000000003E-002     3.7626869954120599     
   7.8900000000000012E-002     4.2161416583221802     
   7.9199999999999993E-002     4.7237208998645528     
   7.9500000000000001E-002     5.2757187513108672     
   7.9800000000000010E-002     5.8539062258178198     
   8.0100000000000018E-002     6.4304234270149028     
   8.0399999999999999E-002     6.9705717423659701     
   8.0700000000000008E-002     7.4371822034983301     
   8.1000000000000003E-002     7.7937224824790743     
   8.1299999999999997E-002     8.0093358724006904     
   8.1600000000000006E-002     8.0642894076253189     
   8.1900000000000014E-002     7.9527365507314407     
   8.2199999999999995E-002     7.6846065454471209     
   8.2500000000000004E-002     7.2842913530647984     
   8.2799999999999999E-002     6.7865679349600896     
   8.3100000000000007E-002     6.2306371287289117     
   8.3400000000000002E-002     5.6510163839751026     
   8.3700000000000011E-002     5.0683521806911571     
   8.4000000000000005E-002     4.4818689248646653     
   8.4300000000000000E-002     3.8626831812107847     
   8.4599999999999995E-002     3.1514753855274367     
   8.4900000000000003E-002     2.2614141400575054     
   8.5199999999999998E-002     1.0852969834358417     
   8.5500000000000007E-002   -0.49170658866421568     
   8.5800000000000001E-002    -2.5747752147733367     
   8.6100000000000010E-002    -5.2423471417253715     
   8.6399999999999991E-002    -8.5261518696194827     
   8.6699999999999999E-002    -12.394900116774398     
   8.7000000000000008E-002    -16.743921206323009     
   8.7300000000000003E-002    -21.390862865647591     
   8.7599999999999997E-002    -26.080142806547222     
   8.7900000000000006E-002    -30.495775423954719     
   8.8200000000000014E-002    -34.282558891010098     
   8.8499999999999995E-002    -37.074812435738629     
   8.8800000000000004E-002    -38.529170632103494     
   8.9100000000000013E-002    -38.357354427867769     
   8.9399999999999993E-002    -36.358520359181540     
   8.9700000000000002E-002    -32.445631511756325     
   9.0000000000000011E-002    -26.660238881760442     
   9.0299999999999991E-002    -19.182228867076841     
   9.0600000000000000E-002    -10.322164236312059     
   9.0900000000000009E-002   -0.50349203955036348     
   9.1200000000000017E-002     9.7620760734471990     
   9.1499999999999998E-002     19.914344127053958     
   9.1800000000000007E-002     29.384705245135038     
   9.2100000000000001E-002     37.636371270015538     
   9.2399999999999996E-002     44.207432442050113     
   9.2700000000000005E-002     48.742125676215089     
   9.3000000000000013E-002     51.016125037447857     
   9.3300000000000008E-002     50.950417268798859     
   9.3600000000000003E-002     48.611117541852735     
   9.3899999999999997E-002     44.201613558073504     
   9.4200000000000006E-002     38.043209800843158     
   9.4500000000000001E-002     30.543893442828619     
   9.4800000000000009E-002     22.166942103072323     
   9.5100000000000004E-002     13.397812123544085     
   9.5399999999999999E-002     4.7091806528570821     
   9.5699999999999993E-002    -3.4685460317429495     
   9.6000000000000002E-002    -10.772171431490815     
   9.6300000000000011E-002    -16.921165163816667     
   9.6600000000000005E-002    -21.725465811418736     
   9.6900000000000000E-002    -25.090339446069279     
   9.7200000000000009E-002    -27.010549179596016     
   9.7499999999999989E-002    -27.557947778799711     
   9.7799999999999998E-002    -26.870662490527273     
   9.8100000000000007E-002    -25.135812190145703     
   9.8400000000000015E-002    -22.571727670923913     
   9.8699999999999996E-002    -19.413040359908472     
   9.9000000000000005E-002    -15.894152775901514     
   9.9300000000000013E-002    -12.237051174958403     
   9.9599999999999994E-002    -8.6408317722760728     
   9.9900000000000003E-002    -5.2725578563893620     
  0.10020000000000001         -2.2630662106686099     
  0.10049999999999999         0.29504082261985531     
  0.10080000000000000          2.3490432405053143     
  0.10110000000000001          3.8817594970141824     
  0.10140000000000000          4.9093810057983189     
  0.10170000000000000          5.4752747527226102     
  0.10200000000000001          5.6411631719469684     
  0.10230000000000002          5.4822273579103271     
  0.10260000000000000          5.0803555230244317     
  0.10290000000000001          4.5150758138882559     
  0.10320000000000000          3.8596047118269512     
  0.10350000000000001          3.1770361598054091     
  0.10380000000000000          2.5168272255699438     
  0.10410000000000001          1.9156388765101564     
  0.10440000000000001          1.3957090801271206     
  0.10470000000000000         0.96747581037972141     
  0.10500000000000000         0.63317661692146920     
  0.10530000000000000         0.38799268103168871     
  0.10560000000000000         0.22252730118264741     
  0.10590000000000001         0.12590678400133742     
  0.10620000000000000          8.6466309688763343E-002
  0.10650000000000001          9.3061409010958662E-002
  0.10679999999999999         0.13568643493678284     
  0.10710000000000000         0.20380190635746578     
  0.10740000000000001         0.28782111939922028     
  0.10770000000000000         0.37895024275723399     
  0.10800000000000000         0.46784337224378864     
  0.10830000000000001         0.54629558959911062     
  0.10859999999999999         0.60727688957277359     
  0.10890000000000000         0.64491838655948330     
  0.10920000000000001         0.65630351958747724     
  0.10950000000000001         0.64130563613223857     
  0.10979999999999999         0.60173878983471385     
  0.11009999999999999         0.54313417179128665     
  0.11040000000000001         0.47225334398487206     
  0.11070000000000001         0.39602674111406416     
  0.11100000000000000         0.32233640067259739     
  0.11130000000000000         0.25708203947771052     
  0.11160000000000002         0.20423401802257432     
  0.11190000000000001         0.16568384918881854     
  0.11220000000000001         0.13975154751436458     
  0.11250000000000000         0.12410521388771067     
  0.11280000000000000         0.11493192334965985     
  0.11309999999999999         0.10635028666828811     
  0.11340000000000001          9.4999216264348568E-002
  0.11369999999999998          7.8439898346486264E-002
  0.11400000000000000          5.4948377941561669E-002
  0.11430000000000000          2.6005992961131791E-002
  0.11460000000000002         -6.2907767022750555E-003
  0.11489999999999999         -3.9280259591042740E-002
  0.11520000000000001         -6.8519970580871142E-002
  0.11550000000000001         -9.1074650915197244E-002
  0.11580000000000000        -0.10473443369654661     
  0.11609999999999999        -0.10870731421182031     
  0.11640000000000002        -0.10492948963619175     
  0.11670000000000001         -9.5130415451141731E-002
  0.11700000000000001         -8.2334885430406207E-002
  0.11730000000000000         -7.1074710899688767E-002
  0.11760000000000000         -6.3869046304735333E-002
  0.11789999999999999         -6.3051118599573561E-002
  0.11820000000000001         -6.9940327019792803E-002
  0.11850000000000001         -8.2847596679718818E-002
  0.11880000000000000        -0.10059133904565797     
  0.11910000000000000        -0.12017089237867401     
  0.11940000000000002        -0.13726392684611788     
  0.11970000000000001        -0.14940984858987577     
  0.12000000000000001        -0.15374762640643433     
  0.12030000000000000        -0.14961990667767916     
  0.12060000000000000        -0.13815314052313732     
  0.12089999999999999        -0.12118952350790693     
  0.12119999999999999        -0.10250446237622030     
  0.12150000000000001         -8.6146734815675322E-002
  0.12180000000000001         -7.6098709567266942E-002
  0.12210000000000000         -7.6203151804501906E-002
  0.12239999999999999         -8.7594265247952940E-002
  0.12270000000000002        -0.10918373825791017     
  0.12300000000000001        -0.13908080015416785     
  0.12330000000000001        -0.17295581414907463     
  0.12360000000000000        -0.20514259184629871     
  0.12390000000000000        -0.22936512060699260     
  0.12419999999999999        -0.24082973517736184     
  0.12450000000000001        -0.23636222155824638     
  0.12480000000000001        -0.21457793201324929     
  0.12509999999999999        -0.17710291513971943     
  0.12540000000000001        -0.12872444407405964     
  0.12570000000000003         -7.6064231550208417E-002
  0.12600000000000000         -2.6963333244032078E-002
  0.12630000000000002          1.0718289480826725E-002
  0.12659999999999999          3.0425440819686629E-002
  0.12690000000000001          2.7989763078774606E-002
  0.12719999999999998          3.3590264960305406E-003
  0.12750000000000000         -4.1091914459173526E-002
  0.12780000000000002         -9.8805687188883440E-002
  0.12809999999999999        -0.15992931144938402     
  0.12840000000000001        -0.21414668143637988     
  0.12869999999999998        -0.25063450862476067     
  0.12900000000000000        -0.26102582583368417     
  0.12930000000000003        -0.24027298269182951     
  0.12959999999999999        -0.18720010552690142     
  0.12990000000000002        -0.10639116330513641     
  0.13019999999999998         -6.5010837125465820E-003
  0.13050000000000000          9.9945090903233280E-002
  0.13080000000000003         0.19763289032066200     
  0.13109999999999999         0.27238670003728049     
  0.13140000000000002         0.31196082096887690     
  0.13169999999999998         0.30752285330733864     
  0.13200000000000001         0.25684201868444284     
  0.13229999999999997         0.16513023624220971     
  0.13260000000000000          4.3194539039805899E-002
  0.13290000000000002         -9.3020837483215268E-002
  0.13319999999999999        -0.22328948033390250     
  0.13350000000000001        -0.32637875074870126     
  0.13380000000000003        -0.38317903363850664     
  0.13410000000000000        -0.38083459990158552     
  0.13440000000000002        -0.31296537549023268     
  0.13469999999999999        -0.18172159718778269     
  0.13500000000000001         -5.7033824598813621E-004
  0.13529999999999998         0.21007760361917527     
  0.13560000000000000         0.42399600750918387     
  0.13590000000000002         0.61011812124409226     
  0.13619999999999999         0.73942559487297854     
  0.13650000000000001         0.78741363995041436     
  0.13680000000000003         0.73801025451758695     
  0.13710000000000000         0.58631771588458448     
  0.13740000000000002         0.33911026474683398     
  0.13769999999999999          1.6984548190466575E-002
  0.13800000000000001        -0.34928817764266468     
  0.13829999999999998        -0.72218166020902785     
  0.13860000000000000         -1.0598487865069044     
  0.13890000000000002         -1.3215973625588828     
  0.13919999999999999         -1.4734271249710773     
  0.13950000000000001         -1.4904442310745980     
  0.13979999999999998         -1.3605591737701439     
  0.14010000000000000         -1.0869769781234464     
  0.14040000000000002        -0.68689598633216387     
  0.14069999999999999        -0.19055632593218125     
  0.14100000000000001         0.36280698085153806     
  0.14130000000000004         0.92777414061628605     
  0.14160000000000000          1.4561734362583034     
  0.14189999999999997          1.9045915498633212     
  0.14219999999999999          2.2364769474155830     
  0.14250000000000002          2.4244844397608096     
  0.14279999999999998          2.4541298232206645     
  0.14310000000000000          2.3243548535725127     
  0.14339999999999997          2.0469756238133545     
  0.14369999999999999          1.6441407781127537     
  0.14400000000000002          1.1466637471948800     
  0.14429999999999998         0.59191092753831698     
  0.14460000000000001          1.8575450402510463E-002
  0.14490000000000003        -0.53527411368904021     
  0.14520000000000000         -1.0349763432431172     
  0.14550000000000002         -1.4517654408417386     
  0.14579999999999999         -1.7646984580733875     
  0.14610000000000001         -1.9619627543526716     
  0.14640000000000003         -2.0388314538653129     
  0.14670000000000000         -1.9994094771732520     
  0.14699999999999996         -1.8547852675916539     
  0.14729999999999999         -1.6214868131409508     
  0.14760000000000001         -1.3202797167891562     
  0.14789999999999998        -0.97368844258888876     
  0.14820000000000000        -0.60557384564629735     