  -1.4999999999999999E-002     0.0000000000000000     
  -1.4700000000000000E-002     0.0000000000000000     
  -1.4400000000000000E-002     0.0000000000000000     
  -1.4100000000000000E-002     0.0000000000000000     
  -1.3800000000000000E-002     0.0000000000000000     
  -1.3500000000000000E-002     0.0000000000000000     
  -1.3200000000000000E-002     0.0000000000000000     
  -1.2899999999999998E-002     0.0000000000000000     
  -1.2600000000000000E-002     0.0000000000000000     
  -1.2299999999999998E-002     0.0000000000000000     
  -1.2000000000000000E-002     0.0000000000000000     
  -1.1699999999999999E-002     0.0000000000000000     
  -1.1399999999999999E-002     0.0000000000000000     
  -1.1099999999999999E-002     0.0000000000000000     
  -1.0799999999999999E-002     0.0000000000000000     
  -1.0499999999999999E-002     0.0000000000000000     
  -1.0199999999999999E-002     0.0000000000000000     
  -9.8999999999999991E-003     0.0000000000000000     
  -9.5999999999999992E-003     0.0000000000000000     
  -9.2999999999999992E-003     0.0000000000000000     
  -8.9999999999999993E-003     0.0000000000000000     
  -8.6999999999999994E-003     0.0000000000000000     
  -8.3999999999999995E-003     0.0000000000000000     
  -8.0999999999999996E-003     0.0000000000000000     
  -7.7999999999999988E-003     0.0000000000000000     
  -7.4999999999999997E-003     0.0000000000000000     
  -7.1999999999999998E-003     0.0000000000000000     
  -6.8999999999999981E-003     0.0000000000000000     
  -6.5999999999999982E-003     0.0000000000000000     
  -6.3000000000000000E-003     0.0000000000000000     
  -6.0000000000000001E-003     0.0000000000000000     
  -5.6999999999999985E-003     0.0000000000000000     
  -5.3999999999999986E-003     0.0000000000000000     
  -5.1000000000000004E-003     0.0000000000000000     
  -4.7999999999999987E-003     0.0000000000000000     
  -4.5000000000000005E-003     0.0000000000000000     
  -4.1999999999999989E-003     0.0000000000000000     
  -3.8999999999999990E-003     0.0000000000000000     
  -3.5999999999999990E-003     0.0000000000000000     
  -3.2999999999999991E-003     0.0000000000000000     
  -2.9999999999999992E-003     0.0000000000000000     
  -2.6999999999999993E-003     0.0000000000000000     
  -2.3999999999999994E-003     0.0000000000000000     
  -2.0999999999999977E-003     0.0000000000000000     
  -1.7999999999999995E-003     0.0000000000000000     
  -1.4999999999999979E-003     6.2510776267807022E-045
  -1.1999999999999997E-003    -2.1533049427273996E-043
  -8.9999999999999976E-004     4.2607971057248175E-037
  -5.9999999999999810E-004    -4.8024379721117922E-036
  -2.9999999999999992E-004    -1.0576255328295137E-035
   0.0000000000000000          2.8325153219432311E-034
   3.0000000000000165E-004    -2.5761794903334825E-034
   5.9999999999999984E-004    -3.9134244819988727E-033
   9.0000000000000149E-004     1.1014039827529690E-032
   1.2000000000000031E-003     1.3043028932864682E-032
   1.5000000000000013E-003    -1.0625639219311777E-031
   1.8000000000000030E-003     1.3918714440895687E-031
   2.1000000000000012E-003     4.3538626490328221E-031
   2.3999999999999994E-003    -2.0606274183620405E-030
   2.7000000000000010E-003     3.0554384145402805E-030
   2.9999999999999992E-003     4.1814101076858702E-032
   3.3000000000000008E-003    -3.0606579079197899E-029
   3.6000000000000025E-003     2.8876028467720140E-028
   3.9000000000000007E-003    -1.0378740141347623E-027
   4.2000000000000023E-003    -2.5206404332067254E-027
   4.5000000000000005E-003     4.2635245981447263E-026
   4.7999999999999987E-003    -1.8766071197624432E-025
   5.1000000000000004E-003     2.0417673478926444E-025
   5.4000000000000020E-003     2.1809626345564822E-024
   5.7000000000000037E-003    -1.5072506660547047E-023
   5.9999999999999984E-003     5.0438965065383685E-023
   6.3000000000000000E-003    -7.9903854933912287E-023
   6.6000000000000017E-003    -1.3087231477971932E-022
   6.9000000000000034E-003     1.3553168180183909E-021
   7.2000000000000015E-003    -5.1054560431224242E-021
   7.5000000000000032E-003     1.2462977589665659E-020
   7.8000000000000014E-003    -1.9081510097508213E-020
   8.0999999999999996E-003     4.6310533848396871E-021
   8.4000000000000012E-003     7.5701622789106896E-020
   8.7000000000000029E-003    -2.5673253680410771E-019
   9.0000000000000011E-003     3.5539884893122132E-019
   9.2999999999999992E-003     7.4976926575821152E-019
   9.6000000000000009E-003    -7.1261116624668070E-018
   9.8999999999999991E-003     3.0642605127059857E-017
   1.0200000000000001E-002    -1.0144186855875183E-016
   1.0500000000000002E-002     2.8915261143370687E-016
   1.0800000000000004E-002    -7.5353288503425176E-016
   1.1099999999999999E-002     1.9413940015268236E-015
   1.1400000000000000E-002    -5.6013400365083316E-015
   1.1700000000000002E-002     1.9656112536504880E-014
   1.2000000000000004E-002    -7.7139708935688710E-014
   1.2300000000000002E-002     2.8948996337387526E-013
   1.2600000000000000E-002    -9.1483873413542614E-013
   1.2900000000000002E-002     2.0781141379164098E-012
   1.3200000000000000E-002    -1.5486840261730521E-012
   1.3500000000000002E-002    -1.2669457549409443E-011
   1.3800000000000003E-002     7.1416294672449607E-011
   1.4100000000000001E-002    -1.8862625087169112E-010
   1.4400000000000000E-002     1.5544359242920891E-010
   1.4700000000000001E-002     7.9114135562223964E-010
   1.4999999999999999E-002    -3.2289293878284109E-009
   1.5300000000000001E-002     3.3968909172119665E-009
   1.5600000000000003E-002     9.9542638631124124E-009
   1.5899999999999997E-002    -3.3782748679499999E-008
   1.6199999999999999E-002     3.4118600167292471E-009
   1.6500000000000001E-002     1.3255563604750414E-007
   1.6800000000000002E-002    -1.1363299243216594E-007
   1.7100000000000004E-002    -4.1630251545542654E-007
   1.7400000000000006E-002     3.8000820466376098E-007
   1.7700000000000000E-002     1.2915631996297600E-006
   1.8000000000000002E-002    -5.2034635669531139E-007
   1.8300000000000004E-002    -4.0833328886469919E-006
   1.8600000000000005E-002    -1.7337680577667663E-006
   1.8900000000000000E-002     1.5309636532209779E-005
   1.9200000000000002E-002     4.8973804780780076E-005
   1.9500000000000003E-002     9.5157164069654398E-005
   1.9799999999999998E-002     1.5309441416179372E-004
   2.0100000000000000E-002     2.3227148652344259E-004
   2.0400000000000001E-002     3.5320900488578654E-004
   2.0700000000000003E-002     5.4554559743313013E-004
   2.0999999999999998E-002     8.4581685968454468E-004
   2.1299999999999999E-002     1.2994721772803066E-003
   2.1600000000000001E-002     1.9685763416074963E-003
   2.1900000000000003E-002     2.9393779137864835E-003
   2.2200000000000004E-002     4.3280841815988907E-003
   2.2500000000000006E-002     6.2870928134475222E-003
   2.2800000000000001E-002     9.0104471964724403E-003
   2.3100000000000002E-002     1.2735846463110139E-002
   2.3400000000000004E-002     1.7742933720352010E-002
   2.3699999999999999E-002     2.4350743760929331E-002
   2.4000000000000000E-002     3.2911490676173341E-002
   2.4300000000000002E-002     4.3790902978793990E-002
   2.4599999999999997E-002     5.7330928790594940E-002
   2.4900000000000005E-002     7.3807574869733383E-002
   2.5200000000000000E-002     9.3375489192946443E-002
   2.5499999999999995E-002    0.11599411825064530     
   2.5800000000000003E-002    0.14133811008903260     
   2.6099999999999998E-002    0.16869750633368105     
   2.6400000000000007E-002    0.19689331965983398     
   2.6700000000000002E-002    0.22419883330897913     
   2.6999999999999996E-002    0.24827897571769231     
   2.7300000000000005E-002    0.26619523789537874     
   2.7600000000000000E-002    0.27444353727820836     
   2.7900000000000008E-002    0.26907327800869291     
   2.8200000000000003E-002    0.24592299789338593     
   2.8499999999999998E-002    0.20090875057877450     
   2.8800000000000006E-002    0.13040149236355122     
   2.9100000000000001E-002     3.1704604802547602E-002
   2.9400000000000003E-002    -9.6472568736361869E-002
   2.9700000000000004E-002   -0.25354844338197496     
   3.0000000000000006E-002   -0.43661662960693998     
   3.0300000000000001E-002   -0.64020401285697648     
   3.0600000000000002E-002   -0.85612326931798144     
   3.0900000000000004E-002    -1.0735999355673795     
   3.1199999999999999E-002    -1.2797031415334728     
   3.1500000000000007E-002    -1.4599618927276659     
   3.1800000000000002E-002    -1.5992891806547032     
   3.2099999999999997E-002    -1.6830959340140301     
   3.2400000000000005E-002    -1.6984862110502699     
   3.2700000000000000E-002    -1.6355162880635989     
   3.3000000000000002E-002    -1.4883165380376238     
   3.3300000000000003E-002    -1.2559288759008729     
   3.3599999999999998E-002   -0.94287133372094867     
   3.3900000000000000E-002   -0.55922955384420547     
   3.4200000000000001E-002   -0.12029505575165408     
   3.4500000000000003E-002    0.35420960198703749     
   3.4799999999999998E-002    0.84150320371682297     
   3.5099999999999999E-002     1.3171380773369084     
   3.5400000000000001E-002     1.7566716693089279     
   3.5699999999999996E-002     2.1376905469514229     
   3.6000000000000004E-002     2.4408516917453320     
   3.6299999999999999E-002     2.6517837085242713     
   3.6600000000000008E-002     2.7616786996871290     
   3.6900000000000002E-002     2.7675783675380941     
   3.7199999999999997E-002     2.6727836172480175     
   3.7500000000000006E-002     2.4857685604266564     
   3.7800000000000000E-002     2.2197074924992943     
   3.8100000000000009E-002     1.8911739617841754     
   3.8400000000000004E-002     1.5186322952044677     
   3.8699999999999998E-002     1.1214239615625423     
   3.9000000000000007E-002    0.71802330134423453     
   3.9300000000000002E-002    0.32517767004376097     
   3.9600000000000003E-002    -4.2782619739034168E-002
   3.9900000000000005E-002   -0.37484049873591846     
   4.0200000000000000E-002   -0.66314286128171074     
   4.0500000000000001E-002   -0.90313226172100936     
   4.0800000000000003E-002    -1.0932309650876462     
   4.1100000000000005E-002    -1.2342661646604640     
   4.1399999999999999E-002    -1.3291531831787069     
   4.1700000000000008E-002    -1.3818875584374408     
   4.2000000000000003E-002    -1.3974362646673550     
   4.2299999999999997E-002    -1.3809673821893893     
   4.2600000000000006E-002    -1.3373795783817211     
   4.2900000000000001E-002    -1.2714875971748676     
   4.3200000000000002E-002    -1.1872414384451040     
   4.3500000000000004E-002    -1.0884072812463992     
   4.3799999999999999E-002   -0.97828960707727186     
   4.4100000000000000E-002   -0.85971367616248040     
   4.4400000000000002E-002   -0.73592406728095483     
   4.4700000000000004E-002   -0.61000555927560929     
   4.4999999999999998E-002   -0.48554581532992275     
   4.5300000000000000E-002   -0.36680936892972094     
   4.5600000000000002E-002   -0.25829112561746798     
   4.5899999999999996E-002   -0.16528511031031301     
   4.6200000000000005E-002    -9.3248269808972384E-002
   4.6500000000000000E-002    -4.7551362618699099E-002
   4.6799999999999994E-002    -3.3189984396075851E-002
   4.7100000000000003E-002    -5.3950330232859008E-002
   4.7399999999999998E-002   -0.11193794538934732     
   4.7700000000000006E-002   -0.20687499400963069     
   4.8000000000000001E-002   -0.33555727940200258     
   4.8300000000000010E-002   -0.49128889776045553     
   4.8600000000000004E-002   -0.66393291694123346     
   4.8899999999999999E-002   -0.83991354463053969     
   4.9200000000000008E-002    -1.0025498845738352     
   4.9500000000000002E-002    -1.1334902030261658     
   4.9800000000000011E-002    -1.2134267078164489     
   5.0100000000000006E-002    -1.2240574351214599     
   5.0400000000000000E-002    -1.1499583717067003     
   5.0700000000000009E-002   -0.97976541524614991     
   5.1000000000000004E-002   -0.70871502204297476     
   5.1299999999999998E-002   -0.33920517633338376     
   5.1600000000000007E-002    0.11845032784326832     
   5.1900000000000002E-002    0.64541345751095169     
   5.2200000000000010E-002     1.2160350077415318     
   5.2500000000000005E-002     1.7984926696674750     
   5.2800000000000000E-002     2.3573172092876309     
   5.3099999999999994E-002     2.8561618333325640     
   5.3400000000000003E-002     3.2600786696646318     
   5.3699999999999998E-002     3.5391402260532590     
   5.4000000000000006E-002     3.6703872701199662     
   5.4300000000000001E-002     3.6398234391807005     
   5.4599999999999996E-002     3.4440970447549644     
   5.4900000000000004E-002     3.0901346234486655     
   5.5199999999999999E-002     2.5952651528094930     
   5.5499999999999994E-002     1.9854537273915374     
   5.5800000000000002E-002     1.2931203864519178     
   5.6099999999999997E-002    0.55524355353220189     
   5.6400000000000006E-002   -0.19027607012008815     
   5.6700000000000000E-002   -0.90675318162717067     
   5.6999999999999995E-002    -1.5611729619825572     
   5.7300000000000004E-002    -2.1267817023726869     
   5.7599999999999998E-002    -2.5836415299572129     
   5.7900000000000007E-002    -2.9201407446308383     
   5.8200000000000002E-002    -3.1325898188820682     
   5.8499999999999996E-002    -3.2247889064572348     
   5.8800000000000005E-002    -3.2072131659829033     
   5.9100000000000000E-002    -3.0948991804662662     
   5.9400000000000008E-002    -2.9066541226214655     
   5.9700000000000003E-002    -2.6626105341195041     
   6.0000000000000012E-002    -2.3827443156226815     
   6.0300000000000006E-002    -2.0856282743790007     
   6.0600000000000001E-002    -1.7865735323978207     
   6.0900000000000010E-002    -1.4974459439001577     
   6.1200000000000004E-002    -1.2255613830253778     
   6.1500000000000013E-002   -0.97383564940456835     
   6.1800000000000008E-002   -0.74104148341031084     
   6.2100000000000002E-002   -0.52201938785245450     
   6.2399999999999997E-002   -0.30906176690437737     
   6.2700000000000006E-002    -9.2669145226488878E-002
   6.3000000000000000E-002    0.13721296111788603     
   6.3300000000000009E-002    0.38920503785623045     
   6.3600000000000004E-002    0.67002022194491029     
   6.3899999999999998E-002    0.98242914594808350     
   6.4199999999999993E-002     1.3247412433421335     
   6.4500000000000002E-002     1.6902372825083176     
   6.4800000000000010E-002     2.0666389451570195     
   6.5100000000000005E-002     2.4373466953005716     
   6.5400000000000000E-002     2.7813317759607772     
   6.5700000000000008E-002     3.0753941520533479     
   6.5999999999999989E-002     3.2956202016732496     
   6.6299999999999998E-002     3.4191000452468474     
   6.6600000000000006E-002     3.4270367619185818     
   6.6900000000000001E-002     3.3055734639187522     
   6.7199999999999996E-002     3.0480859294469531     
   6.7500000000000004E-002     2.6563272502023643     
   6.7800000000000013E-002     2.1400010624310970     
   6.8099999999999994E-002     1.5176850608520076     
   6.8400000000000002E-002    0.81477249301857479     
   6.8700000000000011E-002     6.2071118525807906E-002
   6.8999999999999992E-002   -0.70550160766224523     
   6.9300000000000000E-002    -1.4525346666417607     
   6.9600000000000009E-002    -2.1442832854910381     
   6.9900000000000004E-002    -2.7493407636823748     
   7.0199999999999999E-002    -3.2418999588945110     
   7.0500000000000007E-002    -3.6019074845564814     
   7.0800000000000016E-002    -3.8168315832226853     
   7.1099999999999997E-002    -3.8809595072721375     
   7.1400000000000005E-002    -3.7953062045381794     
   7.1700000000000000E-002    -3.5670726311845353     
   7.1999999999999995E-002    -3.2079238929870657     
   7.2300000000000003E-002    -2.7339234414840674     
   7.2600000000000012E-002    -2.1636488522615749     
   7.2900000000000006E-002    -1.5177004441040658     
   7.3200000000000001E-002   -0.81853909474149922     
   7.3499999999999996E-002    -8.9352344645644163E-002
   7.3800000000000004E-002    0.64516125828952431     
   7.4099999999999999E-002     1.3599740142638905     
   7.4400000000000008E-002     2.0293440704196422     
   7.4700000000000003E-002     2.6271526714247853     
   7.5000000000000011E-002     3.1285228649010821     
   7.5299999999999992E-002     3.5095989646388208     
   7.5600000000000001E-002     3.7500257458774584     
   7.5900000000000009E-002     3.8343400946214370     
   7.6200000000000004E-002     3.7529542461480432     
   7.6499999999999999E-002     3.5047619380018684     
   7.6800000000000007E-002     3.0972037371923022     
   7.7099999999999988E-002     2.5476844383331967     
   7.7399999999999997E-002     1.8831906403141130     
   7.7700000000000005E-002     1.1388460491091748     
   7.8000000000000014E-002    0.35721902044391518     
   7.8299999999999995E-002   -0.41561170403409037     
   7.8600000000000003E-002    -1.1324754852153092     
   7.8900000000000012E-002    -1.7484547992400665     
   7.9199999999999993E-002    -2.2251481912848412     
   7.9500000000000001E-002    -2.5332379247477279     
   7.9800000000000010E-002    -2.6557950883897568     
   8.0100000000000018E-002    -2.5894863520546050     
   8.0399999999999999E-002    -2.3452618042974036     
   8.0700000000000008E-002    -1.9485504554773350     
   8.1000000000000003E-002    -1.4363690551271704     
   8.1299999999999997E-002   -0.85533725690596152     
   8.1600000000000006E-002   -0.25755774586585722     
   8.1900000000000014E-002    0.30352312545278554     
   8.2199999999999995E-002    0.77713030603022326     
   8.2500000000000004E-002     1.1202150563627635     
   8.2799999999999999E-002     1.2999589399398017     
   8.3100000000000007E-002     1.2976210048116770     
   8.3400000000000002E-002     1.1101071738907016     
   8.3700000000000011E-002    0.74944989663616501     
   8.4000000000000005E-002    0.24364239014535963     
   8.4300000000000000E-002   -0.36660112619677132     
   8.4599999999999995E-002    -1.0305200999406299     
   8.4900000000000003E-002    -1.6905961234268374     
   8.5199999999999998E-002    -2.2883913721675757     
   8.5500000000000007E-002    -2.7676437106297405     
   8.5800000000000001E-002    -3.0801105697467710     
   8.6100000000000010E-002    -3.1893737498799695     
   8.6399999999999991E-002    -3.0734908739972795     
   8.6699999999999999E-002    -2.7287538177940895     
   8.7000000000000008E-002    -2.1690483178794921     
   8.7300000000000003E-002    -1.4264850654225956     
   8.7599999999999997E-002   -0.54927956896156982     
   8.7900000000000006E-002    0.40228361620150560     
   8.8200000000000014E-002     1.3590778243273718     
   8.8499999999999995E-002     2.2497649378971056     
   8.8800000000000004E-002     3.0056567427592982     
   8.9100000000000013E-002     3.5664415635276212     
   8.9399999999999993E-002     3.8858738248869198     
   8.9700000000000002E-002     3.9353607017193948     
   9.0000000000000011E-002     3.7071512057930343     
   9.0299999999999991E-002     3.2148909859963317     
   9.0600000000000000E-002     2.4928131356883028     
   9.0900000000000009E-002     1.5935679874304236     
   9.1200000000000017E-002    0.58317150033965515     
   9.1499999999999998E-002   -0.46373068677250945     
   9.1800000000000007E-002    -1.4701821821426346     
   9.2100000000000001E-002    -2.3636608218461550     
   9.2399999999999996E-002    -3.0815451311812865     
   9.2700000000000005E-002    -3.5765068759663090     
   9.3000000000000013E-002    -3.8195977487832691     
   9.3300000000000008E-002    -3.8020882915249863     
   9.3600000000000003E-002    -3.5359335268186234     
   9.3899999999999997E-002    -3.0513830502966579     
   9.4200000000000006E-002    -2.3938494024666093     
   9.4500000000000001E-002    -1.6193344851681446     
   9.4800000000000009E-002   -0.78933348362417588     
   9.5100000000000004E-002     3.4567229282131476E-002
   9.5399999999999999E-002    0.79606138779942193     
   9.5699999999999993E-002     1.4474860405429053     
   9.6000000000000002E-002     1.9536871946203247     
   9.6300000000000011E-002     2.2933986277048533     
   9.6600000000000005E-002     2.4591705935131021     
   9.6900000000000000E-002     2.4573624305804773     
   9.7200000000000009E-002     2.3053286272914604     
   9.7499999999999989E-002     2.0292136882555569     
   9.7799999999999998E-002     1.6608648520534306     
   9.8100000000000007E-002     1.2341318351292090     
   9.8400000000000015E-002    0.78307279123923279     
   9.8699999999999996E-002    0.33885653903954005     
   9.9000000000000005E-002    -7.1599493502530337E-002
   9.9300000000000013E-002   -0.42636327066578550     
   9.9599999999999994E-002   -0.70953146847458171     
   9.9900000000000003E-002   -0.91023062025458534     
  0.10020000000000001         -1.0221457331600112     
  0.10049999999999999         -1.0427214966100036     
  0.10080000000000000        -0.97234271834049368     
  0.10110000000000001        -0.81340109438180641     
  0.10140000000000000        -0.56949608975128152     
  0.10170000000000000        -0.24588937893047483     
  0.10200000000000001         0.15128391716202833     
  0.10230000000000002         0.61434542404333059     
  0.10260000000000000          1.1331508040042644     
  0.10290000000000001          1.6954228713628436     
  0.10320000000000000          2.2857425009841998     
  0.10350000000000001          2.8855764633071672     
  0.10380000000000000          3.4731647716450018     
  0.10410000000000001          4.0240039567782935     
  0.10440000000000001          4.5127076851957248     
  0.10470000000000000          4.9131378895294855     
  0.10500000000000000          5.2002463136364119     
  0.10530000000000000          5.3525695629617820     
  0.10560000000000000          5.3527607781451891     
  0.10590000000000001          5.1895499125240852     
  0.10620000000000000          4.8588237683241866     
  0.10650000000000001          4.3633046087257128     
  0.10679999999999999          3.7129442634385268     
  0.10710000000000000          2.9233870444120469     
  0.10740000000000001          2.0154998227866323     
  0.10770000000000000          1.0134415534722503     
  0.10800000000000000         -5.7441614296020765E-002
  0.10830000000000001         -1.1713832738427654     
  0.10859999999999999         -2.3041317587417978     
  0.10890000000000000         -3.4333353156712798     
  0.10920000000000001         -4.5388789265031706     
  0.10950000000000001         -5.6028990790469901     
  0.10979999999999999         -6.6094212518901880     
  0.11009999999999999         -7.5441856299541188     
  0.11040000000000001         -8.3917770221019214     
  0.11070000000000001         -9.1366767636241075     
  0.11100000000000000         -9.7634181648322205     
  0.11130000000000000         -10.253680189291787     
  0.11160000000000002         -10.589725448725275     
  0.11190000000000001         -10.753501842432220     
  0.11220000000000001         -10.726597734612946     
  0.11250000000000000         -10.494184443124439     
  0.11280000000000000         -10.043600987930137     
  0.11309999999999999         -9.3672809169722395     
  0.11340000000000001         -8.4639100664719891     
  0.11369999999999998         -7.3366775233210104     
  0.11400000000000000         -5.9986319357288798     
  0.11430000000000000         -4.4695129310616197     
  0.11460000000000002         -2.7758975049462062     
  0.11489999999999999        -0.95362277054305922     
  0.11520000000000001         0.95622191634398801     
  0.11550000000000001          2.9061360052854135     
  0.11580000000000000          4.8429269407988169     
  0.11609999999999999          6.7114800958036067     
  0.11640000000000002          8.4535474276842457     
  0.11670000000000001          10.013373321074573     
  0.11700000000000001          11.337639752193729     
  0.11730000000000000          12.376980723987391     
  0.11760000000000000          13.092094363921507     
  0.11789999999999999          13.452513638754533     
  0.11820000000000001          13.440062469678992     
  0.11850000000000001          13.051430653011121     
  0.11880000000000000          12.297191576068997     
  0.11910000000000000          11.203074418153518     
  0.11940000000000002          9.8094138807337021     
  0.11970000000000001          8.1700897016334508     
  0.12000000000000001          6.3495855232573311     
  0.12030000000000000          4.4193253528238037     
  0.12060000000000000          2.4565248616054092     
  0.12089999999999999         0.53919574080530752     
  0.12119999999999999         -1.2581915495439684     
  0.12150000000000001         -2.8675560481678652     
  0.12180000000000001         -4.2298535732543288     
  0.12210000000000000         -5.2986239735017593     
  0.12239999999999999         -6.0415739296488704     
  0.12270000000000002         -6.4413308338954156     
  0.12300000000000001         -6.4970068156441290     
  0.12330000000000001         -6.2229437062635364     
  0.12360000000000000         -5.6480144727343236     
  0.12390000000000000         -4.8150958352578019     
  0.12419999999999999         -3.7776815319360253     
  0.12450000000000001         -2.5989594001292562     
  0.12480000000000001         -1.3482802780319272     
  0.12509999999999999         -9.8031674262522767E-002
  0.12540000000000001          1.0785934949696645     
  0.12570000000000003          2.1120519505283131     
  0.12600000000000000          2.9394325925887528     
  0.12630000000000002          3.5083274417276500     
  0.12659999999999999          3.7791554382348376     
  0.12690000000000001          3.7283164813421612     
  0.12719999999999998          3.3505377061229122     
  0.12750000000000000          2.6581043456837805     
  0.12780000000000002          1.6834063984904974     
  0.12809999999999999         0.47654353537207239     
  0.12840000000000001        -0.89804417200227993     
  0.12869999999999998         -2.3625314762176504     
  0.12900000000000000         -3.8329880639386049     
  0.12930000000000003         -5.2211509011580981     
  0.12959999999999999         -6.4410653227759838     
  0.12990000000000002         -7.4163150753140510     
  0.13019999999999998         -8.0814018077899359     
  0.13050000000000000         -8.3888120360858185     
  0.13080000000000003         -8.3124312968934504     
  0.13109999999999999         -7.8468803909178488     
  0.13140000000000002         -7.0107635970434758     
  0.13169999999999998         -5.8459772584716569     
  0.13200000000000001         -4.4141001259103305     
  0.13229999999999997         -2.7939438443337061     
  0.13260000000000000         -1.0760984134313907     
  0.13290000000000002         0.64228935835697987     
  0.13319999999999999          2.2638273301105625     
  0.13350000000000001          3.6977310125388687     
  0.13380000000000003          4.8648586109500247     
  0.13410000000000000          5.7040743572558217     
  0.13440000000000002          6.1763620053467125     
  0.13469999999999999          6.2674402828438280     
  0.13500000000000001          5.9887146579796831     
  0.13529999999999998          5.3761014593439329     
  0.13560000000000000          4.4889573760393757     
  0.13590000000000002          3.4039640215855180     
  0.13619999999999999          2.2102060206162415     
  0.13650000000000001          1.0030651089080496     
  0.13680000000000003        -0.12524769123966412     
  0.13710000000000000         -1.0902980355370169     
  0.13740000000000002         -1.8231725395728793     
  0.13769999999999999         -2.2766325112159023     
  0.13800000000000001         -2.4268359740247831     
  0.13829999999999998         -2.2770824029323489     
  0.13860000000000000         -1.8562819579348739     
  0.13890000000000002         -1.2159323368122419     
  0.13919999999999999        -0.42729235200867316     
  0.13950000000000001         0.42657525885871206     
  0.13979999999999998          1.2579574635648951     
  0.14010000000000000          1.9818379825898311     
  0.14040000000000002          2.5238616317125433     
  0.14069999999999999          2.8274526364620467     
  0.14100000000000001          2.8581554595923060     
  0.14130000000000004          2.6074237491607657     
  0.14160000000000000          2.0947601448862994     
  0.14189999999999997          1.3636078498931281     
  0.14219999999999999         0.47877505365623718     
  0.14250000000000002        -0.47944938715087015     
  0.14279999999999998         -1.4245298104130415     
  0.14310000000000000         -2.2695095670065148     
  0.14339999999999997         -2.9377989836933081     
  0.14369999999999999         -3.3696239003593984     
  0.14400000000000002         -3.5254290067176566     
  0.14429999999999998         -3.3946173120536742     
  0.14460000000000001         -2.9918289094584751     
  0.14490000000000003         -2.3558738138398025     
  0.14520000000000000         -1.5483968171049558     
  0.14550000000000002        -0.64227449201468034     
  0.14579999999999999         0.28119558552391694     
  0.14610000000000001          1.1429883263719809     
  0.14640000000000003          1.8760018346379261     
  0.14670000000000000          2.4266347865279712     
  0.14699999999999996          2.7649469346160758     
  0.14729999999999999          2.8841907946258365     
  0.14760000000000001          2.7987947441387226     
  0.14789999999999998          2.5446839326170956     
  0.14820000000000000          2.1708345430222993     