  -1.4999999999999999E-002     0.0000000000000000     
  -1.4700000000000000E-002     0.0000000000000000     
  -1.4400000000000000E-002     0.0000000000000000     
  -1.4100000000000000E-002     0.0000000000000000     
  -1.3800000000000000E-002     0.0000000000000000     
  -1.3500000000000000E-002     0.0000000000000000     
  -1.3200000000000000E-002     0.0000000000000000     
  -1.2899999999999998E-002     0.0000000000000000     
  -1.2600000000000000E-002     0.0000000000000000     
  -1.2299999999999998E-002     0.0000000000000000     
  -1.2000000000000000E-002     0.0000000000000000     
  -1.1699999999999999E-002     0.0000000000000000     
  -1.1399999999999999E-002     0.0000000000000000     
  -1.1099999999999999E-002     0.0000000000000000     
  -1.0799999999999999E-002     0.0000000000000000     
  -1.0499999999999999E-002     0.0000000000000000     
  -1.0199999999999999E-002     0.0000000000000000     
  -9.8999999999999991E-003     0.0000000000000000     
  -9.5999999999999992E-003     0.0000000000000000     
  -9.2999999999999992E-003     0.0000000000000000     
  -8.9999999999999993E-003     0.0000000000000000     
  -8.6999999999999994E-003     0.0000000000000000     
  -8.3999999999999995E-003     0.0000000000000000     
  -8.0999999999999996E-003     0.0000000000000000     
  -7.7999999999999988E-003     0.0000000000000000     
  -7.4999999999999997E-003     0.0000000000000000     
  -7.1999999999999998E-003     0.0000000000000000     
  -6.8999999999999981E-003     0.0000000000000000     
  -6.5999999999999982E-003     0.0000000000000000     
  -6.3000000000000000E-003     0.0000000000000000     
  -6.0000000000000001E-003     0.0000000000000000     
  -5.6999999999999985E-003     0.0000000000000000     
  -5.3999999999999986E-003     0.0000000000000000     
  -5.1000000000000004E-003     0.0000000000000000     
  -4.7999999999999987E-003     0.0000000000000000     
  -4.5000000000000005E-003     0.0000000000000000     
  -4.1999999999999989E-003     0.0000000000000000     
  -3.8999999999999990E-003     0.0000000000000000     
  -3.5999999999999990E-003     0.0000000000000000     
  -3.2999999999999991E-003     0.0000000000000000     
  -2.9999999999999992E-003     0.0000000000000000     
  -2.6999999999999993E-003     0.0000000000000000     
  -2.3999999999999994E-003     0.0000000000000000     
  -2.0999999999999977E-003     0.0000000000000000     
  -1.7999999999999995E-003     0.0000000000000000     
  -1.4999999999999979E-003     0.0000000000000000     
  -1.1999999999999997E-003     0.0000000000000000     
  -8.9999999999999976E-004     0.0000000000000000     
  -5.9999999999999810E-004     0.0000000000000000     
  -2.9999999999999992E-004     0.0000000000000000     
   0.0000000000000000          0.0000000000000000     
   3.0000000000000165E-004     0.0000000000000000     
   5.9999999999999984E-004     0.0000000000000000     
   9.0000000000000149E-004     0.0000000000000000     
   1.2000000000000031E-003     0.0000000000000000     
   1.5000000000000013E-003     0.0000000000000000     
   1.8000000000000030E-003     0.0000000000000000     
   2.1000000000000012E-003     0.0000000000000000     
   2.3999999999999994E-003     0.0000000000000000     
   2.7000000000000010E-003     0.0000000000000000     
   2.9999999999999992E-003     0.0000000000000000     
   3.3000000000000008E-003     0.0000000000000000     
   3.6000000000000025E-003     0.0000000000000000     
   3.9000000000000007E-003     0.0000000000000000     
   4.2000000000000023E-003     0.0000000000000000     
   4.5000000000000005E-003     0.0000000000000000     
   4.7999999999999987E-003     0.0000000000000000     
   5.1000000000000004E-003     0.0000000000000000     
   5.4000000000000020E-003     0.0000000000000000     
   5.7000000000000037E-003     0.0000000000000000     
   5.9999999999999984E-003     0.0000000000000000     
   6.3000000000000000E-003     0.0000000000000000     
   6.6000000000000017E-003     0.0000000000000000     
   6.9000000000000034E-003     0.0000000000000000     
   7.2000000000000015E-003     0.0000000000000000     
   7.5000000000000032E-003     0.0000000000000000     
   7.8000000000000014E-003     0.0000000000000000     
   8.0999999999999996E-003     0.0000000000000000     
   8.4000000000000012E-003     0.0000000000000000     
   8.7000000000000029E-003     0.0000000000000000     
   9.0000000000000011E-003     0.0000000000000000     
   9.2999999999999992E-003     0.0000000000000000     
   9.6000000000000009E-003     0.0000000000000000     
   9.8999999999999991E-003     0.0000000000000000     
   1.0200000000000001E-002     0.0000000000000000     
   1.0500000000000002E-002     0.0000000000000000     
   1.0800000000000004E-002     0.0000000000000000     
   1.1099999999999999E-002    -8.9805429992025893E-043
   1.1400000000000000E-002    -1.0771743023505477E-040
   1.1700000000000002E-002    -7.4265164028808607E-039
   1.2000000000000004E-002     5.8141081965021792E-036
   1.2300000000000002E-002     1.2707167026620213E-035
   1.2600000000000000E-002    -5.6335090996121583E-034
   1.2900000000000002E-002     1.7763152418164916E-034
   1.3200000000000000E-002     2.7618181185237807E-032
   1.3500000000000002E-002    -1.2129441650739205E-031
   1.3800000000000003E-002    -5.0302163716581230E-031
   1.4100000000000001E-002     5.9121346966028768E-030
   1.4400000000000000E-002    -1.0716381412070847E-029
   1.4700000000000001E-002    -1.0289356054572062E-028
   1.4999999999999999E-002     6.9077890159573531E-028
   1.5300000000000001E-002    -9.5699898623636201E-028
   1.5600000000000003E-002    -8.3382916541544033E-027
   1.5899999999999997E-002     5.2403291929740470E-026
   1.6199999999999999E-002    -1.0720230140361761E-025
   1.6500000000000001E-002    -2.2414698717546151E-025
   1.6800000000000002E-002     2.2036222449278062E-024
   1.7100000000000004E-002    -6.7552491860880522E-024
   1.7400000000000006E-002     6.6277766368381019E-024
   1.7700000000000000E-002     2.9358454825370633E-023
   1.8000000000000002E-002    -1.5118979448260084E-022
   1.8300000000000004E-002     3.1060398608855093E-022
   1.8600000000000005E-002    -2.0590177633354158E-023
   1.8900000000000000E-002    -2.1963079528505936E-021
   1.9200000000000002E-002     9.9716995782554630E-021
   1.9500000000000003E-002    -3.6957426242750707E-020
   1.9799999999999998E-002     1.5750402626752901E-019
   2.0100000000000000E-002    -7.5675409148814783E-019
   2.0400000000000001E-002     3.5828572880824868E-018
   2.0700000000000003E-002    -1.5894672582080769E-017
   2.0999999999999998E-002     6.6785238912727143E-017
   2.1299999999999999E-002    -2.7280501013551610E-016
   2.1600000000000001E-002     1.1025209413902757E-015
   2.1900000000000003E-002    -4.3990901871049927E-015
   2.2200000000000004E-002     1.6946209835886277E-014
   2.2500000000000006E-002    -6.0688995159153258E-014
   2.2800000000000001E-002     1.9145673352738724E-013
   2.3100000000000002E-002    -4.8443837249839759E-013
   2.3400000000000004E-002     7.3831933382211331E-013
   2.3699999999999999E-002     8.5673822271382993E-013
   2.4000000000000000E-002    -1.0822112771329021E-011
   2.4300000000000002E-002     4.0557741365748268E-011
   2.4599999999999997E-002    -7.9218306387177192E-011
   2.4900000000000005E-002     2.1395570582373163E-012
   2.5200000000000000E-002     4.8212856670008486E-010
   2.5499999999999995E-002    -1.2865929847796560E-009
   2.5800000000000003E-002     3.9492318147145589E-010
   2.6099999999999998E-002     5.4719203855922818E-009
   2.6400000000000007E-002    -1.0082097072328746E-008
   2.6700000000000002E-002    -1.0807992630585418E-008
   2.6999999999999996E-002     4.7967039500718184E-008
   2.7300000000000005E-002     1.2783969191383915E-008
   2.7600000000000000E-002    -1.7195722264482368E-007
   2.7900000000000008E-002    -7.1539186310885341E-008
   2.8200000000000003E-002     4.6592376681847580E-007
   2.8499999999999998E-002     4.3539052897030456E-007
   2.8800000000000006E-002    -9.2191845908972743E-007
   2.9100000000000001E-002    -1.7273800016479482E-006
   2.9400000000000003E-002     1.3124497726201406E-006
   2.9700000000000004E-002     8.0857965375829164E-006
   3.0000000000000006E-002     1.4120395330791673E-005
   3.0300000000000001E-002     1.7156288383388411E-005
   3.0600000000000002E-002     2.2751640466943135E-005
   3.0900000000000004E-002     3.9758801550692344E-005
   3.1199999999999999E-002     7.0932677159978323E-005
   3.1500000000000007E-002     1.1275287625663422E-004
   3.1800000000000002E-002     1.6675558430342697E-004
   3.2099999999999997E-002     2.4725892232367353E-004
   3.2400000000000005E-002     3.7444666703245381E-004
   3.2700000000000000E-002     5.6347934582938518E-004
   3.3000000000000002E-002     8.2694831983888106E-004
   3.3300000000000003E-002     1.1887903126347992E-003
   3.3599999999999998E-002     1.6905098101941574E-003
   3.3900000000000000E-002     2.3815958537738552E-003
   3.4200000000000001E-002     3.3097581935400320E-003
   3.4500000000000003E-002     4.5259096388735563E-003
   3.4799999999999998E-002     6.0950096308192885E-003
   3.5099999999999999E-002     8.0942287299576657E-003
   3.5400000000000001E-002     1.0597666232449537E-002
   3.5699999999999996E-002     1.3664652996854872E-002
   3.6000000000000004E-002     1.7338842358398675E-002
   3.6299999999999999E-002     2.1647149566197524E-002
   3.6600000000000008E-002     2.6585727143952669E-002
   3.6900000000000002E-002     3.2098362705226917E-002
   3.7199999999999997E-002     3.8060037208103067E-002
   3.7500000000000006E-002     4.4272773897572802E-002
   3.7800000000000000E-002     5.0467088757092368E-002
   3.8100000000000009E-002     5.6294410976686388E-002
   3.8400000000000004E-002     6.1322086623584016E-002
   3.8699999999999998E-002     6.5045729088143628E-002
   3.9000000000000007E-002     6.6920624484359481E-002
   3.9300000000000002E-002     6.6403302730242197E-002
   3.9600000000000003E-002     6.2988545698547907E-002
   3.9900000000000005E-002     5.6247684493877688E-002
   4.0200000000000000E-002     4.5886343182975652E-002
   4.0500000000000001E-002     3.1804860643135063E-002
   4.0800000000000003E-002     1.4144394360717530E-002
   4.1100000000000005E-002    -6.6802623536711013E-003
   4.1399999999999999E-002    -2.9981991465675512E-002
   4.1700000000000008E-002    -5.4819178159629008E-002
   4.2000000000000003E-002    -8.0003651183705879E-002
   4.2299999999999997E-002   -0.10417076536433702     
   4.2600000000000006E-002   -0.12588121210225883     
   4.2900000000000001E-002   -0.14372214760452995     
   4.3200000000000002E-002   -0.15643280442185029     
   4.3500000000000004E-002   -0.16299850482617476     
   4.3799999999999999E-002   -0.16274239398069140     
   4.4100000000000000E-002   -0.15543026775607344     
   4.4400000000000002E-002   -0.14131782023902190     
   4.4700000000000004E-002   -0.12114490053909510     
   4.4999999999999998E-002    -9.6111338426584286E-002
   4.5300000000000000E-002    -6.7775565389058989E-002
   4.5600000000000002E-002    -3.7989406584119312E-002
   4.5899999999999996E-002    -8.7721249657681105E-003
   4.6200000000000005E-002     1.7862995240890415E-002
   4.6500000000000000E-002     4.0035821461988155E-002
   4.6799999999999994E-002     5.6126364253125165E-002
   4.7100000000000003E-002     6.4900420059088471E-002
   4.7399999999999998E-002     6.5556358863686437E-002
   4.7700000000000006E-002     5.7793753227865827E-002
   4.8000000000000001E-002     4.1845678705816625E-002
   4.8300000000000010E-002     1.8433511754377310E-002
   4.8600000000000004E-002    -1.1269332935784557E-002
   4.8899999999999999E-002    -4.5705857645261819E-002
   4.9200000000000008E-002    -8.3034954941529696E-002
   4.9500000000000002E-002   -0.12119568401308004     
   4.9800000000000011E-002   -0.15802594942135184     
   5.0100000000000006E-002   -0.19138470148560510     
   5.0400000000000000E-002   -0.21924205643027572     
   5.0700000000000009E-002   -0.23979790679252011     
   5.1000000000000004E-002   -0.25155466785639097     
   5.1299999999999998E-002   -0.25338945756527737     
   5.1600000000000007E-002   -0.24467076938793247     
   5.1900000000000002E-002   -0.22530247484529714     
   5.2200000000000010E-002   -0.19569060475921932     
   5.2500000000000005E-002   -0.15675048091828075     
   5.2800000000000000E-002   -0.10988938653359329     
   5.3099999999999994E-002    -5.6914330849658884E-002
   5.3400000000000003E-002     5.9129147581210052E-005
   5.3699999999999998E-002     5.8764636981685367E-002
   5.4000000000000006E-002    0.11692299700350983     
   5.4300000000000001E-002    0.17234291241436453     
   5.4599999999999996E-002    0.22308122082429233     
   5.4900000000000004E-002    0.26755101448916374     
   5.5199999999999999E-002    0.30457214644686131     
   5.5499999999999994E-002    0.33344828590533221     
   5.5800000000000002E-002    0.35394373155099124     
   5.6099999999999997E-002    0.36623637525702618     
   5.6400000000000006E-002    0.37086832439767597     
   5.6700000000000000E-002    0.36865376910042003     
   5.6999999999999995E-002    0.36058679145359984     
   5.7300000000000004E-002    0.34772853271923199     
   5.7599999999999998E-002    0.33109481365830196     
   5.7900000000000007E-002    0.31160258036217792     
   5.8200000000000002E-002    0.29000634094846955     
   5.8499999999999996E-002    0.26684980385722334     
   5.8800000000000005E-002    0.24245683142501129     
   5.9100000000000000E-002    0.21693356975455141     
   5.9400000000000008E-002    0.19022884520502267     
   5.9700000000000003E-002    0.16215674297546168     
   6.0000000000000012E-002    0.13247500961542921     
   6.0300000000000006E-002    0.10098076611711809     
   6.0600000000000001E-002     6.7561649588326014E-002
   6.0900000000000010E-002     3.2286680721709489E-002
   6.1200000000000004E-002    -4.5032309888890718E-003
   6.1500000000000013E-002    -4.2145285090084569E-002
   6.1800000000000008E-002    -7.9640542245929938E-002
   6.2100000000000002E-002   -0.11567815310706157     
   6.2399999999999997E-002   -0.14866468154670787     
   6.2700000000000006E-002   -0.17679652916587302     
   6.3000000000000000E-002   -0.19818869643099771     
   6.3300000000000009E-002   -0.21106988170409247     
   6.3600000000000004E-002   -0.21395686500945899     
   6.3899999999999998E-002   -0.20580069038982521     
   6.4199999999999993E-002   -0.18615917313616540     
   6.4500000000000002E-002   -0.15534369520384272     
   6.4800000000000010E-002   -0.11446837363424731     
   6.5100000000000005E-002    -6.5468663474719274E-002
   6.5400000000000000E-002    -1.1003925606853805E-002
   6.5700000000000008E-002     4.5694432157656881E-002
   6.5999999999999989E-002    0.10099078398615012     
   6.6299999999999998E-002    0.15114908658698867     
   6.6600000000000006E-002    0.19259179157025139     
   6.6900000000000001E-002    0.22216113092749992     
   6.7199999999999996E-002    0.23738617626949798     
   6.7500000000000004E-002    0.23666535125811022     
   6.7800000000000013E-002    0.21937245781497880     
   6.8099999999999994E-002    0.18592054143084752     
   6.8400000000000002E-002    0.13773344255588249     
   6.8700000000000011E-002     7.7142344839000759E-002
   6.8999999999999992E-002     7.2244469416967751E-003
   6.9300000000000000E-002    -6.8420447835124659E-002
   6.9600000000000009E-002   -0.14580558786655912     
   6.9900000000000004E-002   -0.22080001009162809     
   7.0199999999999999E-002   -0.28941888289713658     
   7.0500000000000007E-002   -0.34798749438924209     
   7.0800000000000016E-002   -0.39327150535000721     
   7.1099999999999997E-002   -0.42265226606266321     
   7.1400000000000005E-002   -0.43426143232351061     
   7.1700000000000000E-002   -0.42709843547056037     
   7.1999999999999995E-002   -0.40111486520088424     
   7.2300000000000003E-002   -0.35718059264231750     
   7.2600000000000012E-002   -0.29709296374136840     
   7.2900000000000006E-002   -0.22354938120715617     
   7.3200000000000001E-002   -0.14002494175591662     
   7.3499999999999996E-002    -5.0602622821234906E-002
   7.3800000000000004E-002     4.0283837362177249E-002
   7.4099999999999999E-002    0.12812011956262045     
   7.4400000000000008E-002    0.20850112461679313     
   7.4700000000000003E-002    0.27748331258437575     
   7.5000000000000011E-002    0.33185334585895654     
   7.5299999999999992E-002    0.36925105379560336     
   7.5600000000000001E-002    0.38834916697880412     
   7.5900000000000009E-002    0.38886205936608187     
   7.6200000000000004E-002    0.37147515113323393     
   7.6499999999999999E-002    0.33773413060898821     
   7.6800000000000007E-002    0.28979746995825273     
   7.7099999999999988E-002    0.23018110441038042     
   7.7399999999999997E-002    0.16153850805911063     
   7.7700000000000005E-002     8.6437514869303067E-002
   7.8000000000000014E-002     7.1584330038995826E-003
   7.8299999999999995E-002    -7.4401233648315135E-002
   7.8600000000000003E-002   -0.15676145668456640     
   7.8900000000000012E-002   -0.23879591743891715     
   7.9199999999999993E-002   -0.31958555971790681     
   7.9500000000000001E-002   -0.39826878425066248     
   7.9800000000000010E-002   -0.47389022870148745     
   8.0100000000000018E-002   -0.54524450867380581     
   8.0399999999999999E-002   -0.61072987411313118     
   8.0700000000000008E-002   -0.66832805113309124     
   8.1000000000000003E-002   -0.71562993578538436     
   8.1299999999999997E-002   -0.74999410006044376     
   8.1600000000000006E-002   -0.76874754182184835     
   8.1900000000000014E-002   -0.76936140203902870     
   8.2199999999999995E-002   -0.74980515948018034     
   8.2500000000000004E-002   -0.70874156851549586     
   8.2799999999999999E-002   -0.64574074752033817     
   8.3100000000000007E-002   -0.56153677882717612     
   8.3400000000000002E-002   -0.45800847950863344     
   8.3700000000000011E-002   -0.33806733715405446     
   8.4000000000000005E-002   -0.20556770435615657     
   8.4300000000000000E-002    -6.5115728630475017E-002
   8.4599999999999995E-002     7.8193724220100513E-002
   8.4900000000000003E-002    0.21917587768411184     
   8.5199999999999998E-002    0.35292876290069164     
   8.5500000000000007E-002    0.47496330413276144     
   8.5800000000000001E-002    0.58149182943907185     
   8.6100000000000010E-002    0.66963376844950306     
   8.6399999999999991E-002    0.73737693005633809     
   8.6699999999999999E-002    0.78359038157378003     
   8.7000000000000008E-002    0.80796490187094516     
   8.7300000000000003E-002    0.81083516863662619     
   8.7599999999999997E-002    0.79316572012767317     
   8.7900000000000006E-002    0.75642056222678988     
   8.8200000000000014E-002    0.70238286272085459     
   8.8499999999999995E-002    0.63322964833473905     
   8.8800000000000004E-002    0.55151593526342957     
   8.9100000000000013E-002    0.46024813338204951     
   8.9399999999999993E-002    0.36289121866368002     
   8.9700000000000002E-002    0.26326943352260923     
   9.0000000000000011E-002    0.16563152708546972     
   9.0299999999999991E-002     7.4505621979681441E-002
   9.0600000000000000E-002    -5.5783574800223838E-003
   9.0900000000000009E-002    -7.0329850602064342E-002
   9.1200000000000017E-002   -0.11601957788621427     
   9.1499999999999998E-002   -0.13990338376216474     
   9.1800000000000007E-002   -0.14053763186287166     
   9.2100000000000001E-002   -0.11804398042953318     
   9.2399999999999996E-002    -7.4304479016330083E-002
   9.2700000000000005E-002    -1.2931557561970116E-002
   9.3000000000000013E-002     6.0847808281222132E-002
   9.3300000000000008E-002    0.14046750523334312     
   9.3600000000000003E-002    0.21848900612196839     
   9.3899999999999997E-002    0.28722499877256230     
   9.4200000000000006E-002    0.33931753370634016     
   9.4500000000000001E-002    0.36844275049010600     
   9.4800000000000009E-002    0.36985623422806124     
   9.5100000000000004E-002    0.34081111634781125     
   9.5399999999999999E-002    0.28101272741427119     
   9.5699999999999993E-002    0.19266534564266299     
   9.6000000000000002E-002     8.0377741769000255E-002
   9.6300000000000011E-002    -4.9085389080751420E-002
   9.6600000000000005E-002   -0.18738601591233109     
   9.6900000000000000E-002   -0.32508285259702108     
   9.7200000000000009E-002   -0.45235221413031834     
   9.7499999999999989E-002   -0.55990807098328599     
   9.7799999999999998E-002   -0.63947678823004850     
   9.8100000000000007E-002   -0.68439308704681601     
   9.8400000000000015E-002   -0.69029948617487091     
   9.8699999999999996E-002   -0.65535267687239962     
   9.9000000000000005E-002   -0.58034050033496010     
   9.9300000000000013E-002   -0.46866650140766608     
   9.9599999999999994E-002   -0.32612104059372182     
   9.9900000000000003E-002   -0.16077509442625743     
  0.10020000000000001          1.7625142120521332E-002
  0.10049999999999999         0.19831443082952985     
  0.10080000000000000         0.36984988106089700     
  0.10110000000000001         0.52085702405808110     
  0.10140000000000000         0.64072243714503441     
  0.10170000000000000         0.72011604919717265     
  0.10200000000000001         0.75174674129613739     
  0.10230000000000002         0.73077909889691905     
  0.10260000000000000         0.65507446391419810     
  0.10290000000000001         0.52576764042946977     
  0.10320000000000000         0.34728546290644680     
  0.10350000000000001         0.12707656611690341     
  0.10380000000000000        -0.12452634277218708     
  0.10410000000000001        -0.39492421445651688     
  0.10440000000000001        -0.66991556472710767     
  0.10470000000000000        -0.93438673609786260     
  0.10500000000000000         -1.1733883076496188     
  0.10530000000000000         -1.3730042038579826     
  0.10560000000000000         -1.5211459044995128     
  0.10590000000000001         -1.6083523901921790     
  0.10620000000000000         -1.6281885499536033     
  0.10650000000000001         -1.5777031916744639     
  0.10679999999999999         -1.4576188797755310     
  0.10710000000000000         -1.2718391408724050     
  0.10740000000000001         -1.0272547092527762     
  0.10770000000000000        -0.73350394900285076     
  0.10800000000000000        -0.40205418013660271     
  0.10830000000000001         -4.5534144499562917E-002
  0.10859999999999999         0.32291116465867120     
  0.10890000000000000         0.69040661696063188     
  0.10920000000000001          1.0447701228078996     
  0.10950000000000001          1.3749700188994998     
  0.10979999999999999          1.6716698077921923     
  0.11009999999999999          1.9271671414244702     
  0.11040000000000001          2.1356276576258670     
  0.11070000000000001          2.2930171958602497     
  0.11100000000000000          2.3966346322082046     
  0.11130000000000000          2.4451086497913552     
  0.11160000000000002          2.4380323323762010     
  0.11190000000000001          2.3755216131275567     
  0.11220000000000001          2.2581788546233343     
  0.11250000000000000          2.0868490765691137     
  0.11280000000000000          1.8625150911965056     
  0.11309999999999999          1.5866462535851544     
  0.11340000000000001          1.2612565893276722     
  0.11369999999999998         0.88930726393589010     
  0.11400000000000000         0.47521376428838824     
  0.11430000000000000          2.5118620599161423E-002
  0.11460000000000002        -0.45272223188234267     
  0.11489999999999999        -0.94773107486147579     
  0.11520000000000001         -1.4470607852264461     
  0.11550000000000001         -1.9357183821636488     
  0.11580000000000000         -2.3971280322116977     
  0.11609999999999999         -2.8138747109914193     
  0.11640000000000002         -3.1682535780230676     
  0.11670000000000001         -3.4434398937818744     
  0.11700000000000001         -3.6246381680918267     
  0.11730000000000000         -3.6996484851960987     
  0.11760000000000000         -3.6598432456811922     
  0.11789999999999999         -3.5010077956333641     
  0.11820000000000001         -3.2236112866131710     
  0.11850000000000001         -2.8329374618713477     
  0.11880000000000000         -2.3391544277767022     
  0.11910000000000000         -1.7571327590623051     
  0.11940000000000002         -1.1058630329780716     
  0.11970000000000001        -0.40766069981288366     
  0.12000000000000001         0.31268480162752005     
  0.12030000000000000          1.0286184855196663     
  0.12060000000000000          1.7131305574490669     
  0.12089999999999999          2.3400456929804214     
  0.12119999999999999          2.8848052215955007     
  0.12150000000000001          3.3257954938336529     
  0.12180000000000001          3.6454926187371028     
  0.12210000000000000          3.8310661222939633     
  0.12239999999999999          3.8751856636653956     
  0.12270000000000002          3.7764317178485864     
  0.12300000000000001          3.5392131277464589     
  0.12330000000000001          3.1737772911017439     
  0.12360000000000000          2.6955793683361429     
  0.12390000000000000          2.1244370358643176     
  0.12419999999999999          1.4836806780920049     
  0.12450000000000001         0.79876520046865507     
  0.12480000000000001          9.6233421925363161E-002
  0.12509999999999999        -0.59724408656768069     
  0.12540000000000001         -1.2561774333391162     
  0.12570000000000003         -1.8570063205339120     
  0.12600000000000000         -2.3787539974786513     
  0.12630000000000002         -2.8036503772022918     
  0.12659999999999999         -3.1171599140490094     
  0.12690000000000001         -3.3085045823193160     
  0.12719999999999998         -3.3710149028892920     
  0.12750000000000000         -3.3020277414889385     
  0.12780000000000002         -3.1031548646595004     
  0.12809999999999999         -2.7805703159919264     
  0.12840000000000001         -2.3450631937378281     
  0.12869999999999998         -1.8120821747136939     
  0.12900000000000000         -1.2016548724882288     
  0.12930000000000003        -0.53790459228670140     
  0.12959999999999999         0.15159471539345248     
  0.12990000000000002         0.83715864822495678     
  0.13019999999999998          1.4882932558090740     
  0.13050000000000000          2.0749390059007906     
  0.13080000000000003          2.5697097661400461     
  0.13109999999999999          2.9496590917561512     
  0.13140000000000002          3.1974559577415356     
  0.13169999999999998          3.3027894982632797     
  0.13200000000000001          3.2630794854525718     
  0.13229999999999997          3.0834579764885626     
  0.13260000000000000          2.7765951065897796     
  0.13290000000000002          2.3614354242895255     
  0.13319999999999999          1.8617291894630208     
  0.13350000000000001          1.3046590456010696     
  0.13380000000000003         0.71855118822787678     
  0.13410000000000000         0.13117298937767369     
  0.13440000000000002        -0.43158686642780958     
  0.13469999999999999        -0.94737653317387627     
  0.13500000000000001         -1.3980556796226347     
  0.13529999999999998         -1.7703249859714234     
  0.13560000000000000         -2.0560045634107440     
  0.13590000000000002         -2.2512890302286594     
  0.13619999999999999         -2.3568397501134992     
  0.13650000000000001         -2.3774339498510679     
  0.13680000000000003         -2.3205197699663045     
  0.13710000000000000         -2.1960942006357960     
  0.13740000000000002         -2.0162587289629341     
  0.13769999999999999         -1.7940968363184826     
  0.13800000000000001         -1.5434016268537034     
  0.13829999999999998         -1.2778551392820860     
  0.13860000000000000         -1.0102558846972434     
  0.13890000000000002        -0.75237774233031696     
  0.13919999999999999        -0.51389011764998749     
  0.13950000000000001        -0.30171647345199382     
  0.13979999999999998        -0.11980743625940515     
  0.14010000000000000          3.1474982716353489E-002
  0.14040000000000002         0.15504022047640439     
  0.14069999999999999         0.25670558552715295     
  0.14100000000000001         0.34528072907405188     
  0.14130000000000004         0.43136272954134774     
  0.14160000000000000         0.52587952464586341     
  0.14189999999999997         0.63919209768673890     
  0.14219999999999999         0.77959293903097659     
  0.14250000000000002         0.95222703590580715     
  0.14279999999999998          1.1581753210531471     
  0.14310000000000000          1.3933008419415334     
  0.14339999999999997          1.6482361956186580     
  0.14369999999999999          1.9089735683391051     
  0.14400000000000002          2.1571295243383339     
  0.14429999999999998          2.3711698793804947     
  0.14460000000000001          2.5282057402435356     
  0.14490000000000003          2.6054517499127190     
  0.14520000000000000          2.5827401845300164     
  0.14550000000000002          2.4443213506351160     
  0.14579999999999999          2.1802301011012997     
  0.14610000000000001          1.7881394994238999     
  0.14640000000000003          1.2740618828152890     
  0.14670000000000000         0.65295276110374079     
  0.14699999999999996         -5.1256954806254362E-002
  0.14729999999999999        -0.80744501101560040     
  0.14760000000000001         -1.5786372679005161     
  0.14789999999999998         -2.3233841187985851     
  0.14820000000000000         -2.9990022999500190     