  -1.4999999999999999E-002     0.0000000000000000     
  -1.4700000000000000E-002     0.0000000000000000     
  -1.4400000000000000E-002     0.0000000000000000     
  -1.4100000000000000E-002     0.0000000000000000     
  -1.3800000000000000E-002     0.0000000000000000     
  -1.3500000000000000E-002     0.0000000000000000     
  -1.3200000000000000E-002     0.0000000000000000     
  -1.2899999999999998E-002     0.0000000000000000     
  -1.2600000000000000E-002     0.0000000000000000     
  -1.2299999999999998E-002     0.0000000000000000     
  -1.2000000000000000E-002     0.0000000000000000     
  -1.1699999999999999E-002     0.0000000000000000     
  -1.1399999999999999E-002     0.0000000000000000     
  -1.1099999999999999E-002     0.0000000000000000     
  -1.0799999999999999E-002     0.0000000000000000     
  -1.0499999999999999E-002     0.0000000000000000     
  -1.0199999999999999E-002     0.0000000000000000     
  -9.8999999999999991E-003     0.0000000000000000     
  -9.5999999999999992E-003     0.0000000000000000     
  -9.2999999999999992E-003     0.0000000000000000     
  -8.9999999999999993E-003     0.0000000000000000     
  -8.6999999999999994E-003     0.0000000000000000     
  -8.3999999999999995E-003     0.0000000000000000     
  -8.0999999999999996E-003     0.0000000000000000     
  -7.7999999999999988E-003     0.0000000000000000     
  -7.4999999999999997E-003     0.0000000000000000     
  -7.1999999999999998E-003     0.0000000000000000     
  -6.8999999999999981E-003     0.0000000000000000     
  -6.5999999999999982E-003     0.0000000000000000     
  -6.3000000000000000E-003     0.0000000000000000     
  -6.0000000000000001E-003     0.0000000000000000     
  -5.6999999999999985E-003     0.0000000000000000     
  -5.3999999999999986E-003     0.0000000000000000     
  -5.1000000000000004E-003     0.0000000000000000     
  -4.7999999999999987E-003     0.0000000000000000     
  -4.5000000000000005E-003     0.0000000000000000     
  -4.1999999999999989E-003     0.0000000000000000     
  -3.8999999999999990E-003     0.0000000000000000     
  -3.5999999999999990E-003     0.0000000000000000     
  -3.2999999999999991E-003     0.0000000000000000     
  -2.9999999999999992E-003     0.0000000000000000     
  -2.6999999999999993E-003     0.0000000000000000     
  -2.3999999999999994E-003     0.0000000000000000     
  -2.0999999999999977E-003     0.0000000000000000     
  -1.7999999999999995E-003     0.0000000000000000     
  -1.4999999999999979E-003     0.0000000000000000     
  -1.1999999999999997E-003     0.0000000000000000     
  -8.9999999999999976E-004     0.0000000000000000     
  -5.9999999999999810E-004     0.0000000000000000     
  -2.9999999999999992E-004     0.0000000000000000     
   0.0000000000000000          0.0000000000000000     
   3.0000000000000165E-004     0.0000000000000000     
   5.9999999999999984E-004     0.0000000000000000     
   9.0000000000000149E-004     0.0000000000000000     
   1.2000000000000031E-003     0.0000000000000000     
   1.5000000000000013E-003     0.0000000000000000     
   1.8000000000000030E-003     0.0000000000000000     
   2.1000000000000012E-003     0.0000000000000000     
   2.3999999999999994E-003     0.0000000000000000     
   2.7000000000000010E-003     0.0000000000000000     
   2.9999999999999992E-003     0.0000000000000000     
   3.3000000000000008E-003     0.0000000000000000     
   3.6000000000000025E-003     0.0000000000000000     
   3.9000000000000007E-003     0.0000000000000000     
   4.2000000000000023E-003    -3.2341996969480714E-058
   4.5000000000000005E-003     2.3662856299531935E-044
   4.7999999999999987E-003    -8.7338269261168852E-043
   5.1000000000000004E-003     4.8159819133500043E-037
   5.4000000000000020E-003     7.9002299518049296E-036
   5.7000000000000037E-003    -7.5196249354162938E-035
   5.9999999999999984E-003     4.2836766476762900E-034
   6.3000000000000000E-003     1.2192215733921804E-034
   6.6000000000000017E-003    -2.7492292261994121E-032
   6.9000000000000034E-003     1.8066568081181790E-031
   7.2000000000000015E-003     1.2371613083440189E-031
   7.5000000000000032E-003    -6.9767655786860431E-030
   7.8000000000000014E-003     2.9026367656824532E-029
   8.0999999999999996E-003     6.1388888756885584E-029
   8.4000000000000012E-003    -1.0436207527001057E-027
   8.7000000000000029E-003     3.7054102964696066E-027
   9.0000000000000011E-003     3.2254314293841925E-027
   9.2999999999999992E-003    -8.4463508538991079E-026
   9.6000000000000009E-003     3.6352884948040031E-025
   9.8999999999999991E-003    -5.3191452515120152E-025
   1.0200000000000001E-002    -2.1868063073420743E-024
   1.0500000000000002E-002     1.6188353378031484E-023
   1.0800000000000004E-002    -4.9579557426350681E-023
   1.1099999999999999E-002     6.4023501718664348E-023
   1.1400000000000000E-002     1.4298379644490003E-022
   1.1700000000000002E-002    -1.0207600694910236E-021
   1.2000000000000004E-002     2.7620528061743967E-021
   1.2300000000000002E-002    -3.0776176513377418E-021
   1.2600000000000000E-002    -6.9920326520679160E-021
   1.2900000000000002E-002     4.1849722154122173E-020
   1.3200000000000000E-002    -8.0639565280038825E-020
   1.3500000000000002E-002    -1.1945715158993626E-019
   1.3800000000000003E-002     1.6544314419846785E-018
   1.4100000000000001E-002    -8.4839574383797655E-018
   1.4400000000000000E-002     3.4649527664677289E-017
   1.4700000000000001E-002    -1.3567520278744705E-016
   1.4999999999999999E-002     5.6001903004309247E-016
   1.5300000000000001E-002    -2.4642673130126971E-015
   1.5600000000000003E-002     1.0952827770972612E-014
   1.5899999999999997E-002    -4.5940437942143049E-014
   1.6199999999999999E-002     1.7127981216128907E-013
   1.6500000000000001E-002    -5.3142287663630402E-013
   1.6800000000000002E-002     1.2092601828992238E-012
   1.7100000000000004E-002    -1.1146093953731599E-012
   1.7400000000000006E-002    -5.5696312437561454E-012
   1.7700000000000000E-002     3.3112323719368275E-011
   1.8000000000000002E-002    -8.5852196304295844E-011
   1.8300000000000004E-002     6.7748690503874594E-011
   1.8600000000000005E-002     3.2677613015357441E-010
   1.8900000000000000E-002    -1.2097952641765380E-009
   1.9200000000000002E-002     9.1368454608173518E-010
   1.9500000000000003E-002     4.2117089711208730E-009
   1.9799999999999998E-002    -9.9296623171175301E-009
   2.0100000000000000E-002    -7.3735114805060109E-009
   2.0400000000000001E-002     4.4198530166359408E-008
   2.0700000000000003E-002     9.7279545660069779E-009
   2.0999999999999998E-002    -1.6832292614843076E-007
   2.1299999999999999E-002    -9.3119304940567466E-008
   2.1600000000000001E-002     4.5951006430477874E-007
   2.1900000000000003E-002     5.4358519084735009E-007
   2.2200000000000004E-002    -8.0837183758754501E-007
   2.2500000000000006E-002    -1.9179675613223761E-006
   2.2800000000000001E-002     8.0269938014833530E-007
   2.3100000000000002E-002     7.8335147648018863E-006
   2.3400000000000004E-002     1.4674834731924021E-005
   2.3699999999999999E-002     1.8172293077727067E-005
   2.4000000000000000E-002     2.3435944682775739E-005
   2.4300000000000002E-002     4.0376802082637627E-005
   2.4599999999999997E-002     7.3240926433791278E-005
   2.4900000000000005E-002     1.1855026485886265E-004
   2.5200000000000000E-002     1.7640477146808862E-004
   2.5499999999999995E-002     2.6055361500455619E-004
   2.5800000000000003E-002     3.9329451189529984E-004
   2.6099999999999998E-002     5.9308863528796088E-004
   2.6400000000000007E-002     8.7440792093939799E-004
   2.6700000000000002E-002     1.2619426906498744E-003
   2.6999999999999996E-002     1.7994528875565972E-003
   2.7300000000000005E-002     2.5415413789355405E-003
   2.7600000000000000E-002     3.5426499086050351E-003
   2.7900000000000008E-002     4.8608453908474993E-003
   2.8200000000000003E-002     6.5694340909483459E-003
   2.8499999999999998E-002     8.7560367054421578E-003
   2.8800000000000006E-002     1.1506988702544487E-002
   2.9100000000000001E-002     1.4895185162264181E-002
   2.9400000000000003E-002     1.8979522917743328E-002
   2.9700000000000004E-002     2.3802192738012089E-002
   3.0000000000000006E-002     2.9371926694399104E-002
   3.0300000000000001E-002     3.5640390990855510E-002
   3.0600000000000002E-002     4.2487176769879356E-002
   3.0900000000000004E-002     4.9714061307657285E-002
   3.1199999999999999E-002     5.7035776745673825E-002
   3.1500000000000007E-002     6.4071054492089607E-002
   3.1800000000000002E-002     7.0340583763959255E-002
   3.2099999999999997E-002     7.5278053351963331E-002
   3.2400000000000005E-002     7.8256638438832876E-002
   3.2700000000000000E-002     7.8626350364196421E-002
   3.3000000000000002E-002     7.5757689580003021E-002
   3.3300000000000003E-002     6.9091579443327722E-002
   3.3599999999999998E-002     5.8198087967628633E-002
   3.3900000000000000E-002     4.2846228589944121E-002
   3.4200000000000001E-002     2.3058926827992422E-002
   3.4500000000000003E-002    -8.5233604070775529E-004
   3.4799999999999998E-002    -2.8262995558117746E-002
   3.5099999999999999E-002    -5.8229335825122547E-002
   3.5400000000000001E-002    -8.9519405462904073E-002
   3.5699999999999996E-002   -0.12067666805018878     
   3.6000000000000004E-002   -0.15010596169022830     
   3.6299999999999999E-002   -0.17618454247260051     
   3.6600000000000008E-002   -0.19738786517919568     
   3.6900000000000002E-002   -0.21241181005615700     
   3.7199999999999997E-002   -0.22029183994636964     
   3.7500000000000006E-002   -0.22049826340615139     
   3.7800000000000000E-002   -0.21300206802905361     
   3.8100000000000009E-002   -0.19830074414320348     
   3.8400000000000004E-002   -0.17739116468273475     
   3.8699999999999998E-002   -0.15171330349397222     
   3.9000000000000007E-002   -0.12305379501007031     
   3.9300000000000002E-002    -9.3397801791298016E-002
   3.9600000000000003E-002    -6.4793935500473937E-002
   3.9900000000000005E-002    -3.9229452233273211E-002
   4.0200000000000000E-002    -1.8465536940495533E-002
   4.0500000000000001E-002    -3.9135758293105533E-003
   4.0800000000000003E-002     3.4428442186945829E-003
   4.1100000000000005E-002     3.1055034766344974E-003
   4.1399999999999999E-002    -4.9268733688046223E-003
   4.1700000000000008E-002    -2.0151515423289294E-002
   4.2000000000000003E-002    -4.1574822444812171E-002
   4.2299999999999997E-002    -6.7794326830389023E-002
   4.2600000000000006E-002    -9.7079990639905189E-002
   4.2900000000000001E-002   -0.12745843813963442     
   4.3200000000000002E-002   -0.15677753182557283     
   4.3500000000000004E-002   -0.18280042854860770     
   4.3799999999999999E-002   -0.20336620660985458     
   4.4100000000000000E-002   -0.21647672460858614     
   4.4400000000000002E-002   -0.22037731121974891     
   4.4700000000000004E-002   -0.21369711924337220     
   4.4999999999999998E-002   -0.19554155750395730     
   4.5300000000000000E-002   -0.16554980932823765     
   4.5600000000000002E-002   -0.12395358036862970     
   4.5899999999999996E-002    -7.1580920753649899E-002
   4.6200000000000005E-002    -9.8596570255921542E-003
   4.6500000000000000E-002     5.9281831910805320E-002
   4.6799999999999994E-002    0.13356471606625062     
   4.7100000000000003E-002    0.21042611577421333     
   4.7399999999999998E-002    0.28721682428200540     
   4.7700000000000006E-002    0.36138613524292501     
   4.8000000000000001E-002    0.43059625010184360     
   4.8300000000000010E-002    0.49287419544612038     
   4.8600000000000004E-002    0.54668303564801213     
   4.8899999999999999E-002    0.59095003606448304     
   4.9200000000000008E-002    0.62506785513290097     
   4.9500000000000002E-002    0.64881458473629749     
   4.9800000000000011E-002    0.66226949903710342     
   5.0100000000000006E-002    0.66573467437775335     
   5.0400000000000000E-002    0.65961125003754928     
   5.0700000000000009E-002    0.64429988846897657     
   5.1000000000000004E-002    0.62012579265033585     
   5.1299999999999998E-002    0.58729304891715306     
   5.1600000000000007E-002    0.54593701946410278     
   5.1900000000000002E-002    0.49617670503407085     
   5.2200000000000010E-002    0.43814323591819382     
   5.2500000000000005E-002    0.37206379529147515     
   5.2800000000000000E-002    0.29836688101976044     
   5.3099999999999994E-002    0.21777406701472396     
   5.3400000000000003E-002    0.13137696773556198     
   5.3699999999999998E-002     4.0648987743217249E-002
   5.4000000000000006E-002    -5.2584093205759089E-002
   5.4300000000000001E-002   -0.14615221894009212     
   5.4599999999999996E-002   -0.23758786140976276     
   5.4900000000000004E-002   -0.32427320692926048     
   5.5199999999999999E-002   -0.40353972573708285     
   5.5499999999999994E-002   -0.47281713145792609     
   5.5800000000000002E-002   -0.52979976748046265     
   5.6099999999999997E-002   -0.57254166143994012     
   5.6400000000000006E-002   -0.59957129396755804     
   5.6700000000000000E-002   -0.60998273418101967     
   5.6999999999999995E-002   -0.60354072267905690     
   5.7300000000000004E-002   -0.58070284446470410     
   5.7599999999999998E-002   -0.54254538072772496     
   5.7900000000000007E-002   -0.49070382339234686     
   5.8200000000000002E-002   -0.42732057205300927     
   5.8499999999999996E-002   -0.35493982118074302     
   5.8800000000000005E-002   -0.27639013896888570     
   5.9100000000000000E-002   -0.19469725085585551     
   5.9400000000000008E-002   -0.11291108917763640     
   5.9700000000000003E-002    -3.3998951848184800E-002
   6.0000000000000012E-002     3.9207825147583038E-002
   6.0300000000000006E-002    0.10408454767700914     
   6.0600000000000001E-002    0.15820881973077627     
   6.0900000000000010E-002    0.19945797467870424     
   6.1200000000000004E-002    0.22610324688785960     
   6.1500000000000013E-002    0.23686385175961822     
   6.1800000000000008E-002    0.23100218180720722     
   6.2100000000000002E-002    0.20838511001411997     
   6.2399999999999997E-002    0.16960363126749384     
   6.2700000000000006E-002    0.11612996533250250     
   6.3000000000000000E-002     5.0386724337369196E-002
   6.3300000000000009E-002    -2.4275280653369237E-002
   6.3600000000000004E-002   -0.10363610597998606     
   6.3899999999999998E-002   -0.18280228666245374     
   6.4199999999999993E-002   -0.25645057467924331     
   6.4500000000000002E-002   -0.31916988894895593     
   6.4800000000000010E-002   -0.36592567838134016     
   6.5100000000000005E-002   -0.39259693740911467     
   6.5400000000000000E-002   -0.39643970661983075     
   6.5700000000000008E-002   -0.37642842852949060     
   6.5999999999999989E-002   -0.33360084989176969     
   6.6299999999999998E-002   -0.27124464387243791     
   6.6600000000000006E-002   -0.19476531121187426     
   6.6900000000000001E-002   -0.11132330711150147     
   6.7199999999999996E-002    -2.9362896305252968E-002
   6.7500000000000004E-002     4.1966328626213745E-002
   6.7800000000000013E-002     9.3671438496381348E-002
   6.8099999999999994E-002    0.11788144991664380     
   6.8400000000000002E-002    0.10865762064566728     
   6.8700000000000011E-002     6.2685634598087611E-002
   6.8999999999999992E-002    -2.0228457721059377E-002
   6.9300000000000000E-002   -0.13689555040454540     
   6.9600000000000009E-002   -0.28066976608186894     
   6.9900000000000004E-002   -0.44176222969913037     
   7.0199999999999999E-002   -0.60795845895325928     
   7.0500000000000007E-002   -0.76554384195478309     
   7.0800000000000016E-002   -0.90028443167887551     
   7.1099999999999997E-002   -0.99851031999874929     
   7.1400000000000005E-002    -1.0482154029891051     
   7.1700000000000000E-002    -1.0401471923114294     
   7.1999999999999995E-002   -0.96864885001531875     
   7.2300000000000003E-002   -0.83205496327199824     
   7.2600000000000012E-002   -0.63292382363635091     
   7.2900000000000006E-002   -0.37799415402070163     
   7.3200000000000001E-002    -7.7812654128936010E-002
   7.3499999999999996E-002    0.25381652297227769     
   7.3800000000000004E-002    0.60074959305903730     
   7.4099999999999999E-002    0.94557027255768245     
   7.4400000000000008E-002     1.2704323944559321     
   7.4700000000000003E-002     1.5579752120758421     
   7.5000000000000011E-002     1.7923229093539608     
   7.5299999999999992E-002     1.9599954194031313     
   7.5600000000000001E-002     2.0506322632783904     
   7.5900000000000009E-002     2.0574035835137714     
   7.6200000000000004E-002     1.9774525297600094     
   7.6499999999999999E-002     1.8122311905811903     
   7.6800000000000007E-002     1.5674942753401750     
   7.7099999999999988E-002     1.2531013459854261     
   7.7399999999999997E-002    0.88270079325780371     
   7.7700000000000005E-002    0.47309612010723118     
   7.8000000000000014E-002     4.3425588118823091E-002
   7.8299999999999995E-002   -0.38571696582647857     
   7.8600000000000003E-002   -0.79346528176658715     
   7.8900000000000012E-002    -1.1599500469784951     
   7.9199999999999993E-002    -1.4674406378251093     
   7.9500000000000001E-002    -1.7013740896346405     
   7.9800000000000010E-002    -1.8511346956405583     
   8.0100000000000018E-002    -1.9107098965522225     
   8.0399999999999999E-002    -1.8790891549377171     
   8.0700000000000008E-002    -1.7600123043944789     
   8.1000000000000003E-002    -1.5614800762045749     
   8.1299999999999997E-002    -1.2950606589478491     
   8.1600000000000006E-002   -0.97495295191770104     
   8.1900000000000014E-002   -0.61718500195483283     
   8.2199999999999995E-002   -0.23849726569145888     
   8.2500000000000004E-002    0.14484294187213759     
   8.2799999999999999E-002    0.51763686791491259     
   8.3100000000000007E-002    0.86607717029802378     
   8.3400000000000002E-002     1.1781497572457826     
   8.3700000000000011E-002     1.4440003113402100     
   8.4000000000000005E-002     1.6559894835041156     
   8.4300000000000000E-002     1.8083579148062601     
   8.4599999999999995E-002     1.8970138650881563     
   8.4900000000000003E-002     1.9198144279024534     
   8.5199999999999998E-002     1.8765519406620390     
   8.5500000000000007E-002     1.7687323744745622     
   8.5800000000000001E-002     1.5996689134519162     
   8.6100000000000010E-002     1.3745742227029003     
   8.6399999999999991E-002     1.1006307818426326     
   8.6699999999999999E-002    0.78684580719943065     
   8.7000000000000008E-002    0.44358800438411516     
   8.7300000000000003E-002     8.2305861834577221E-002
   8.7599999999999997E-002   -0.28476263867702722     
   8.7900000000000006E-002   -0.64532256324264714     
   8.8200000000000014E-002   -0.98774190101102455     
   8.8499999999999995E-002    -1.3016289096949554     
   8.8800000000000004E-002    -1.5781547703752692     
   8.9100000000000013E-002    -1.8101523821321450     
   8.9399999999999993E-002    -1.9923889341396108     
   8.9700000000000002E-002    -2.1216174040929836     
   9.0000000000000011E-002    -2.1962149963309363     
   9.0299999999999991E-002    -2.2157300272479103     
   9.0600000000000000E-002    -2.1804509836520793     
   9.0900000000000009E-002    -2.0911863432167657     
   9.1200000000000017E-002    -1.9491792206781136     
   9.1499999999999998E-002    -1.7559746878672220     
   9.1800000000000007E-002    -1.5132894778584978     
   9.2100000000000001E-002    -1.2232808019657697     
   9.2399999999999996E-002   -0.88911771999546574     
   9.2700000000000005E-002   -0.51537131229560962     
   9.3000000000000013E-002   -0.10814031880922075     
   9.3300000000000008E-002    0.32470751425889399     
   9.3600000000000003E-002    0.77320282550321795     
   9.3899999999999997E-002     1.2253329167730613     
   9.4200000000000006E-002     1.6675034284938812     
   9.4500000000000001E-002     2.0849793768396014     
   9.4800000000000009E-002     2.4623089724866634     
   9.5100000000000004E-002     2.7840753544669448     
   9.5399999999999999E-002     3.0356880207310728     
   9.5699999999999993E-002     3.2039798282394432     
   9.6000000000000002E-002     3.2778998373919150     
   9.6300000000000011E-002     3.2490828940076040     
   9.6600000000000005E-002     3.1123262280509891     
   9.6900000000000000E-002     2.8660324353517486     
   9.7200000000000009E-002     2.5123873377612376     
   9.7499999999999989E-002     2.0576425091737258     
   9.7799999999999998E-002     1.5123513099499020     
   9.8100000000000007E-002    0.89125784339790326     
   9.8400000000000015E-002    0.21298432934770956     
   9.8699999999999996E-002   -0.50028360839615016     
   9.9000000000000005E-002    -1.2232200157423276     
   9.9300000000000013E-002    -1.9280792879637767     
   9.9599999999999994E-002    -2.5858970245402437     
   9.9900000000000003E-002    -3.1680124510845524     
  0.10020000000000001         -3.6472767245530817     
  0.10049999999999999         -3.9993864082775876     
  0.10080000000000000         -4.2044268746543016     
  0.10110000000000001         -4.2484027141048459     
  0.10140000000000000         -4.1245094598607261     
  0.10170000000000000         -3.8335515356180361     
  0.10200000000000001         -3.3841689916305771     
  0.10230000000000002         -2.7930392070133534     
  0.10260000000000000         -2.0843082615098347     
  0.10290000000000001         -1.2884175584568300     
  0.10320000000000000        -0.44048484337185506     
  0.10350000000000001         0.42140150213235000     
  0.10380000000000000          1.2578531188081026     
  0.10410000000000001          2.0302154994968480     
  0.10440000000000001          2.7027659701402396     
  0.10470000000000000          3.2445917725684810     
  0.10500000000000000          3.6309147777106325     
  0.10530000000000000          3.8442732073385533     
  0.10560000000000000          3.8755036803094751     
  0.10590000000000001          3.7242061289011223     
  0.10620000000000000          3.3986014629346566     
  0.10650000000000001          2.9150728525202454     
  0.10679999999999999          2.2974232927244831     
  0.10710000000000000          1.5756490592012520     
  0.10740000000000001         0.78452147533163796     
  0.10770000000000000         -3.7959962352242867E-002
  0.10800000000000000        -0.85227053357758364     
  0.10830000000000001         -1.6191740934995060     
  0.10859999999999999         -2.3014974732371702     
  0.10890000000000000         -2.8659256080060524     
  0.10920000000000001         -3.2844587366257434     
  0.10950000000000001         -3.5356027063573867     
  0.10979999999999999         -3.6058153395162162     
  0.11009999999999999         -3.4903962118092555     
  0.11040000000000001         -3.1937253093708566     
  0.11070000000000001         -2.7293834302392277     
  0.11100000000000000         -2.1198765726694102     
  0.11130000000000000         -1.3958968376722740     
  0.11160000000000002        -0.59486122109298611     
  0.11190000000000001         0.24130913643711860     
  0.11220000000000001          1.0684324087874877     
  0.11250000000000000          1.8423488230247089     
  0.11280000000000000          2.5217733975749086     
  0.11309999999999999          3.0712517368823651     
  0.11340000000000001          3.4635137594564487     
  0.11369999999999998          3.6810683606601926     
  0.11400000000000000          3.7171766374604709     
  0.11430000000000000          3.5762803268882291     
  0.11460000000000002          3.2733311346729455     
  0.11489999999999999          2.8319358385536120     
  0.11520000000000001          2.2819980900209780     
  0.11550000000000001          1.6571926078828998     
  0.11580000000000000         0.99193118243853873     
  0.11609999999999999         0.31851592761649888     
  0.11640000000000002        -0.33533595118702686     
  0.11670000000000001        -0.94812669546437700     
  0.11700000000000001         -1.5050658577070879     
  0.11730000000000000         -1.9978043753968340     
  0.11760000000000000         -2.4234341369469812     
  0.11789999999999999         -2.7827245187171541     
  0.11820000000000001         -3.0778583620627180     
  0.11850000000000001         -3.3101162135360789     
  0.11880000000000000         -3.4780697079985816     
  0.11910000000000000         -3.5765260895025754     
  0.11940000000000002         -3.5962239890502832     
  0.11970000000000001         -3.5243693893760812     
  0.12000000000000001         -3.3462861967320765     
  0.12030000000000000         -3.0480281164214604     
  0.12060000000000000         -2.6195176719299913     
  0.12089999999999999         -2.0575982012894345     
  0.12119999999999999         -1.3681330133152878     
  0.12150000000000001        -0.56773386280292304     
  0.12180000000000001         0.31506826489157275     
  0.12210000000000000          1.2406587810931344     
  0.12239999999999999          2.1610303456569948     
  0.12270000000000002          3.0233560462695053     
  0.12300000000000001          3.7741814824247175     
  0.12330000000000001          4.3639923587101999     
  0.12360000000000000          4.7524177322053083     
  0.12390000000000000          4.9127666415252591     
  0.12419999999999999          4.8344904938277002     
  0.12450000000000001          4.5245158247031751     
  0.12480000000000001          4.0073272681226557     
  0.12509999999999999          3.3231996828100119     
  0.12540000000000001          2.5246771866618642     
  0.12570000000000003          1.6715527765195228     
  0.12600000000000000         0.82564445779696061     
  0.12630000000000002          4.5983298280078605E-002
  0.12659999999999999        -0.61621462253628523     
  0.12690000000000001         -1.1218182085766895     
  0.12719999999999998         -1.4463444289855016     
  0.12750000000000000         -1.5810001664667750     
  0.12780000000000002         -1.5324609016234738     
  0.12809999999999999         -1.3213405426248259     
  0.12840000000000001        -0.97963158464019828     
  0.12869999999999998        -0.54730847947107897     
  0.12900000000000000         -6.8402975020216278E-002
  0.12930000000000003         0.41261380482021759     
  0.12959999999999999         0.85396911270983755     
  0.12990000000000002          1.2190665963436129     
  0.13019999999999998          1.4782994942984291     
  0.13050000000000000          1.6103990200645171     
  0.13080000000000003          1.6023849497969329     
  0.13109999999999999          1.4487690061769269     
  0.13140000000000002          1.1507908461418164     
  0.13169999999999998         0.71521583520334420     
  0.13200000000000001         0.15315092664372876     
  0.13229999999999997        -0.52096782780245143     
  0.13260000000000000         -1.2901299026400037     
  0.13290000000000002         -2.1349933366376654     
  0.13319999999999999         -3.0336273152630939     
  0.13350000000000001         -3.9609735682265512     
  0.13380000000000003         -4.8879843670131846     
  0.13410000000000000         -5.7814007957082021     
  0.13440000000000002         -6.6036955305652620     
  0.13469999999999999         -7.3129331264545279     
  0.13500000000000001         -7.8640758354582232     
  0.13529999999999998         -8.2115871379873688     
  0.13560000000000000         -8.3122722617929181     
  0.13590000000000002         -8.1286117505637296     
  0.13619999999999999         -7.6325504120488281     
  0.13650000000000001         -6.8096968232876733     
  0.13680000000000003         -5.6627341470126566     
  0.13710000000000000         -4.2129302748175972     
  0.13740000000000002         -2.5008368705091550     
  0.13769999999999999        -0.58544763344132000     
  0.13800000000000001          1.4588762283918200     
  0.13829999999999998          3.5467609523350223     
  0.13860000000000000          5.5875909046238963     
  0.13890000000000002          7.4923255640599189     
  0.13919999999999999          9.1794026469507397     
  0.13950000000000001          10.580098472212693     
  0.13979999999999998          11.642965646651298     
  0.14010000000000000          12.336991634697545     
  0.14040000000000002          12.652204818389420     
  0.14069999999999999          12.597859654808854     
  0.14100000000000001          12.199766387896664     
  0.14130000000000004          11.497032343425401     
  0.14160000000000000          10.537190560208174     
  0.14189999999999997          9.3707180694283334     
  0.14219999999999999          8.0473013060289507     
  0.14250000000000002          6.6128372797343857     
  0.14279999999999998          5.1068314742581800     
  0.14310000000000000          3.5615645742576287     
  0.14339999999999997          2.0025983897407613     
  0.14369999999999999         0.44976910781678381     
  0.14400000000000002         -1.0805030271066014     
  0.14429999999999998         -2.5732750125109050     
  0.14460000000000001         -4.0130759874767410     
  0.14490000000000003         -5.3816768264804971     
  0.14520000000000000         -6.6565720087050035     
  0.14550000000000002         -7.8112489120975308     
  0.14579999999999999         -8.8163338917038683     
  0.14610000000000001         -9.6395941864805490     
  0.14640000000000003         -10.247460460168785     
  0.14670000000000000         -10.608838161353784     
  0.14699999999999996         -10.698132578703349     
  0.14729999999999999         -10.497395561526837     
  0.14760000000000001         -9.9986887247122933     
  0.14789999999999998         -9.2069654529201657     
  0.14820000000000000         -8.1419858787260111     