  -1.4999999999999999E-002     0.0000000000000000     
  -1.4700000000000000E-002     0.0000000000000000     
  -1.4400000000000000E-002     0.0000000000000000     
  -1.4100000000000000E-002     0.0000000000000000     
  -1.3800000000000000E-002     0.0000000000000000     
  -1.3500000000000000E-002     0.0000000000000000     
  -1.3200000000000000E-002     0.0000000000000000     
  -1.2899999999999998E-002     0.0000000000000000     
  -1.2600000000000000E-002     0.0000000000000000     
  -1.2299999999999998E-002     0.0000000000000000     
  -1.2000000000000000E-002     0.0000000000000000     
  -1.1699999999999999E-002     0.0000000000000000     
  -1.1399999999999999E-002     0.0000000000000000     
  -1.1099999999999999E-002     0.0000000000000000     
  -1.0799999999999999E-002     0.0000000000000000     
  -1.0499999999999999E-002     0.0000000000000000     
  -1.0199999999999999E-002     0.0000000000000000     
  -9.8999999999999991E-003     0.0000000000000000     
  -9.5999999999999992E-003     0.0000000000000000     
  -9.2999999999999992E-003     0.0000000000000000     
  -8.9999999999999993E-003     0.0000000000000000     
  -8.6999999999999994E-003     0.0000000000000000     
  -8.3999999999999995E-003     0.0000000000000000     
  -8.0999999999999996E-003     0.0000000000000000     
  -7.7999999999999988E-003     0.0000000000000000     
  -7.4999999999999997E-003     0.0000000000000000     
  -7.1999999999999998E-003     0.0000000000000000     
  -6.8999999999999981E-003     0.0000000000000000     
  -6.5999999999999982E-003     0.0000000000000000     
  -6.3000000000000000E-003     0.0000000000000000     
  -6.0000000000000001E-003     0.0000000000000000     
  -5.6999999999999985E-003     0.0000000000000000     
  -5.3999999999999986E-003     0.0000000000000000     
  -5.1000000000000004E-003     0.0000000000000000     
  -4.7999999999999987E-003     0.0000000000000000     
  -4.5000000000000005E-003     0.0000000000000000     
  -4.1999999999999989E-003     0.0000000000000000     
  -3.8999999999999990E-003     0.0000000000000000     
  -3.5999999999999990E-003     0.0000000000000000     
  -3.2999999999999991E-003     0.0000000000000000     
  -2.9999999999999992E-003     0.0000000000000000     
  -2.6999999999999993E-003     0.0000000000000000     
  -2.3999999999999994E-003     0.0000000000000000     
  -2.0999999999999977E-003     0.0000000000000000     
  -1.7999999999999995E-003     0.0000000000000000     
  -1.4999999999999979E-003     0.0000000000000000     
  -1.1999999999999997E-003     0.0000000000000000     
  -8.9999999999999976E-004     0.0000000000000000     
  -5.9999999999999810E-004     0.0000000000000000     
  -2.9999999999999992E-004     0.0000000000000000     
   0.0000000000000000          0.0000000000000000     
   3.0000000000000165E-004     0.0000000000000000     
   5.9999999999999984E-004     0.0000000000000000     
   9.0000000000000149E-004     0.0000000000000000     
   1.2000000000000031E-003     0.0000000000000000     
   1.5000000000000013E-003     0.0000000000000000     
   1.8000000000000030E-003     0.0000000000000000     
   2.1000000000000012E-003     0.0000000000000000     
   2.3999999999999994E-003     0.0000000000000000     
   2.7000000000000010E-003     0.0000000000000000     
   2.9999999999999992E-003     0.0000000000000000     
   3.3000000000000008E-003     0.0000000000000000     
   3.6000000000000025E-003     0.0000000000000000     
   3.9000000000000007E-003     0.0000000000000000     
   4.2000000000000023E-003     0.0000000000000000     
   4.5000000000000005E-003    -1.2374071842684281E-042
   4.7999999999999987E-003     1.8298002626846744E-040
   5.1000000000000004E-003     5.6118724209877449E-038
   5.4000000000000020E-003     6.0756256870590546E-037
   5.7000000000000037E-003    -5.3175286847948939E-036
   5.9999999999999984E-003     5.8322785115428835E-035
   6.3000000000000000E-003     6.1921770880948391E-034
   6.6000000000000017E-003    -1.0437641140731465E-032
   6.9000000000000034E-003     1.7030910348306095E-032
   7.2000000000000015E-003     4.2736768145431519E-031
   7.5000000000000032E-003    -2.7572248952718235E-030
   7.8000000000000014E-003    -2.2111620879165438E-030
   8.0999999999999996E-003     9.7230919618485815E-029
   8.4000000000000012E-003    -4.0713647237425622E-028
   8.7000000000000029E-003    -4.2324913474978641E-028
   9.0000000000000011E-003     1.1062528643764959E-026
   9.2999999999999992E-003    -4.6207169348678398E-026
   9.6000000000000009E-003     3.3749991357218436E-026
   9.8999999999999991E-003     5.5003674631565733E-025
   1.0200000000000001E-002    -3.0647895143953351E-024
   1.0500000000000002E-002     7.4583714167088161E-024
   1.0800000000000004E-002    -4.1675502441879994E-025
   1.1099999999999999E-002    -6.8358778052395227E-023
   1.1400000000000000E-002     2.7743306086620138E-022
   1.1700000000000002E-002    -5.3180216159294434E-022
   1.2000000000000004E-002    -5.7992661081125949E-023
   1.2300000000000002E-002     3.8964524343374476E-021
   1.2600000000000000E-002    -1.3065052488619213E-020
   1.2900000000000002E-002     1.7030448202361127E-020
   1.3200000000000000E-002     4.4195876373437232E-020
   1.3500000000000002E-002    -3.5032418253570614E-019
   1.3800000000000003E-002     1.2545850671462730E-018
   1.4100000000000001E-002    -3.0113320149173760E-018
   1.4400000000000000E-002     3.7569316389839560E-018
   1.4700000000000001E-002     1.0954361209417860E-017
   1.4999999999999999E-002    -1.2012186785773987E-016
   1.5300000000000001E-002     7.2029973938496167E-016
   1.5600000000000003E-002    -3.6822267362564760E-015
   1.5899999999999997E-002     1.7054745508079855E-014
   1.6199999999999999E-002    -7.0922286921212878E-014
   1.6500000000000001E-002     2.5531739355438347E-013
   1.6800000000000002E-002    -7.4120170986726848E-013
   1.7100000000000004E-002     1.4256707687058979E-012
   1.7400000000000006E-002     1.6241221760528723E-013
   1.7700000000000000E-002    -1.4962200527865353E-011
   1.8000000000000002E-002     6.7340033878756923E-011
   1.8300000000000004E-002    -1.5614984604511526E-010
   1.8600000000000005E-002     7.4816520417512397E-011
   1.8900000000000000E-002     8.1579906993253723E-010
   1.9200000000000002E-002    -2.7866016445298414E-009
   1.9500000000000003E-002     2.2382239848897249E-009
   1.9799999999999998E-002     9.7477641809698100E-009
   2.0100000000000000E-002    -2.7372558245362348E-008
   2.0400000000000001E-002    -4.2601005108441802E-009
   2.0700000000000003E-002     1.1234444763460923E-007
   2.0999999999999998E-002    -6.7501312028613815E-008
   2.1299999999999999E-002    -3.5678289907165881E-007
   2.1600000000000001E-002     2.2404605076616376E-007
   2.1900000000000003E-002     1.0711717297380008E-006
   2.2200000000000004E-002    -1.4427978537258034E-007
   2.2500000000000006E-002    -3.1446453701543332E-006
   2.2800000000000001E-002    -2.2625751318134776E-006
   2.3100000000000002E-002     9.8180685576823785E-006
   2.3400000000000004E-002     3.5394871036334816E-005
   2.3699999999999999E-002     7.1243021050065346E-005
   2.4000000000000000E-002     1.1584253168239758E-004
   2.4300000000000002E-002     1.7582111017163093E-004
   2.4599999999999997E-002     2.6726919836773439E-004
   2.4900000000000005E-002     4.1383917369582838E-004
   2.5200000000000000E-002     6.4421291356378421E-004
   2.5499999999999995E-002     9.9351615234118877E-004
   2.5800000000000003E-002     1.5096855778286556E-003
   2.6099999999999998E-002     2.2600798620625319E-003
   2.6400000000000007E-002     3.3365038251230209E-003
   2.6700000000000002E-002     4.8600197610129264E-003
   2.6999999999999996E-002     6.9854059719819516E-003
   2.7300000000000005E-002     9.9037799827123157E-003
   2.7600000000000000E-002     1.3842626058344954E-002
   2.7900000000000008E-002     1.9064726357148492E-002
   2.8200000000000003E-002     2.5864128168419563E-002
   2.8499999999999998E-002     3.4552470925389933E-002
   2.8800000000000006E-002     4.5434270006828585E-002
   2.9100000000000001E-002     5.8773375587231530E-002
   2.9400000000000003E-002     7.4751462203575689E-002
   2.9700000000000004E-002     9.3409557229867227E-002
   3.0000000000000006E-002    0.11457933844629198     
   3.0300000000000001E-002    0.13780927704904583     
   3.0600000000000002E-002    0.16228365011545023     
   3.0900000000000004E-002    0.18675947023830203     
   3.1199999999999999E-002    0.20951502769224903     
   3.1500000000000007E-002    0.22832748835175101     
   3.1800000000000002E-002    0.24049924202376094     
   3.2099999999999997E-002    0.24293701471230283     
   3.2400000000000005E-002    0.23229849340158115     
   3.2700000000000000E-002    0.20520516564466462     
   3.3000000000000002E-002    0.15854347973417912     
   3.3300000000000003E-002     8.9787622699989925E-002
   3.3599999999999998E-002    -2.6023598674573996E-003
   3.3900000000000000E-002   -0.11881190630487108     
   3.4200000000000001E-002   -0.25731493810059924     
   3.4500000000000003E-002   -0.41462293907863340     
   3.4799999999999998E-002   -0.58515444873503886     
   3.5099999999999999E-002   -0.76125535157824209     
   3.5400000000000001E-002   -0.93345188691607217     
   3.5699999999999996E-002    -1.0908733200267473     
   3.6000000000000004E-002    -1.2218963119893715     
   3.6299999999999999E-002    -1.3149554659618639     
   3.6600000000000008E-002    -1.3594404261652229     
   3.6900000000000002E-002    -1.3466655876980431     
   3.7199999999999997E-002    -1.2707129065236400     
   3.7500000000000006E-002    -1.1292053670159226     
   3.7800000000000000E-002   -0.92376413192655971     
   3.8100000000000009E-002   -0.66020179770670695     
   3.8400000000000004E-002   -0.34840468429986421     
   3.8699999999999998E-002    -1.7855950733130198E-003
   3.9000000000000007E-002    0.36348288714142007     
   3.9300000000000002E-002    0.72957002034888396     
   3.9600000000000003E-002     1.0782208996808151     
   3.9900000000000005E-002     1.3919753218526028     
   4.0200000000000000E-002     1.6554192076121483     
   4.0500000000000001E-002     1.8562730904308165     
   4.0800000000000003E-002     1.9860359364302456     
   4.1100000000000005E-002     2.0405276165057802     
   4.1399999999999999E-002     2.0199996753661229     
   4.1700000000000008E-002     1.9287756305044250     
   4.2000000000000003E-002     1.7748359889971093     
   4.2299999999999997E-002     1.5689760339678605     
   4.2600000000000006E-002     1.3238602713733616     
   4.2900000000000001E-002     1.0530978238776365     
   4.3200000000000002E-002    0.77022272752920418     
   4.3500000000000004E-002    0.48791173197074533     
   4.3799999999999999E-002    0.21725737051733732     
   4.4100000000000000E-002    -3.2689474745352325E-002
   4.4400000000000002E-002   -0.25508876042210921     
   4.4700000000000004E-002   -0.44550510212488847     
   4.4999999999999998E-002   -0.60173502780513166     
   4.5300000000000000E-002   -0.72346135554434765     
   4.5600000000000002E-002   -0.81200481946582515     
   4.5899999999999996E-002   -0.86986109905933351     
   4.6200000000000005E-002   -0.90028763211699414     
   4.6500000000000000E-002   -0.90693623795789646     
   4.6799999999999994E-002   -0.89352451752415529     
   4.7100000000000003E-002   -0.86366220664576576     
   4.7399999999999998E-002   -0.82057771399839652     
   4.7700000000000006E-002   -0.76712139721431216     
   4.8000000000000001E-002   -0.70577129760736534     
   4.8300000000000010E-002   -0.63858803851468304     
   4.8600000000000004E-002   -0.56742445171338196     
   4.8899999999999999E-002   -0.49396123891377386     
   4.9200000000000008E-002   -0.41981044106433030     
   4.9500000000000002E-002   -0.34667239428908048     
   4.9800000000000011E-002   -0.27639068545792489     
   5.0100000000000006E-002   -0.21102225306147063     
   5.0400000000000000E-002   -0.15286980250697885     
   5.0700000000000009E-002   -0.10443502894810577     
   5.1000000000000004E-002    -6.8253424453264391E-002
   5.1299999999999998E-002    -4.6920543909354545E-002
   5.1600000000000007E-002    -4.2790683784427824E-002
   5.1900000000000002E-002    -5.7760275827811437E-002
   5.2200000000000010E-002    -9.3208297614994495E-002
   5.2500000000000005E-002   -0.14943186699327893     
   5.2800000000000000E-002   -0.22559660014557226     
   5.3099999999999994E-002   -0.31951465935147455     
   5.3400000000000003E-002   -0.42724054690302099     
   5.3699999999999998E-002   -0.54331401408061308     
   5.4000000000000006E-002   -0.66064330167838803     
   5.4300000000000001E-002   -0.77060439157971372     
   5.4599999999999996E-002   -0.86364388077245380     
   5.4900000000000004E-002   -0.92952772999246291     
   5.5199999999999999E-002   -0.95808812134329235     
   5.5499999999999994E-002   -0.94008773095386866     
   5.5800000000000002E-002   -0.86781276899029947     
   5.6099999999999997E-002   -0.73610233363603128     
   5.6400000000000006E-002   -0.54304254421914699     
   5.6700000000000000E-002   -0.29033576338376954     
   5.6999999999999995E-002     1.6080913084520913E-002
   5.7300000000000004E-002    0.36617068236608746     
   5.7599999999999998E-002    0.74614883241925056     
   5.7900000000000007E-002     1.1388558362200802     
   5.8200000000000002E-002     1.5249392616257558     
   5.8499999999999996E-002     1.8839651047476553     
   5.8800000000000005E-002     2.1957493709729139     
   5.9100000000000000E-002     2.4418940187831817     
   5.9400000000000008E-002     2.6068985197035857     
   5.9700000000000003E-002     2.6793577093886993     
   6.0000000000000012E-002     2.6528269631958303     
   6.0300000000000006E-002     2.5262839817011389     
   6.0600000000000001E-002     2.3042189330708718     
   6.0900000000000010E-002     1.9962988196727611     
   6.1200000000000004E-002     1.6166978403514720     
   6.1500000000000013E-002     1.1829172811770585     
   6.1800000000000008E-002    0.71474944912687011     
   6.2100000000000002E-002    0.23296563304785556     
   6.2399999999999997E-002   -0.24214340160639491     
   6.2700000000000006E-002   -0.69163544433177504     
   6.3000000000000000E-002    -1.0990783739713870     
   6.3300000000000009E-002    -1.4512795349366734     
   6.3600000000000004E-002    -1.7385238086304911     
   6.3899999999999998E-002    -1.9548154893274368     
   6.4199999999999993E-002    -2.0978807847275958     
   6.4500000000000002E-002    -2.1685255329981104     
   6.4800000000000010E-002    -2.1706075222135732     
   6.5100000000000005E-002    -2.1102755151109633     
   6.5400000000000000E-002    -1.9953873300076674     
   6.5700000000000008E-002    -1.8353770972892194     
   6.5999999999999989E-002    -1.6404673335384676     
   6.6299999999999998E-002    -1.4215153976968380     
   6.6600000000000006E-002    -1.1900439769387645     
   6.6900000000000001E-002   -0.95757386397027222     
   6.7199999999999996E-002   -0.73553989309582801     
   6.7500000000000004E-002   -0.53514924589908597     
   6.7800000000000013E-002   -0.36643567012537875     
   6.8099999999999994E-002   -0.23812459102910616     
   6.8400000000000002E-002   -0.15684678853700157     
   6.8700000000000011E-002   -0.12592904341367317     
   6.8999999999999992E-002   -0.14521277347797326     
   6.9300000000000000E-002   -0.20997991802271621     
   6.9600000000000009E-002   -0.31056577964326049     
   6.9900000000000004E-002   -0.43282868978347405     
   7.0199999999999999E-002   -0.55802031618693937     
   7.0500000000000007E-002   -0.66419899260732262     
   7.0800000000000016E-002   -0.72809844901815113     
   7.1099999999999997E-002   -0.72660507915209749     
   7.1400000000000005E-002   -0.63962388237977874     
   7.1700000000000000E-002   -0.45247046716423489     
   7.1999999999999995E-002   -0.15775318130843469     
   7.2300000000000003E-002    0.24243914402690253     
   7.2600000000000012E-002    0.73579853341624779     
   7.2900000000000006E-002     1.2998496283134302     
   7.3200000000000001E-002     1.9026134414307134     
   7.3499999999999996E-002     2.5050520876250180     
   7.3800000000000004E-002     3.0637719205776337     
   7.4099999999999999E-002     3.5344006448643932     
   7.4400000000000008E-002     3.8758499150615711     
   7.4700000000000003E-002     4.0537884311749419     
   7.5000000000000011E-002     4.0439553537718140     
   7.5299999999999992E-002     3.8346829868592938     
   7.5600000000000001E-002     3.4283957264494651     
   7.5900000000000009E-002     2.8415076500409482     
   7.6200000000000004E-002     2.1033278921700584     
   7.6499999999999999E-002     1.2540376196368739     
   7.6800000000000007E-002    0.34118735704075365     
   7.7099999999999988E-002   -0.58384368025179822     
   7.7399999999999997E-002    -1.4698488892414254     
   7.7700000000000005E-002    -2.2700501954316232     
   7.8000000000000014E-002    -2.9448399773348291     
   7.8299999999999995E-002    -3.4647722156670557     
   7.8600000000000003E-002    -3.8121795601347559     
   7.8900000000000012E-002    -3.9810971096715235     
   7.9199999999999993E-002    -3.9773575286688745     
   7.9500000000000001E-002    -3.8168956156469953     
   7.9800000000000010E-002    -3.5231485462056042     
   8.0100000000000018E-002    -3.1250214323513110     
   8.0399999999999999E-002    -2.6536348321875796     
   8.0700000000000008E-002    -2.1395867661059689     
   8.1000000000000003E-002    -1.6110169729401174     
   8.1299999999999997E-002    -1.0912795851307897     
   8.1600000000000006E-002   -0.59799488298411319     
   8.1900000000000014E-002   -0.14289069851309322     
   8.2199999999999995E-002    0.26837981093529772     
   8.2500000000000004E-002    0.63538715836182391     
   8.2799999999999999E-002    0.96116365730542019     
   8.3100000000000007E-002     1.2514275929673688     
   8.3400000000000002E-002     1.5125149672837166     
   8.3700000000000011E-002     1.7495673920005401     
   8.4000000000000005E-002     1.9662646662788976     
   8.4300000000000000E-002     2.1628484585288432     
   8.4599999999999995E-002     2.3362327035306825     
   8.4900000000000003E-002     2.4805292941356227     
   8.5199999999999998E-002     2.5863811449101926     
   8.5500000000000007E-002     2.6431698644539559     
   8.5800000000000001E-002     2.6397624951417731     
   8.6100000000000010E-002     2.5654466551739157     
   8.6399999999999991E-002     2.4124747882945958     
   8.6699999999999999E-002     2.1763656753840652     
   8.7000000000000008E-002     1.8573523703100063     
   8.7300000000000003E-002     1.4613105089586118     
   8.7599999999999997E-002    0.99904556257726762     
   8.7900000000000006E-002    0.48650812790378284     
   8.8200000000000014E-002    -5.6088395668016947E-002
   8.8499999999999995E-002   -0.60593182279097912     
   8.8800000000000004E-002    -1.1390480931328510     
   8.9100000000000013E-002    -1.6318043563130531     
   8.9399999999999993E-002    -2.0629495479041586     
   8.9700000000000002E-002    -2.4149011174218598     
   9.0000000000000011E-002    -2.6745719661057716     
   9.0299999999999991E-002    -2.8346181686823591     
   9.0600000000000000E-002    -2.8931874261211545     
   9.0900000000000009E-002    -2.8533671945915353     
   9.1200000000000017E-002    -2.7232071560935220     
   9.1499999999999998E-002    -2.5137814139597827     
   9.1800000000000007E-002    -2.2382713184774534     
   9.2100000000000001E-002    -1.9112592464770000     
   9.2399999999999996E-002    -1.5466521135108260     
   9.2700000000000005E-002    -1.1577819570224968     
   9.3000000000000013E-002   -0.75673675295857390     
   9.3300000000000008E-002   -0.35347267605790689     
   9.3600000000000003E-002     4.2698433457683746E-002
   9.3899999999999997E-002    0.42358224848581422     
   9.4200000000000006E-002    0.78171327074649410     
   9.4500000000000001E-002     1.1087315829830628     
   9.4800000000000009E-002     1.3962538645109486     
   9.5100000000000004E-002     1.6352474418854157     
   9.5399999999999999E-002     1.8156800131284874     
   9.5699999999999993E-002     1.9283179860341892     
   9.6000000000000002E-002     1.9646976202685522     
   9.6300000000000011E-002     1.9182182445670142     
   9.6600000000000005E-002     1.7861754072526570     
   9.6900000000000000E-002     1.5697797014755186     
   9.7200000000000009E-002     1.2755590996828541     
   9.7499999999999989E-002    0.91620338226123677     
   9.7799999999999998E-002    0.50942319708413830     
   9.8100000000000007E-002     7.8102904605165835E-002
   9.8400000000000015E-002   -0.35102175382103801     
   9.8699999999999996E-002   -0.74987722626216102     
   9.9000000000000005E-002    -1.0902225226821225     
   9.9300000000000013E-002    -1.3466869836239728     
   9.9599999999999994E-002    -1.4992793688951291     
   9.9900000000000003E-002    -1.5344562230185543     
  0.10020000000000001         -1.4477762497886391     
  0.10049999999999999         -1.2442953715608154     
  0.10080000000000000        -0.93805074461241622     
  0.10110000000000001        -0.55234887418013923     
  0.10140000000000000        -0.11738668415171996     
  0.10170000000000000         0.33181265110710118     
  0.10200000000000001         0.75767881583823649     
  0.10230000000000002          1.1237363367576654     
  0.10260000000000000          1.3970309444860010     
  0.10290000000000001          1.5509784492018404     
  0.10320000000000000          1.5676296199042663     
  0.10350000000000001          1.4391422493280193     
  0.10380000000000000          1.1687714543267196     
  0.10410000000000001         0.77066087530314786     
  0.10440000000000001         0.26938118510787246     
  0.10470000000000000        -0.30179172988370112     
  0.10500000000000000        -0.90275783733254533     
  0.10530000000000000         -1.4892511415523151     
  0.10560000000000000         -2.0161263155625777     
  0.10590000000000001         -2.4400170901948353     
  0.10620000000000000         -2.7227983116592576     
  0.10650000000000001         -2.8345188356027426     
  0.10679999999999999         -2.7555204718152875     
  0.10710000000000000         -2.4788254777210681     
  0.10740000000000001         -2.0110141383487230     
  0.10770000000000000         -1.3721410827211691     
  0.10800000000000000        -0.59571275475167418     
  0.10830000000000001         0.27371488329155058     
  0.10859999999999999          1.1833181478090316     
  0.10890000000000000          2.0746854305433677     
  0.10920000000000001          2.8886389191023167     
  0.10950000000000001          3.5694026805583903     
  0.10979999999999999          4.0681422608671740     
  0.11009999999999999          4.3477515981973296     
  0.11040000000000001          4.3853015873741459     
  0.11070000000000001          4.1738955834956135     
  0.11100000000000000          3.7243374939259688     
  0.11130000000000000          3.0639238442651031     
  0.11160000000000002          2.2347125840724025     
  0.11190000000000001          1.2911808468065742     
  0.11220000000000001         0.29557661152211012     
  0.11250000000000000        -0.68642570452355134     
  0.11280000000000000         -1.5901418904869644     
  0.11309999999999999         -2.3576118811728088     
  0.11340000000000001         -2.9410973455912295     
  0.11369999999999998         -3.3064942975341212     
  0.11400000000000000         -3.4366901182159930     
  0.11430000000000000         -3.3314141572017788     
  0.11460000000000002         -3.0074163065535098     
  0.11489999999999999         -2.4973008187169672     
  0.11520000000000001         -1.8453457261705672     
  0.11550000000000001         -1.1048862077805917     
  0.11580000000000000        -0.33374872333044436     
  0.11609999999999999         0.41140252288083395     
  0.11640000000000002          1.0783704195448960     
  0.11670000000000001          1.6236186290850081     
  0.11700000000000001          2.0159724122259473     
  0.11730000000000000          2.2375116579958454     
  0.11760000000000000          2.2847098268534998     
  0.11789999999999999          2.1682489057309047     
  0.11820000000000001          1.9101750062190068     
  0.11850000000000001          1.5420049128151612     
  0.11880000000000000          1.1015186372783270     
  0.11910000000000000         0.62793363420444070     
  0.11940000000000002         0.15969194818540150     
  0.11970000000000001        -0.26947498253283902     
  0.12000000000000001        -0.63372170975693798     
  0.12030000000000000        -0.91517136421710132     
  0.12060000000000000         -1.1061751489895160     
  0.12089999999999999         -1.2087923943775838     
  0.12119999999999999         -1.2323529713727641     
  0.12150000000000001         -1.1933996992325000     
  0.12180000000000001         -1.1121781272242997     
  0.12210000000000000         -1.0097849071683218     
  0.12239999999999999        -0.90689585834086150     
  0.12270000000000002        -0.81992978946051132     
  0.12300000000000001        -0.76009236547633197     
  0.12330000000000001        -0.73281217047068337     
  0.12360000000000000        -0.73618251507388799     
  0.12390000000000000        -0.76257958646440915     
  0.12419999999999999        -0.79987145435864904     
  0.12450000000000001        -0.83230723179934429     
  0.12480000000000001        -0.84368039772555303     
  0.12509999999999999        -0.81948901463499146     
  0.12540000000000001        -0.74845861694457050     
  0.12570000000000003        -0.62485376811045878     
  0.12600000000000000        -0.44957896358494009     
  0.12630000000000002        -0.23000690586440731     
  0.12659999999999999          1.9856729160755787E-002
  0.12690000000000001         0.28085729889189159     
  0.12719999999999998         0.53101996714270572     
  0.12750000000000000         0.74675248985261944     
  0.12780000000000002         0.90656710814721697     
  0.12809999999999999         0.99287274996925223     
  0.12840000000000001         0.99317647499544837     
  0.12869999999999998         0.90301149104335265     
  0.12900000000000000         0.72484512777989885     
  0.12930000000000003         0.46807616537019736     
  0.12959999999999999         0.14905634480995442     
  0.12990000000000002        -0.21213611273948743     
  0.13019999999999998        -0.59292365133440428     
  0.13050000000000000        -0.97031432947899787     
  0.13080000000000003         -1.3237450364076890     
  0.13109999999999999         -1.6358412453162003     
  0.13140000000000002         -1.8937876179053728     
  0.13169999999999998         -2.0898500646352218     
  0.13200000000000001         -2.2208738114014888     
  0.13229999999999997         -2.2875979275409848     
  0.13260000000000000         -2.2937727273427004     
  0.13290000000000002         -2.2447815174957344     
  0.13319999999999999         -2.1463311475893301     
  0.13350000000000001         -2.0042265009445588     
  0.13380000000000003         -1.8228583297661534     
  0.13410000000000000         -1.6052519578624083     
  0.13440000000000002         -1.3539623454367504     
  0.13469999999999999         -1.0697992090470940     
  0.13500000000000001        -0.75344283644236831     
  0.13529999999999998        -0.40562227133695983     
  0.13560000000000000         -2.6432895916676066E-002
  0.13590000000000002         0.38288180040601177     
  0.13619999999999999         0.82147241282587724     
  0.13650000000000001          1.2889256207053201     
  0.13680000000000003          1.7839659938434060     
  0.13710000000000000          2.3063987151554612     
  0.13740000000000002          2.8558672077912597     
  0.13769999999999999          3.4305898167259841     
  0.13800000000000001          4.0284535468607290     
  0.13829999999999998          4.6443754563070181     
  0.13860000000000000          5.2693697502824257     
  0.13890000000000002          5.8908755523234646     
  0.13919999999999999          6.4901950780669768     
  0.13950000000000001          7.0433501359335482     
  0.13979999999999998          7.5217304394366407     
  0.14010000000000000          7.8918923877267861     
  0.14040000000000002          8.1188580486489741     
  0.14069999999999999          8.1680248368900816     
  0.14100000000000001          8.0071215888532663     
  0.14130000000000004          7.6106080560192222     
  0.14160000000000000          6.9612929322923653     
  0.14189999999999997          6.0523707150272470     
  0.14219999999999999          4.8904812205294155     
  0.14250000000000002          3.4946050366221009     
  0.14279999999999998          1.8966748858485492     
  0.14310000000000000         0.14094961606602396     
  0.14339999999999997         -1.7201587624390537     
  0.14369999999999999         -3.6263611354630871     
  0.14400000000000002         -5.5141281708858338     
  0.14429999999999998         -7.3201445896701145     
  0.14460000000000001         -8.9829304981982308     
  0.14490000000000003         -10.447962723932282     
  0.14520000000000000         -11.668721909940896     
  0.14550000000000002         -12.607419609105078     
  0.14579999999999999         -13.238200503173671     
  0.14610000000000001         -13.545655956635130     
  0.14640000000000003         -13.524530269780703     
  0.14670000000000000         -13.180048453886101     
  0.14699999999999996         -12.525637128039316     
  0.14729999999999999         -11.581883569225838     
  0.14760000000000001         -10.376109994219416     
  0.14789999999999998         -8.9404331041833824     
  0.14820000000000000         -7.3104171322446678     