  -1.4999999999999999E-002     0.0000000000000000     
  -1.4700000000000000E-002     0.0000000000000000     
  -1.4400000000000000E-002     0.0000000000000000     
  -1.4100000000000000E-002     0.0000000000000000     
  -1.3800000000000000E-002     0.0000000000000000     
  -1.3500000000000000E-002     0.0000000000000000     
  -1.3200000000000000E-002     0.0000000000000000     
  -1.2899999999999998E-002     0.0000000000000000     
  -1.2600000000000000E-002     0.0000000000000000     
  -1.2299999999999998E-002     0.0000000000000000     
  -1.2000000000000000E-002     0.0000000000000000     
  -1.1699999999999999E-002     0.0000000000000000     
  -1.1399999999999999E-002     0.0000000000000000     
  -1.1099999999999999E-002     2.7694181455652828E-043
  -1.0799999999999999E-002     2.3553653584262368E-037
  -1.0499999999999999E-002     1.4553971529611661E-036
  -1.0199999999999999E-002    -5.3167987602447958E-034
  -9.8999999999999991E-003     1.0928615676597358E-032
  -9.5999999999999992E-003    -1.4909462553864977E-031
  -9.2999999999999992E-003     1.6752162644832289E-030
  -8.9999999999999993E-003    -1.5080072596022607E-029
  -8.6999999999999994E-003     1.0568788120750998E-028
  -8.3999999999999995E-003    -5.7005252172906330E-028
  -8.0999999999999996E-003     2.3627308451320932E-027
  -7.7999999999999988E-003    -7.5512181180969727E-027
  -7.4999999999999997E-003     1.8695816988373046E-026
  -7.1999999999999998E-003    -3.5826110430571056E-026
  -6.8999999999999981E-003     5.2275934702609984E-026
  -6.5999999999999982E-003    -6.6991780271619730E-026
  -6.3000000000000000E-003     2.7484176369495323E-025
  -6.0000000000000001E-003    -2.4950038842238657E-024
  -5.6999999999999985E-003     1.7777709560289349E-023
  -5.3999999999999986E-003    -9.7296549210487191E-023
  -5.1000000000000004E-003     4.3083364827513852E-022
  -4.7999999999999987E-003    -1.5930950474771028E-021
  -4.5000000000000005E-003     5.0034792534646614E-021
  -4.1999999999999989E-003    -1.3424959102176575E-020
  -3.8999999999999990E-003     3.0537583144930178E-020
  -3.5999999999999990E-003    -5.6921580951137319E-020
  -3.2999999999999991E-003     7.7188090350829509E-020
  -2.9999999999999992E-003    -3.0663711875810631E-020
  -2.6999999999999993E-003    -2.4059855777273622E-019
  -2.3999999999999994E-003     1.0602797712681339E-018
  -2.0999999999999977E-003    -2.9592237440918605E-018
  -1.7999999999999995E-003     6.5637935380207019E-018
  -1.4999999999999979E-003    -1.2076037599291633E-017
  -1.1999999999999997E-003     1.8041118486561594E-017
  -8.9999999999999976E-004    -1.9578255224622650E-017
  -5.9999999999999810E-004     7.9962737461072454E-018
  -2.9999999999999992E-004     2.3356006490426232E-017
   0.0000000000000000         -6.1494272585149236E-017
   3.0000000000000165E-004     4.8806361626025884E-017
   5.9999999999999984E-004     1.1842711087077998E-016
   9.0000000000000149E-004    -5.0921880452402355E-016
   1.2000000000000031E-003     9.5906549301165641E-016
   1.5000000000000013E-003    -8.4833426806072681E-016
   1.8000000000000030E-003    -8.4697055985795281E-016
   2.1000000000000012E-003     4.8834151331283660E-015
   2.3999999999999994E-003    -1.0472148064181796E-014
   2.7000000000000010E-003     1.4098461157765397E-014
   2.9999999999999992E-003    -9.2048548055854267E-015
   3.3000000000000008E-003    -1.4786477185399626E-014
   3.6000000000000025E-003     8.0172649968012716E-014
   3.9000000000000007E-003    -2.3756615973791683E-013
   4.2000000000000023E-003     5.4962100042685933E-013
   4.5000000000000005E-003    -8.9106629196411467E-013
   4.7999999999999987E-003     3.4560855801479423E-013
   5.1000000000000004E-003     3.7080085765445886E-012
   5.4000000000000020E-003    -1.5807291976651272E-011
   5.7000000000000037E-003     3.9691317816604855E-011
   5.9999999999999984E-003    -6.7308366799727003E-011
   6.3000000000000000E-003     4.1547737379225107E-011
   6.6000000000000017E-003     2.3317142449245952E-010
   6.9000000000000034E-003    -1.1162141538262078E-009
   7.2000000000000015E-003     2.4205008262535413E-009
   7.5000000000000032E-003    -1.0240852312948203E-009
   7.8000000000000014E-003    -1.0175760077980671E-008
   8.0999999999999996E-003     2.8419721217882791E-008
   8.4000000000000012E-003    -6.8127049644059035E-009
   8.7000000000000029E-003    -1.1294750630164276E-007
   9.0000000000000011E-003     1.5878530544804602E-007
   9.2999999999999992E-003     2.9732580105521627E-007
   9.6000000000000009E-003    -7.2613103342075318E-007
   9.8999999999999991E-003    -1.0032767901994234E-006
   1.0200000000000001E-002     1.9430302634924443E-006
   1.0500000000000002E-002     3.6802842378875144E-006
   1.0800000000000004E-002    -2.9300548582299343E-006
   1.1099999999999999E-002    -1.0980109880346915E-005
   1.1400000000000000E-002     6.9412187481538842E-008
   1.1700000000000002E-002     3.3871699342470003E-005
   1.2000000000000004E-002     6.1853749520121402E-005
   1.2300000000000002E-002     6.2762015202274721E-005
   1.2600000000000000E-002     6.6669336555694699E-005
   1.2900000000000002E-002     1.2733611184432249E-004
   1.3200000000000000E-002     2.5330988637660835E-004
   1.3500000000000002E-002     4.0505912234856302E-004
   1.3800000000000003E-002     5.7357045870899963E-004
   1.4100000000000001E-002     8.2709874461647825E-004
   1.4400000000000000E-002     1.2562882506608731E-003
   1.4700000000000001E-002     1.9019444333771549E-003
   1.4999999999999999E-002     2.7781462528662171E-003
   1.5300000000000001E-002     3.9597284971195851E-003
   1.5600000000000003E-002     5.6009178835841420E-003
   1.5899999999999997E-002     7.8589583285767380E-003
   1.6199999999999999E-002     1.0848478805091665E-002
   1.6500000000000001E-002     1.4699904242432150E-002
   1.6800000000000002E-002     1.9616248698363131E-002
   1.7100000000000004E-002     2.5811968343986417E-002
   1.7400000000000006E-002     3.3424418971819900E-002
   1.7700000000000000E-002     4.2524221289126918E-002
   1.8000000000000002E-002     5.3149558356511445E-002
   1.8300000000000004E-002     6.5251586567841816E-002
   1.8600000000000005E-002     7.8588686949228673E-002
   1.8900000000000000E-002     9.2683209389939708E-002
   1.9200000000000002E-002    0.10684633951113466     
   1.9500000000000003E-002    0.12016653276911596     
   1.9799999999999998E-002    0.13143783310718332     
   2.0100000000000000E-002    0.13915047334801300     
   2.0400000000000001E-002    0.14156807493356993     
   2.0700000000000003E-002    0.13683222919799898     
   2.0999999999999998E-002    0.12308110289668187     
   2.1299999999999999E-002     9.8552540214976475E-002
   2.1600000000000001E-002     6.1775636010047069E-002
   2.1900000000000003E-002     1.1812085218098768E-002
   2.2200000000000004E-002    -5.1572907079195755E-002
   2.2500000000000006E-002   -0.12774337390652535     
   2.2800000000000001E-002   -0.21504067185772308     
   2.3100000000000002E-002   -0.31068759893264325     
   2.3400000000000004E-002   -0.41083005744564893     
   2.3699999999999999E-002   -0.51073143632562901     
   2.4000000000000000E-002   -0.60500408474040668     
   2.4300000000000002E-002   -0.68780956736716414     
   2.4599999999999997E-002   -0.75324697626634785     
   2.4900000000000005E-002   -0.79594311898624703     
   2.5200000000000000E-002   -0.81152873630486266     
   2.5499999999999995E-002   -0.79701576627262771     
   2.5800000000000003E-002   -0.75102295429654198     
   2.6099999999999998E-002   -0.67394257418062486     
   2.6400000000000007E-002   -0.56812134675803283     
   2.6700000000000002E-002   -0.43782496874043725     
   2.6999999999999996E-002   -0.28872338689120053     
   2.7300000000000005E-002   -0.12758365068302219     
   2.7600000000000000E-002     3.8210310664332649E-002
   2.7900000000000008E-002    0.20122839815643345     
   2.8200000000000003E-002    0.35449354420360618     
   2.8499999999999998E-002    0.49209422538423930     
   2.8800000000000006E-002    0.60940715163128290     
   2.9100000000000001E-002    0.70330150750059761     
   2.9400000000000003E-002    0.77233721380021192     
   2.9700000000000004E-002    0.81670258673375240     
   3.0000000000000006E-002    0.83793932233618329     
   3.0300000000000001E-002    0.83860660787838603     
   3.0600000000000002E-002    0.82213106247491097     
   3.0900000000000004E-002    0.79240312973098603     
   3.1199999999999999E-002    0.75324705538587189     
   3.1500000000000007E-002    0.70811485259583506     
   3.1800000000000002E-002    0.65987809205106451     
   3.2099999999999997E-002    0.61069475216096758     
   3.2400000000000005E-002    0.56181067211004820     
   3.2700000000000000E-002    0.51338486011284035     
   3.3000000000000002E-002    0.46458777554038877     
   3.3300000000000003E-002    0.41376407220976552     
   3.3599999999999998E-002    0.35882724379743502     
   3.3900000000000000E-002    0.29752432790667660     
   3.4200000000000001E-002    0.22762254671426840     
   3.4500000000000003E-002    0.14750854150863602     
   3.4799999999999998E-002     5.6882379346559903E-002
   3.5099999999999999E-002    -4.2868220404842158E-002
   3.5400000000000001E-002   -0.14868098792820120     
   3.5699999999999996E-002   -0.25546741881547519     
   3.6000000000000004E-002   -0.35600127977923302     
   3.6299999999999999E-002   -0.44152303221247852     
   3.6600000000000008E-002   -0.50248885226459994     
   3.6900000000000002E-002   -0.52915490313935720     
   3.7199999999999997E-002   -0.51251837099779052     
   3.7500000000000006E-002   -0.44553459303940895     
   3.7800000000000000E-002   -0.32412677114695776     
   3.8100000000000009E-002   -0.14803768627026032     
   3.8400000000000004E-002     7.8534581662825009E-002
   3.8699999999999998E-002    0.34678635260828505     
   3.9000000000000007E-002    0.64362637214821317     
   3.9300000000000002E-002    0.95187414888513866     
   3.9600000000000003E-002     1.2514002682255581     
   3.9900000000000005E-002     1.5203809795227223     
   4.0200000000000000E-002     1.7368429260127556     
   4.0500000000000001E-002     1.8799833749437367     
   4.0800000000000003E-002     1.9315251962784710     
   4.1100000000000005E-002     1.8777154592434648     
   4.1399999999999999E-002     1.7101251557304886     
   4.1700000000000008E-002     1.4262226978950072     
   4.2000000000000003E-002     1.0303857280840321     
   4.2299999999999997E-002    0.53422349894320853     
   4.2600000000000006E-002    -4.3715794581604794E-002
   4.2900000000000001E-002   -0.67901566175901873     
   4.3200000000000002E-002    -1.3422953688710850     
   4.3500000000000004E-002    -1.9999772971604246     
   4.3799999999999999E-002    -2.6162665148396584     
   4.4100000000000000E-002    -3.1554906127137228     
   4.4400000000000002E-002    -3.5841519038842562     
   4.4700000000000004E-002    -3.8727455008098381     
   4.4999999999999998E-002    -3.9979160825032487     
   4.5300000000000000E-002    -3.9441193571491606     
   4.5600000000000002E-002    -3.7049815842524048     
   4.5899999999999996E-002    -3.2844451482107750     
   4.6200000000000005E-002    -2.6962729221792339     
   4.6500000000000000E-002    -1.9638612928080281     
   4.6799999999999994E-002    -1.1195896652561741     
   4.7100000000000003E-002   -0.20283190803470119     
   4.7399999999999998E-002    0.74175177724592967     
   4.7700000000000006E-002     1.6667914448860583     
   4.8000000000000001E-002     2.5239898567144046     
   4.8300000000000010E-002     3.2662614187282246     
   4.8600000000000004E-002     3.8507170233728916     
   4.8899999999999999E-002     4.2402643833145701     
   4.9200000000000008E-002     4.4051354276178332     
   4.9500000000000002E-002     4.3247623816380720     
   4.9800000000000011E-002     3.9890855471650095     
   5.0100000000000006E-002     3.3994870375085902     
   5.0400000000000000E-002     2.5692538440630708     
   5.0700000000000009E-002     1.5236557758177676     
   5.1000000000000004E-002    0.29977648367117582     
   5.1299999999999998E-002    -1.0541355720581531     
   5.1600000000000007E-002    -2.4808840323919008     
   5.1900000000000002E-002    -3.9169022454594633     
   5.2200000000000010E-002    -5.2944614585241574     
   5.2500000000000005E-002    -6.5455630955364938     
   5.2800000000000000E-002    -7.6054797805633410     
   5.3099999999999994E-002    -8.4167423606421217     
   5.3400000000000003E-002    -8.9326007654530812     
   5.3699999999999998E-002    -9.1189697219602301     
   5.4000000000000006E-002    -8.9572418266793132     
   5.4300000000000001E-002    -8.4452013396385581     
   5.4599999999999996E-002    -7.5963146796626244     
   5.4900000000000004E-002    -6.4389297241562993     
   5.5199999999999999E-002    -5.0140655135054306     
   5.5499999999999994E-002    -3.3731238914353723     
   5.5800000000000002E-002    -1.5742284364666377     
   5.6099999999999997E-002    0.32117841473680619     
   5.6400000000000006E-002     2.2508087690325049     
   5.6700000000000000E-002     4.1548214602571765     
   5.6999999999999995E-002     5.9776212967941236     
   5.7300000000000004E-002     7.6698451966028109     
   5.7599999999999998E-002     9.1897112623049324     
   5.7900000000000007E-002     10.503056857201827     
   5.8200000000000002E-002     11.583333158717458     
   5.8499999999999996E-002     12.411547752470817     
   5.8800000000000005E-002     12.976242571677712     
   5.9100000000000000E-002     13.272140319788573     
   5.9400000000000008E-002     13.299439700297283     
   5.9700000000000003E-002     13.063431620483930     
   6.0000000000000012E-002     12.572778074989355     
   6.0300000000000006E-002     11.839465150730527     
   6.0600000000000001E-002     10.877898956418511     
   6.0900000000000010E-002     9.7035744499433072     
   6.1200000000000004E-002     8.3328005158152294     
   6.1500000000000013E-002     6.7827779076800976     
   6.1800000000000008E-002     5.0718286186054620     
   6.2100000000000002E-002     3.2195639743149651     
   6.2399999999999997E-002     1.2480356645016268     
   6.2700000000000006E-002   -0.81612300709439811     
   6.3000000000000000E-002    -2.9408075401230089     
   6.3300000000000009E-002    -5.0867731955983944     
   6.3600000000000004E-002    -7.2059636125431057     
   6.3899999999999998E-002    -9.2413153205559979     
   6.4199999999999993E-002    -11.127816748612878     
   6.4500000000000002E-002    -12.794124250411977     
   6.4800000000000010E-002    -14.165558636343766     
   6.5100000000000005E-002    -15.168790767277763     
   6.5400000000000000E-002    -15.737324836377553     
   6.5700000000000008E-002    -15.818082375654029     
   6.5999999999999989E-002    -15.377087143657221     
   6.6299999999999998E-002    -14.403859763598231     
   6.6600000000000006E-002    -12.916142218168027     
   6.6900000000000001E-002    -10.961985486756271     
   6.7199999999999996E-002    -8.6182864945088831     
   6.7500000000000004E-002    -5.9879054324306296     
   6.7800000000000013E-002    -3.1946039710394079     
   6.8099999999999994E-002   -0.37489755663746127     
   6.8400000000000002E-002     2.3310109206758138     
   6.8700000000000011E-002     4.7887032603907889     
   6.8999999999999992E-002     6.8779515631901802     
   6.9300000000000000E-002     8.5022683341631389     
   6.9600000000000009E-002     9.5952988034952043     
   6.9900000000000004E-002     10.124108888826157     
   7.0199999999999999E-002     10.090317359651999     
   7.0500000000000007E-002     9.5291751325045286     
   7.0800000000000016E-002     8.5069744460606884     
   7.1099999999999997E-002     7.1134663489696948     
   7.1400000000000005E-002     5.4552120085188918     
   7.1700000000000000E-002     3.6485661139446659     
   7.1999999999999995E-002     1.8104890627399435     
   7.2300000000000003E-002     5.1990517815244108E-002
   7.2600000000000012E-002    -1.5290272423023914     
   7.2900000000000006E-002    -2.8530391127864241     
   7.3200000000000001E-002    -3.8623544988665017     
   7.3499999999999996E-002    -4.5232066776867157     
   7.3800000000000004E-002    -4.8255173605651809     
   7.4099999999999999E-002    -4.7828553383349401     
   7.4400000000000008E-002    -4.4299226727842571     
   7.4700000000000003E-002    -3.8180382927789260     
   7.5000000000000011E-002    -3.0112474127988613     
   7.5299999999999992E-002    -2.0815828765016722     
   7.5600000000000001E-002    -1.1039550515105658     
   7.5900000000000009E-002   -0.15030690161639998     
   7.6200000000000004E-002    0.71398669263921066     
   7.6499999999999999E-002     1.4346218446940002     
   7.6800000000000007E-002     1.9726387913803110     
   7.7099999999999988E-002     2.3041853921325139     
   7.7399999999999997E-002     2.4226774623861833     
   7.7700000000000005E-002     2.3385210088718185     
   7.8000000000000014E-002     2.0764647057959338     
   7.8299999999999995E-002     1.6738319522449843     
   7.8600000000000003E-002     1.1758778135910135     
   7.8900000000000012E-002    0.63231129608190451     
   7.9199999999999993E-002     9.3424184559818380E-002
   7.9500000000000001E-002   -0.39505951935823758     
   7.9800000000000010E-002   -0.79421469791109267     
   8.0100000000000018E-002    -1.0755666552480618     
   8.0399999999999999E-002    -1.2228861941792644     
   8.0700000000000008E-002    -1.2316605906311897     
   8.1000000000000003E-002    -1.1089953510670938     
   8.1299999999999997E-002   -0.87260025843449163     
   8.1600000000000006E-002   -0.54821823005377734     
   8.1900000000000014E-002   -0.16535781012406237     
   8.2199999999999995E-002    0.24462983180518311     
   8.2500000000000004E-002    0.65179841970243935     
   8.2799999999999999E-002     1.0301976223900191     
   8.3100000000000007E-002     1.3595527415803503     
   8.3400000000000002E-002     1.6280146822596790     
   8.3700000000000011E-002     1.8307055167186721     
   8.4000000000000005E-002     1.9690767583401689     
   8.4300000000000000E-002     2.0512578078062802     
   8.4599999999999995E-002     2.0894198912197188     
   8.4900000000000003E-002     2.0979128526662660     
   8.5199999999999998E-002     2.0916008745530386     
   8.5500000000000007E-002     2.0844711067536519     
   8.5800000000000001E-002     2.0882084239444678     
   8.6100000000000010E-002     2.1104024349663808     
   8.6399999999999991E-002     2.1553107145341954     
   8.6699999999999999E-002     2.2232972192532454     
   8.7000000000000008E-002     2.3104641064051563     
   8.7300000000000003E-002     2.4091339540115118     
   8.7599999999999997E-002     2.5091685997438340     
   8.7900000000000006E-002     2.5994530637064255     
   8.8200000000000014E-002     2.6666496315189274     
   8.8499999999999995E-002     2.6984569623191397     
   8.8800000000000004E-002     2.6848215940808058     
   8.9100000000000013E-002     2.6169241409355855     
   8.9399999999999993E-002     2.4905427067039811     
   8.9700000000000002E-002     2.3058662712214266     
   9.0000000000000011E-002     2.0674518072672678     
   9.0299999999999991E-002     1.7835083988263332     
   9.0600000000000000E-002     1.4644418604892997     
   9.0900000000000009E-002     1.1223230480176154     
   9.1200000000000017E-002    0.76784647947603235     
   9.1499999999999998E-002    0.40745574083861091     
   9.1800000000000007E-002     4.2291829085344151E-002
   9.2100000000000001E-002   -0.33263482611205913     
   9.2399999999999996E-002   -0.72922194026140819     
   9.2700000000000005E-002    -1.1649760776955924     
   9.3000000000000013E-002    -1.6593739776577741     
   9.3300000000000008E-002    -2.2313732846975536     
   9.3600000000000003E-002    -2.8946966006559638     
   9.3899999999999997E-002    -3.6530078537506494     
   9.4200000000000006E-002    -4.4988141428606587     
   9.4500000000000001E-002    -5.4100394091583581     
   9.4800000000000009E-002    -6.3515815851393738     
   9.5100000000000004E-002    -7.2784358195556722     
   9.5399999999999999E-002    -8.1392205965362479     
   9.5699999999999993E-002    -8.8852079334129570     
   9.6000000000000002E-002    -9.4760287174554065     
   9.6300000000000011E-002    -9.8863154541658513     
   9.6600000000000005E-002    -10.110847668320442     
   9.6900000000000000E-002    -10.165747995868369     
   9.7200000000000009E-002    -10.087721222845614     
   9.7499999999999989E-002    -9.9281938535029273     
   9.7799999999999998E-002    -9.7444413173027264     
   9.8100000000000007E-002    -9.5879748395022482     
   9.8400000000000015E-002    -9.4923603573019228     
   9.8699999999999996E-002    -9.4629223178268500     
   9.9000000000000005E-002    -9.4670647233753549     
   9.9300000000000013E-002    -9.4307404192551374     
   9.9599999999999994E-002    -9.2394762766018736     
   9.9900000000000003E-002    -8.7467588826986997     
  0.10020000000000001         -7.7895068713799134     
  0.10049999999999999         -6.2043120782948851     
  0.10080000000000000         -3.8515610135915814     
  0.10110000000000001        -0.63859110778340478     
  0.10140000000000000          3.4606562458685559     
  0.10170000000000000          8.3878612993771640     
  0.10200000000000001          13.993107139530588     
  0.10230000000000002          20.033768983782206     
  0.10260000000000000          26.185550328984675     
  0.10290000000000001          32.061439855301600     
  0.10320000000000000          37.239120295426304     
  0.10350000000000001          41.296722423768053     
  0.10380000000000000          43.848387684693805     
  0.10410000000000001          44.579759919007003     
  0.10440000000000001          43.280659553021557     
  0.10470000000000000          39.868707573866999     
  0.10500000000000000          34.402918788463353     
  0.10530000000000000          27.084343040179053     
  0.10560000000000000          18.248002726626396     
  0.10590000000000001          8.3392941513312557     
  0.10620000000000000         -2.1190252434401158     
  0.10650000000000001         -12.560986070733044     
  0.10679999999999999         -22.421475992353685     
  0.10710000000000000         -31.174735498384635     
  0.10740000000000001         -38.372554275446404     
  0.10770000000000000         -43.672725405686975     
  0.10800000000000000         -46.856202037860655     
  0.10830000000000001         -47.840675833037885     
  0.10859999999999999         -46.677115934765105     
  0.10890000000000000         -43.538379689962454     
  0.10920000000000001         -38.700359182971368     
  0.10950000000000001         -32.517673966197528     
  0.10979999999999999         -25.395201693005241     
  0.11009999999999999         -17.756601678153448     
  0.11040000000000001         -10.019802855289790     
  0.11070000000000001         -2.5714163522587334     
  0.11100000000000000          4.2559141368050684     
  0.11130000000000000          10.194294178119243     
  0.11160000000000002          15.050926363936778     
  0.11190000000000001          18.709664939717246     
  0.11220000000000001          21.130117700010530     
  0.11250000000000000          22.343759756562349     
  0.11280000000000000          22.438613476132613     
  0.11309999999999999          21.551600966709280     
  0.11340000000000001          19.855977429503572     
  0.11369999999999998          17.545329188115090     
  0.11400000000000000          14.820551174624569     
  0.11430000000000000          11.877369444176736     
  0.11460000000000002          8.8972848897266488     
  0.11489999999999999          6.0373886761039461     
  0.11520000000000001          3.4240361681628180     
  0.11550000000000001          1.1497173704876831     
  0.11580000000000000        -0.72721569393065999     
  0.11609999999999999         -2.1817252434217993     
  0.11640000000000002         -3.2195835642680617     
  0.11670000000000001         -3.8685682568501960     
  0.11700000000000001         -4.1753240187668013     
  0.11730000000000000         -4.1990138757234670     
  0.11760000000000000         -4.0012133129208749     
  0.11789999999999999         -3.6447905160270979     
  0.11820000000000001         -3.1880060222456845     
  0.11850000000000001         -2.6798616814992791     
  0.11880000000000000         -2.1615982738104824     
  0.11910000000000000         -1.6636469654533119     
  0.11940000000000002         -1.2092746539973862     
  0.11970000000000001        -0.81353167424369599     
  0.12000000000000001        -0.48348167685685994     
  0.12030000000000000        -0.22397613921515092     
  0.12060000000000000         -3.5427083778177215E-002
  0.12089999999999999          8.5301283183266352E-002
  0.12119999999999999         0.14353038624541936     
  0.12150000000000001         0.14584000960032695     
  0.12180000000000001         0.10168066146604404     
  0.12210000000000000          2.2078372976845950E-002
  0.12239999999999999         -8.2282228872151336E-002
  0.12270000000000002        -0.19790444977392085     
  0.12300000000000001        -0.31296354947094085     
  0.12330000000000001        -0.41728291886045571     
  0.12360000000000000        -0.50153317351897431     
  0.12390000000000000        -0.56096311993154080     
  0.12419999999999999        -0.59185732421285864     
  0.12450000000000001        -0.59469486387858594     
  0.12480000000000001        -0.57427004651937452     
  0.12509999999999999        -0.53422169097194383     
  0.12540000000000001        -0.48149393950176483     
  0.12570000000000003        -0.42289072058442378     
  0.12600000000000000        -0.36286007331833248     
  0.12630000000000002        -0.30614927715110490     
  0.12659999999999999        -0.25508045508679716     
  0.12690000000000001        -0.20999002658443258     
  0.12719999999999998        -0.17000748434556873     
  0.12750000000000000        -0.13331259734801287     
  0.12780000000000002         -9.7567265581424284E-002
  0.12809999999999999         -6.2058101763376367E-002
  0.12840000000000001         -2.5908465397861069E-002
  0.12869999999999998          1.1651471736837053E-002
  0.12900000000000000          4.7766496498315186E-002
  0.12930000000000003          8.0571452678099731E-002
  0.12959999999999999         0.10815420503233317     
  0.12990000000000002         0.12754770777313792     
  0.13019999999999998         0.13836843621741271     
  0.13050000000000000         0.13927896694176339     
  0.13080000000000003         0.13161806631042122     
  0.13109999999999999         0.11921540895797295     
  0.13140000000000002         0.10335445193121237     
  0.13169999999999998          8.8837751329504167E-002
  0.13200000000000001          7.9944006990661842E-002
  0.13229999999999997          7.8338404550613819E-002
  0.13260000000000000          8.5826457962306507E-002
  0.13290000000000002         0.10213327958174245     
  0.13319999999999999         0.12560919982750396     
  0.13350000000000001         0.15254087707819142     
  0.13380000000000003         0.17871056212792694     
  0.13410000000000000         0.20006245839521486     
  0.13440000000000002         0.21292730509592095     
  0.13469999999999999         0.21443415999296248     
  0.13500000000000001         0.20396074586990420     
  0.13529999999999998         0.18422284975560393     
  0.13560000000000000         0.15794330900013809     
  0.13590000000000002         0.12951777678085163     
  0.13619999999999999         0.10565791849001004     
  0.13650000000000001          9.0375844230490304E-002
  0.13680000000000003          8.7197116665082092E-002
  0.13710000000000000          9.8108107016662560E-002
  0.13740000000000002         0.12156132354073296     
  0.13769999999999999         0.15421693516231383     
  0.13800000000000001         0.18952844053307738     
  0.13829999999999998         0.22086527471931786     
  0.13860000000000000         0.24109540161880427     
  0.13890000000000002         0.24377487248258800     
  0.13919999999999999         0.22579397604723384     
  0.13950000000000001         0.18648020058438652     
  0.13979999999999998         0.12892898213640813     
  0.14010000000000000          5.8884505665313239E-002
  0.14040000000000002         -1.4394160632700249E-002
  0.14069999999999999         -8.0375877878068658E-002
  0.14100000000000001        -0.13060312511898559     
  0.14130000000000004        -0.15660800250527937     
  0.14160000000000000        -0.15402213488790112     
  0.14189999999999997        -0.12295043555163002     
  0.14219999999999999         -6.7070235286477778E-002
  0.14250000000000002          4.0015046228465134E-003
  0.14279999999999998          7.9243796174834333E-002
  0.14310000000000000         0.14571433849387222     
  0.14339999999999997         0.18973807914672691     
  0.14369999999999999         0.20164665795636924     
  0.14400000000000002         0.17544640463122002     
  0.14429999999999998         0.11012717961056684     
  0.14460000000000001          1.1538026462267661E-002
  0.14490000000000003        -0.10873205689173748     
  0.14520000000000000        -0.23630078988245085     
  0.14550000000000002        -0.35307883176022897     
  0.14579999999999999        -0.44071987050575823     
  0.14610000000000001        -0.48517778514741849     
  0.14640000000000003        -0.47637562435222203     
  0.14670000000000000        -0.41230155626237064     
  0.14699999999999996        -0.29804297006695579     
  0.14729999999999999        -0.14553994699736975     
  0.14760000000000001          2.3795367330726000E-002
  0.14789999999999998         0.18776472515612186     
  0.14820000000000000         0.32275399537649641     