  -1.4999999999999999E-002     0.0000000000000000     
  -1.4700000000000000E-002     9.8525581940825643E-024
  -1.4400000000000000E-002     3.0979711445958363E-019
  -1.4100000000000000E-002     3.9728659346318178E-017
  -1.3800000000000000E-002    -1.0408458631522782E-016
  -1.3500000000000000E-002    -8.0701275039984832E-015
  -1.3200000000000000E-002    -4.8370160039464895E-015
  -1.2899999999999998E-002     1.8704632091763469E-013
  -1.2600000000000000E-002     4.3700175877326095E-013
  -1.2299999999999998E-002    -1.3934360050473540E-012
  -1.2000000000000000E-002    -4.6314581906902756E-012
  -1.1699999999999999E-002    -6.5278017301852026E-012
  -1.1399999999999999E-002     7.1720648956631583E-012
  -1.1099999999999999E-002     1.9293872292558032E-010
  -1.0799999999999999E-002     6.2618757083017965E-011
  -1.0499999999999999E-002    -1.4736495323442993E-009
  -1.0199999999999999E-002     1.2299580171895929E-010
  -9.8999999999999991E-003     5.3520919707657407E-009
  -9.5999999999999992E-003    -3.6460657526791705E-009
  -9.2999999999999992E-003    -7.0486395506723482E-009
  -8.9999999999999993E-003     1.3800936895242890E-008
  -8.6999999999999994E-003    -9.6931684558993325E-009
  -8.3999999999999995E-003    -1.9508279077532262E-008
  -8.0999999999999996E-003     3.9356281029295044E-008
  -7.7999999999999988E-003     6.3713727306317166E-009
  -7.4999999999999997E-003    -3.4431516446240407E-008
  -7.1999999999999998E-003     1.9531755784708687E-008
  -6.8999999999999981E-003     5.7934157988819425E-009
  -6.5999999999999982E-003    -9.9062361852538029E-008
  -6.3000000000000000E-003    -4.7864285296506953E-008
  -6.0000000000000001E-003     2.7022656137659670E-007
  -5.6999999999999985E-003     1.4227315268876258E-007
  -5.3999999999999986E-003    -2.8410243160817547E-007
  -5.1000000000000004E-003    -1.9848719074887133E-007
  -4.7999999999999987E-003    -1.2121564097822685E-007
  -4.5000000000000005E-003     2.7789671949181727E-007
  -4.1999999999999989E-003     7.3866380699679506E-007
  -3.8999999999999990E-003    -3.7940261466417000E-007
  -3.5999999999999990E-003    -2.0151628736636165E-006
  -3.2999999999999991E-003    -2.5901009722841304E-007
  -2.9999999999999992E-003     5.3885232245489753E-006
  -2.6999999999999993E-003     4.1481909541582659E-006
  -2.3999999999999994E-003    -1.2126406157602180E-005
  -2.0999999999999977E-003    -2.3055627043080740E-005
  -1.7999999999999995E-003     2.2937215686419019E-005
  -1.4999999999999979E-003     1.7854444780788991E-004
  -1.1999999999999997E-003     4.4285104788145663E-004
  -8.9999999999999976E-004     7.5170078564364454E-004
  -5.9999999999999810E-004     1.0715280804299342E-003
  -2.9999999999999992E-004     1.4939849687450244E-003
   0.0000000000000000          2.2040598821130184E-003
   3.0000000000000165E-004     3.3973269563704759E-003
   5.9999999999999984E-004     5.2533657915559036E-003
   9.0000000000000149E-004     7.9681548317450408E-003
   1.2000000000000031E-003     1.1833650202873644E-002
   1.5000000000000013E-003     1.7297158226917086E-002
   1.8000000000000030E-003     2.4977213075571891E-002
   2.1000000000000012E-003     3.5618357797087032E-002
   2.3999999999999994E-003     5.0008979313176001E-002
   2.7000000000000010E-003     6.9015012051973718E-002
   2.9999999999999992E-003     9.3629644497387962E-002
   3.3000000000000008E-003    0.12488553086086529     
   3.6000000000000025E-003    0.16368921310084139     
   3.9000000000000007E-003    0.21062454852719248     
   4.2000000000000023E-003    0.26572686779790400     
   4.5000000000000005E-003    0.32819530799934948     
   4.7999999999999987E-003    0.39607680371798620     
   5.1000000000000004E-003    0.46594045195672751     
   5.4000000000000020E-003    0.53248662486983822     
   5.7000000000000037E-003    0.58824349271160248     
   5.9999999999999984E-003    0.62343157227634571     
   6.3000000000000000E-003    0.62599415506836487     
   6.6000000000000017E-003    0.58191651997675498     
   6.9000000000000034E-003    0.47583640405815625     
   7.2000000000000015E-003    0.29207569934010963     
   7.5000000000000032E-003     1.6022412607480059E-002
   7.8000000000000014E-003   -0.36393770822158261     
   8.0999999999999996E-003   -0.85420561726205224     
   8.4000000000000012E-003    -1.4537043741121183     
   8.7000000000000029E-003    -2.1518078116326471     
   9.0000000000000011E-003    -2.9264791387362292     
   9.2999999999999992E-003    -3.7431099908977572     
   9.6000000000000009E-003    -4.5545035024221194     
   9.8999999999999991E-003    -5.3018923537905236     
   1.0200000000000001E-002    -5.9174781679656077     
   1.0500000000000002E-002    -6.3284946398685902     
   1.0800000000000004E-002    -6.4624324796181032     
   1.1099999999999999E-002    -6.2534628859714090     
   1.1400000000000000E-002    -5.6492262770324047     
   1.1700000000000002E-002    -4.6175194546960592     
   1.2000000000000004E-002    -3.1525891399413299     
   1.2300000000000002E-002    -1.2788251959606918     
   1.2600000000000000E-002    0.94628667696291313     
   1.2900000000000002E-002     3.4330721240904882     
   1.3200000000000000E-002     6.0629192119874764     
   1.3500000000000002E-002     8.6937714735235119     
   1.3800000000000003E-002     11.169743686806468     
   1.4100000000000001E-002     13.330269996321048     
   1.4400000000000000E-002     15.022449703864829     
   1.4700000000000001E-002     16.111986390038734     
   1.4999999999999999E-002     16.493433237599383     
   1.5300000000000001E-002     16.099546669229461     
   1.5600000000000003E-002     14.906074746486331     
   1.5899999999999997E-002     12.935643392652612     
   1.6199999999999999E-002     10.257829825661013     
   1.6500000000000001E-002     6.9846569238544616     
   1.6800000000000002E-002     3.2664738295274427     
   1.7100000000000004E-002   -0.71804302822541544     
   1.7400000000000006E-002    -4.7712069145402189     
   1.7700000000000000E-002    -8.6857787349109365     
   1.8000000000000002E-002    -12.258872202695210     
   1.8300000000000004E-002    -15.299864031558466     
   1.8600000000000005E-002    -17.642046226332987     
   1.8900000000000000E-002    -19.152105605841147     
   1.9200000000000002E-002    -19.735542580647522     
   1.9500000000000003E-002    -19.344595232818900     
   1.9799999999999998E-002    -17.979244488892700     
   2.0100000000000000E-002    -15.689131958848435     
   2.0400000000000001E-002    -12.572092231230442     
   2.0700000000000003E-002    -8.7673722488327304     
   2.0999999999999998E-002    -4.4509225414598141     
   2.1299999999999999E-002    0.17562030526872446     
   2.1600000000000001E-002     4.8958040174020558     
   2.1900000000000003E-002     9.4892684617094147     
   2.2200000000000004E-002     13.743983492583347     
   2.2500000000000006E-002     17.465355200881554     
   2.2800000000000001E-002     20.484976144004026     
   2.3100000000000002E-002     22.664812453054267     
   2.3400000000000004E-002     23.899109274100297     
   2.3699999999999999E-002     24.114824689870648     
   2.4000000000000000E-002     23.267664341992440     
   2.4300000000000002E-002     21.340124491124634     
   2.4599999999999997E-002     18.338398297524634     
   2.4900000000000005E-002     14.291632908803221     
   2.5200000000000000E-002     9.2552072385880546     
   2.5499999999999995E-002     3.3140037850649322     
   2.5800000000000003E-002    -3.4069891331931066     
   2.6099999999999998E-002    -10.735647366567081     
   2.6400000000000007E-002    -18.444540329352463     
   2.6700000000000002E-002    -26.242235635915225     
   2.6999999999999996E-002    -33.779293658539203     
   2.7300000000000005E-002    -40.651882907318303     
   2.7600000000000000E-002    -46.420842072537184     
   2.7900000000000008E-002    -50.639424318371660     
   2.8200000000000003E-002    -52.883286526569265     
   2.8499999999999998E-002    -52.794709267491278     
   2.8800000000000006E-002    -50.117466949152060     
   2.9100000000000001E-002    -44.735558439189873     
   2.9400000000000003E-002    -36.702824374924468     
   2.9700000000000004E-002    -26.253284993732194     
   3.0000000000000006E-002    -13.807113948468691     
   3.0300000000000001E-002     5.0535825285374959E-002
   3.0600000000000002E-002     14.603823913749652     
   3.0900000000000004E-002     29.047119676687100     
   3.1199999999999999E-002     42.553574411242593     
   3.1500000000000007E-002     54.327786528122012     
   3.1800000000000002E-002     63.672024995007931     
   3.2099999999999997E-002     70.041398443117131     
   3.2400000000000005E-002     73.079011418640320     
   3.2700000000000000E-002     72.650414913488987     
   3.3000000000000002E-002     68.843636883592509     
   3.3300000000000003E-002     61.958153958815252     
   3.3599999999999998E-002     52.482483910070528     
   3.3900000000000000E-002     41.042420207380182     
   3.4200000000000001E-002     28.356836842930466     
   3.4500000000000003E-002     15.179648664893193     
   3.4799999999999998E-002     2.2409143581551905     
   3.5099999999999999E-002    -9.7969085980338022     
   3.5400000000000001E-002    -20.381617014547334     
   3.5699999999999996E-002    -29.102224936578310     
   3.6000000000000004E-002    -35.696869604691869     
   3.6299999999999999E-002    -40.061295340819726     
   3.6600000000000008E-002    -42.233998163729972     
   3.6900000000000002E-002    -42.376465656525113     
   3.7199999999999997E-002    -40.749489603249629     
   3.7500000000000006E-002    -37.677521457368897     
   3.7800000000000000E-002    -33.522179268289250     
   3.8100000000000009E-002    -28.651707214535524     
   3.8400000000000004E-002    -23.414034304030373     
   3.8699999999999998E-002    -18.122167897509929     
   3.9000000000000007E-002    -13.036104414157140     
   3.9300000000000002E-002    -8.3580285349540748     
   3.9600000000000003E-002    -4.2333417400476270     
   3.9900000000000005E-002   -0.74628464641765635     
   4.0200000000000000E-002     2.0659545137657833     
   4.0500000000000001E-002     4.2099948963398299     
   4.0800000000000003E-002     5.7274419152344480     
   4.1100000000000005E-002     6.6810962179021409     
   4.1399999999999999E-002     7.1523443721614024     
   4.1700000000000008E-002     7.2294847006668048     
   4.2000000000000003E-002     7.0018955622463155     
   4.2299999999999997E-002     6.5578843392093331     
   4.2600000000000006E-002     5.9751282831065025     
   4.2900000000000001E-002     5.3231326099148539     
   4.3200000000000002E-002     4.6595798347776363     
   4.3500000000000004E-002     4.0259166444536607     
   4.3799999999999999E-002     3.4544985862162259     
   4.4100000000000000E-002     2.9620764729416158     
   4.4400000000000002E-002     2.5549562377115871     
   4.4700000000000004E-002     2.2323606356799361     
   4.4999999999999998E-002     1.9834224287457649     
   4.5300000000000000E-002     1.7968730006804106     
   4.5600000000000002E-002     1.6572313561071090     
   4.5899999999999996E-002     1.5507163047712798     
   4.6200000000000005E-002     1.4667530286845660     
   4.6500000000000000E-002     1.3947187880331566     
   4.6799999999999994E-002     1.3308898420115876     
   4.7100000000000003E-002     1.2721656762213180     
   4.7399999999999998E-002     1.2169451907486832     
   4.7700000000000006E-002     1.1666782089024788     
   4.8000000000000001E-002     1.1200400771593872     
   4.8300000000000010E-002     1.0768562730768265     
   4.8600000000000004E-002     1.0347566774940105     
   4.8899999999999999E-002    0.99002482162726901     
   4.9200000000000008E-002    0.94037760892085021     
   4.9500000000000002E-002    0.88073332626919243     
   4.9800000000000011E-002    0.81028135031907766     
   5.0100000000000006E-002    0.72835524152428732     
   5.0400000000000000E-002    0.63559175642501287     
   5.0700000000000009E-002    0.53763038839200761     
   5.1000000000000004E-002    0.43819076555216468     
   5.1299999999999998E-002    0.34408745715042238     
   5.1600000000000007E-002    0.26049420612940055     
   5.1900000000000002E-002    0.19064803655415319     
   5.2200000000000010E-002    0.13764159500354478     
   5.2500000000000005E-002     9.9059328840987337E-002
   5.2800000000000000E-002     7.2403631996647039E-002
   5.3099999999999994E-002     5.2958625834638125E-002
   5.3400000000000003E-002     3.3534727318277405E-002
   5.3699999999999998E-002     9.8919775198569020E-003
   5.4000000000000006E-002    -2.3054500479889533E-002
   5.4300000000000001E-002    -6.7116158016414962E-002
   5.4599999999999996E-002   -0.12134334693392576     
   5.4900000000000004E-002   -0.18355849708481448     
   5.5199999999999999E-002   -0.24779412558204406     
   5.5499999999999994E-002   -0.30892986544040019     
   5.5800000000000002E-002   -0.36108431767931976     
   5.6099999999999997E-002   -0.39909637568862427     
   5.6400000000000006E-002   -0.42109150309430243     
   5.6700000000000000E-002   -0.42650816459382035     
   5.6999999999999995E-002   -0.41738784910546789     
   5.7300000000000004E-002   -0.39785317157029459     
   5.7599999999999998E-002   -0.37241146509968309     
   5.7900000000000007E-002   -0.34579244774550660     
   5.8200000000000002E-002   -0.32185176518857339     
   5.8499999999999996E-002   -0.30260539558191879     
   5.8800000000000005E-002   -0.28890717538534677     
   5.9100000000000000E-002   -0.27912867588760998     
   5.9400000000000008E-002   -0.27079961231402888     
   5.9700000000000003E-002   -0.26111725494642379     
   6.0000000000000012E-002   -0.24721555912193507     
   6.0300000000000006E-002   -0.22758450073327013     
   6.0600000000000001E-002   -0.20256597203991342     
   6.0900000000000010E-002   -0.17376675038804851     
   6.1200000000000004E-002   -0.14420596018312884     
   6.1500000000000013E-002   -0.11869160268683233     
   6.1800000000000008E-002   -0.10079670085961830     
   6.2100000000000002E-002    -9.4422304210747987E-002
   6.2399999999999997E-002   -0.10096594802897463     
   6.2700000000000006E-002   -0.11990303694916074     
   6.3000000000000000E-002   -0.14957757498478952     
   6.3300000000000009E-002   -0.18400511426224395     
   6.3600000000000004E-002   -0.21838333066676999     
   6.3899999999999998E-002   -0.24615940864881522     
   6.4199999999999993E-002   -0.26073331093356528     
   6.4500000000000002E-002   -0.25963461850076974     
   6.4800000000000010E-002   -0.23990421413390314     
   6.5100000000000005E-002   -0.20334156203828263     
   6.5400000000000000E-002   -0.15440701193962325     
   6.5700000000000008E-002    -9.8338232838973069E-002
   6.5999999999999989E-002    -4.4567030222690561E-002
   6.6299999999999998E-002     4.3974405386211106E-004
   6.6600000000000006E-002     2.9437606309252785E-002
   6.6900000000000001E-002     3.6838029708329119E-002
   6.7199999999999996E-002     2.3473123767974318E-002
   6.7500000000000004E-002    -1.0293175576227264E-002
   6.7800000000000013E-002    -5.7885204682796482E-002
   6.8099999999999994E-002   -0.11014073580212816     
   6.8400000000000002E-002   -0.15874736348544863     
   6.8700000000000011E-002   -0.19198663943000202     
   6.8999999999999992E-002   -0.20285906324903891     
   6.9300000000000000E-002   -0.18620759630632799     
   6.9600000000000009E-002   -0.14075689298153751     
   6.9900000000000004E-002    -7.2079823627421963E-002
   7.0199999999999999E-002     1.2641831963846483E-002
   7.0500000000000007E-002    0.10102089007151561     
   7.0800000000000016E-002    0.17921734284008561     
   7.1099999999999997E-002    0.23602273111199557     
   7.1400000000000005E-002    0.26109034404462433     
   7.1700000000000000E-002    0.24982418660986741     
   7.1999999999999995E-002    0.20485136328546222     
   7.2300000000000003E-002    0.13339628514166380     
   7.2600000000000012E-002     5.0537333128236120E-002
   7.2900000000000006E-002    -2.5632223018987134E-002
   7.3200000000000001E-002    -7.6665300291822891E-002
   7.3499999999999996E-002    -8.3748120704601789E-002
   7.3800000000000004E-002    -3.5964584910226763E-002
   7.4099999999999999E-002     7.0873781448892878E-002
   7.4400000000000008E-002    0.23176995202178605     
   7.4700000000000003E-002    0.42886162525802257     
   7.5000000000000011E-002    0.63776643280563017     
   7.5299999999999992E-002    0.82595403638924836     
   7.5600000000000001E-002    0.95761986561043033     
   7.5900000000000009E-002     1.0015340063568725     
   7.6200000000000004E-002    0.93013258823287559     
   7.6499999999999999E-002    0.72967638257180489     
   7.6800000000000007E-002    0.40126989314929212     
   7.7099999999999988E-002    -3.9694155125614451E-002
   7.7399999999999997E-002   -0.55795283060877188     
   7.7700000000000005E-002    -1.1070370882860450     
   7.8000000000000014E-002    -1.6306609235037715     
   7.8299999999999995E-002    -2.0670381007030185     
   7.8600000000000003E-002    -2.3610716346491798     
   7.8900000000000012E-002    -2.4653153926916471     
   7.9199999999999993E-002    -2.3495560181914903     
   7.9500000000000001E-002    -2.0063295787393249     
   7.9800000000000010E-002    -1.4478210523425554     
   8.0100000000000018E-002   -0.71307887288769123     
   8.0399999999999999E-002    0.14113061230661633     
   8.0700000000000008E-002     1.0443707898818886     
   8.1000000000000003E-002     1.9154639617948044     
   8.1299999999999997E-002     2.6781435543634564     
   8.1600000000000006E-002     3.2625454123689006     
   8.1900000000000014E-002     3.6147819290626630     
   8.2199999999999995E-002     3.7049389629740372     
   8.2500000000000004E-002     3.5239811651924517     
   8.2799999999999999E-002     3.0901055956377315     
   8.3100000000000007E-002     2.4425848018590912     
   8.3400000000000002E-002     1.6365698901063639     
   8.3700000000000011E-002    0.74153079033060498     
   8.4000000000000005E-002   -0.17265734490136592     
   8.4300000000000000E-002    -1.0368305659624630     
   8.4599999999999995E-002    -1.7909298308928436     
   8.4900000000000003E-002    -2.3902903086804130     
   8.5199999999999998E-002    -2.8039017287487793     
   8.5500000000000007E-002    -3.0198684342033544     
   8.5800000000000001E-002    -3.0415013439939327     
   8.6100000000000010E-002    -2.8855767818230444     
   8.6399999999999991E-002    -2.5798843410218821     
   8.6699999999999999E-002    -2.1585317073910053     
   8.7000000000000008E-002    -1.6588957623768403     
   8.7300000000000003E-002    -1.1183678116767939     
   8.7599999999999997E-002   -0.57181907659953590     
   8.7900000000000006E-002    -4.9564614207088298E-002
   8.8200000000000014E-002    0.42253340280460022     
   8.8499999999999995E-002    0.82509292936348833     
   8.8800000000000004E-002     1.1444317338962544     
   8.9100000000000013E-002     1.3716928045345433     
   8.9399999999999993E-002     1.5053092542620872     
   8.9700000000000002E-002     1.5467882462403957     
   9.0000000000000011E-002     1.5029328163955038     
   9.0299999999999991E-002     1.3861158162087195     
   9.0600000000000000E-002     1.2091801397501705     
   9.0900000000000009E-002    0.99050142237276062     
   9.1200000000000017E-002    0.74810971190173459     
   9.1499999999999998E-002    0.49929929648067045     
   9.1800000000000007E-002    0.26287478603971021     
   9.2100000000000001E-002     5.1098126785582475E-002
   9.2399999999999996E-002   -0.12495197701150547     
   9.2700000000000005E-002   -0.25844911336522935     
   9.3000000000000013E-002   -0.35004461558674199     
   9.3300000000000008E-002   -0.40043998587785123     
   9.3600000000000003E-002   -0.41704685327562074     
   9.3899999999999997E-002   -0.40891463346514234     
   9.4200000000000006E-002   -0.38275534632152863     
   9.4500000000000001E-002   -0.35039574536970575     
   9.4800000000000009E-002   -0.31694040251171390     
   9.5100000000000004E-002   -0.28677008045542191     
   9.5399999999999999E-002   -0.26468268469355966     
   9.5699999999999993E-002   -0.24707708170536932     
   9.6000000000000002E-002   -0.23458116143048069     
   9.6300000000000011E-002   -0.22387195000329202     
   9.6600000000000005E-002   -0.20982760547920734     
   9.6900000000000000E-002   -0.19381818498895512     
   9.7200000000000009E-002   -0.17120251348576482     
   9.7499999999999989E-002   -0.14359486349646416     
   9.7799999999999998E-002   -0.11460508587152501     
   9.8100000000000007E-002    -8.2512983552280178E-002
   9.8400000000000015E-002    -5.4683339639966404E-002
   9.8699999999999996E-002    -3.1193867674984634E-002
   9.9000000000000005E-002    -1.2498108830528570E-002
   9.9300000000000013E-002    -2.8286023427612776E-003
   9.9599999999999994E-002     3.5554618135582848E-003
   9.9900000000000003E-002     5.2634827002994277E-003
  0.10020000000000001          5.1936633280284354E-003
  0.10049999999999999          9.4382203219513898E-003
  0.10080000000000000          1.5084459539468660E-002
  0.10110000000000001          2.7293686117772577E-002
  0.10140000000000000          4.5189310410812110E-002
  0.10170000000000000          6.4124905668415041E-002
  0.10200000000000001          8.6832904746813794E-002
  0.10230000000000002         0.10560833850001794     
  0.10260000000000000         0.11897468789648974     
  0.10290000000000001         0.12688774094232522     
  0.10320000000000000         0.12274916702397301     
  0.10350000000000001         0.11254050784232025     
  0.10380000000000000          9.5075929272670570E-002
  0.10410000000000001          7.1463854383506248E-002
  0.10440000000000001          5.0884247450412937E-002
  0.10470000000000000          3.0222811117341288E-002
  0.10500000000000000          1.6621744309980667E-002
  0.10530000000000000          1.2596963715352958E-002
  0.10560000000000000          1.3559874223047065E-002
  0.10590000000000001          2.5688607408787083E-002
  0.10620000000000000          4.0627863819825007E-002
  0.10650000000000001          5.7142377937729583E-002
  0.10679999999999999          7.5676300860735693E-002
  0.10710000000000000          8.6069019342055048E-002
  0.10740000000000001          9.3690158691891276E-002
  0.10770000000000000          9.4194197876241281E-002
  0.10800000000000000          8.5796529302436489E-002
  0.10830000000000001          7.6740102288131509E-002
  0.10859999999999999          6.1337378999976509E-002
  0.10890000000000000          4.7067441884701085E-002
  0.10920000000000001          3.6420092415330320E-002
  0.10950000000000001          2.4913218320570949E-002
  0.10979999999999999          2.1285191347969180E-002
  0.11009999999999999          1.8300285745558892E-002
  0.11040000000000001          1.6475713167243156E-002
  0.11070000000000001          1.7991677035575311E-002
  0.11100000000000000          1.3276433845423480E-002
  0.11130000000000000          8.4638810592161957E-003
  0.11160000000000002         -8.1592090830865532E-004
  0.11190000000000001         -1.6445538282819569E-002
  0.11220000000000001         -3.0499438572696283E-002
  0.11250000000000000         -4.8736170919997317E-002
  0.11280000000000000         -6.4288781354752730E-002
  0.11309999999999999         -7.3938870572342288E-002
  0.11340000000000001         -8.1644760114372827E-002
  0.11369999999999998         -7.8481884435790530E-002
  0.11400000000000000         -7.0408107248062624E-002
  0.11430000000000000         -5.7536833949541205E-002
  0.11460000000000002         -3.7413396690756752E-002
  0.11489999999999999         -2.0366739622675829E-002
  0.11520000000000001         -2.0995292039678584E-003
  0.11550000000000001          1.2022494754543938E-002
  0.11580000000000000          1.7510364563441998E-002
  0.11609999999999999          2.0030456246021185E-002
  0.11640000000000002          1.2727765906636481E-002
  0.11670000000000001          1.0916256305944652E-003
  0.11700000000000001         -1.1740813162945432E-002
  0.11730000000000000         -2.8968736818305120E-002
  0.11760000000000000         -4.1112654614173266E-002
  0.11789999999999999         -5.1201705811603999E-002
  0.11820000000000001         -5.8076453384664418E-002
  0.11850000000000001         -5.7174754503973885E-002
  0.11880000000000000         -5.5835966923015672E-002
  0.11910000000000000         -5.0225739259615723E-002
  0.11940000000000002         -4.3393214057453278E-002
  0.11970000000000001         -4.0097207337951218E-002
  0.12000000000000001         -3.5957754237955684E-002
  0.12030000000000000         -3.6959466127811487E-002
  0.12060000000000000         -4.0641286025247629E-002
  0.12089999999999999         -4.3391127930735601E-002
  0.12119999999999999         -4.9390052271986937E-002
  0.12150000000000001         -5.0989107175518279E-002
  0.12180000000000001         -4.9178243607816467E-002
  0.12210000000000000         -4.5024313701285359E-002
  0.12239999999999999         -3.3038024478151490E-002
  0.12270000000000002         -2.0284064336249023E-002
  0.12300000000000001         -4.4720432518145911E-003
  0.12330000000000001          1.2147963387486433E-002
  0.12360000000000000          2.2608977579678880E-002
  0.12390000000000000          3.1252690450586554E-002
  0.12419999999999999          3.1367354928831921E-002
  0.12450000000000001          2.3599116907018984E-002
  0.12480000000000001          1.2315510186036114E-002
  0.12509999999999999         -6.8078352121965701E-003
  0.12540000000000001         -2.5338529046581376E-002
  0.12570000000000003         -4.2510219740908781E-002
  0.12600000000000000         -5.7638638711600694E-002
  0.12630000000000002         -6.2911444734654015E-002
  0.12659999999999999         -6.3483328855733212E-002
  0.12690000000000001         -5.5301954190993319E-002
  0.12719999999999998         -3.9398704633837482E-002
  0.12750000000000000         -2.1958396233159115E-002
  0.12780000000000002          6.7619490635000023E-004
  0.12809999999999999          2.0942585852818246E-002
  0.12840000000000001          3.8476061769743893E-002
  0.12869999999999998          5.4664232663557320E-002
  0.12900000000000000          6.4325192196370562E-002
  0.12930000000000003          7.3135697511114525E-002
  0.12959999999999999          7.9741203510258110E-002
  0.12990000000000002          8.4883355990784712E-002
  0.13019999999999998          9.3613000110947628E-002
  0.13050000000000000         0.10209064349273278     
  0.13080000000000003         0.11348448878258015     
  0.13109999999999999         0.12629868294878294     
  0.13140000000000002         0.13648952781646423     
  0.13169999999999998         0.14568461725971868     
  0.13200000000000001         0.14830498658336744     
  0.13229999999999997         0.14440366883758249     
  0.13260000000000000         0.13389842441843289     
  0.13290000000000002         0.11428129874397774     
  0.13319999999999999          9.0457567546394488E-002
  0.13350000000000001          6.2494658852580647E-002
  0.13380000000000003          3.3865761394341026E-002
  0.13410000000000000          8.7935764388356423E-003
  0.13440000000000002         -1.2113820351495419E-002
  0.13469999999999999         -2.4798539341000535E-002
  0.13500000000000001         -3.0199590065674901E-002
  0.13529999999999998         -2.8087419289964978E-002
  0.13560000000000000         -1.9716375157579055E-002
  0.13590000000000002         -8.6260487299544171E-003
  0.13619999999999999          3.9982497527396273E-003
  0.13650000000000001          1.4344650567892966E-002
  0.13680000000000003          2.1383928532876594E-002
  0.13710000000000000          2.3798484802612069E-002
  0.13740000000000002          2.1313431166785822E-002
  0.13769999999999999          1.5839573263510438E-002
  0.13800000000000001          7.1488084620849835E-003
  0.13829999999999998         -1.3898120488422176E-003
  0.13860000000000000         -9.1272036020449560E-003
  0.13890000000000002         -1.5552713819688622E-002
  0.13919999999999999         -1.8778629994407482E-002
  0.13950000000000001         -2.2021102131466401E-002
  0.13979999999999998         -2.4282766867833396E-002
  0.14010000000000000         -2.7987536456469838E-002
  0.14040000000000002         -3.5757013100772853E-002
  0.14069999999999999         -4.6252806434674401E-002
  0.14100000000000001         -6.2763587554649974E-002
  0.14130000000000004         -8.2274147689561580E-002
  0.14160000000000000        -0.10385779468215152     
  0.14189999999999997        -0.12666629468565732     
  0.14219999999999999        -0.14493796488983110     
  0.14250000000000002        -0.15907605276121686     
  0.14279999999999998        -0.16536550518229107     
  0.14310000000000000        -0.16212135847756712     
  0.14339999999999997        -0.15179658200504439     
  0.14369999999999999        -0.13272631398667267     
  0.14400000000000002        -0.10953445169255323     
  0.14429999999999998         -8.4664897379270299E-002
  0.14460000000000001         -5.9680727214942927E-002
  0.14490000000000003         -4.0227752532025873E-002
  0.14520000000000000         -2.5326266999427537E-002
  0.14550000000000002         -1.7200468097550721E-002
  0.14579999999999999         -1.6033071961755463E-002
  0.14610000000000001         -1.8278079192260942E-002
  0.14640000000000003         -2.4290411003103796E-002
  0.14670000000000000         -3.0335530999199681E-002
  0.14699999999999996         -3.4409579388757945E-002
  0.14729999999999999         -3.6614049739627813E-002
  0.14760000000000001         -3.4720510760752096E-002
  0.14789999999999998         -3.0693557552445554E-002
  0.14820000000000000         -2.5539674158645973E-002