  -1.4999999999999999E-002     0.0000000000000000     
  -1.4700000000000000E-002     0.0000000000000000     
  -1.4400000000000000E-002     0.0000000000000000     
  -1.4100000000000000E-002     0.0000000000000000     
  -1.3800000000000000E-002     0.0000000000000000     
  -1.3500000000000000E-002     0.0000000000000000     
  -1.3200000000000000E-002     0.0000000000000000     
  -1.2899999999999998E-002     0.0000000000000000     
  -1.2600000000000000E-002     0.0000000000000000     
  -1.2299999999999998E-002     0.0000000000000000     
  -1.2000000000000000E-002     0.0000000000000000     
  -1.1699999999999999E-002     0.0000000000000000     
  -1.1399999999999999E-002     0.0000000000000000     
  -1.1099999999999999E-002     0.0000000000000000     
  -1.0799999999999999E-002     0.0000000000000000     
  -1.0499999999999999E-002     0.0000000000000000     
  -1.0199999999999999E-002     0.0000000000000000     
  -9.8999999999999991E-003     0.0000000000000000     
  -9.5999999999999992E-003     0.0000000000000000     
  -9.2999999999999992E-003     0.0000000000000000     
  -8.9999999999999993E-003     0.0000000000000000     
  -8.6999999999999994E-003     0.0000000000000000     
  -8.3999999999999995E-003     0.0000000000000000     
  -8.0999999999999996E-003     0.0000000000000000     
  -7.7999999999999988E-003     0.0000000000000000     
  -7.4999999999999997E-003     0.0000000000000000     
  -7.1999999999999998E-003     0.0000000000000000     
  -6.8999999999999981E-003     0.0000000000000000     
  -6.5999999999999982E-003     0.0000000000000000     
  -6.3000000000000000E-003     0.0000000000000000     
  -6.0000000000000001E-003     0.0000000000000000     
  -5.6999999999999985E-003     0.0000000000000000     
  -5.3999999999999986E-003     0.0000000000000000     
  -5.1000000000000004E-003     0.0000000000000000     
  -4.7999999999999987E-003     0.0000000000000000     
  -4.5000000000000005E-003     0.0000000000000000     
  -4.1999999999999989E-003     0.0000000000000000     
  -3.8999999999999990E-003     0.0000000000000000     
  -3.5999999999999990E-003     0.0000000000000000     
  -3.2999999999999991E-003     0.0000000000000000     
  -2.9999999999999992E-003     0.0000000000000000     
  -2.6999999999999993E-003     0.0000000000000000     
  -2.3999999999999994E-003     0.0000000000000000     
  -2.0999999999999977E-003     0.0000000000000000     
  -1.7999999999999995E-003     0.0000000000000000     
  -1.4999999999999979E-003     0.0000000000000000     
  -1.1999999999999997E-003     0.0000000000000000     
  -8.9999999999999976E-004     0.0000000000000000     
  -5.9999999999999810E-004     0.0000000000000000     
  -2.9999999999999992E-004     0.0000000000000000     
   0.0000000000000000          0.0000000000000000     
   3.0000000000000165E-004     0.0000000000000000     
   5.9999999999999984E-004     0.0000000000000000     
   9.0000000000000149E-004     0.0000000000000000     
   1.2000000000000031E-003     0.0000000000000000     
   1.5000000000000013E-003     0.0000000000000000     
   1.8000000000000030E-003     0.0000000000000000     
   2.1000000000000012E-003     0.0000000000000000     
   2.3999999999999994E-003     0.0000000000000000     
   2.7000000000000010E-003     0.0000000000000000     
   2.9999999999999992E-003     0.0000000000000000     
   3.3000000000000008E-003     0.0000000000000000     
   3.6000000000000025E-003     0.0000000000000000     
   3.9000000000000007E-003     0.0000000000000000     
   4.2000000000000023E-003     0.0000000000000000     
   4.5000000000000005E-003     0.0000000000000000     
   4.7999999999999987E-003     0.0000000000000000     
   5.1000000000000004E-003     0.0000000000000000     
   5.4000000000000020E-003     0.0000000000000000     
   5.7000000000000037E-003     0.0000000000000000     
   5.9999999999999984E-003     0.0000000000000000     
   6.3000000000000000E-003     0.0000000000000000     
   6.6000000000000017E-003     0.0000000000000000     
   6.9000000000000034E-003     0.0000000000000000     
   7.2000000000000015E-003     0.0000000000000000     
   7.5000000000000032E-003    -1.4409323052763671E-058
   7.8000000000000014E-003     1.9630206750569963E-045
   8.0999999999999996E-003    -4.9154757523565109E-043
   8.4000000000000012E-003    -4.7966836084436022E-038
   8.7000000000000029E-003     1.5888112100873416E-035
   9.0000000000000011E-003    -6.1160848736655942E-035
   9.2999999999999992E-003    -5.6067762760401437E-034
   9.6000000000000009E-003     5.3423064582858891E-033
   9.8999999999999991E-003    -5.5146850989205417E-033
   1.0200000000000001E-002    -1.0612040773605815E-031
   1.0500000000000002E-002     6.5279479395354546E-031
   1.0800000000000004E-002    -1.3646602551333654E-030
   1.1099999999999999E-002    -3.7623215783353727E-030
   1.1400000000000000E-002     4.7029061894854344E-029
   1.1700000000000002E-002    -2.4900875141983294E-028
   1.2000000000000004E-002     7.4445834785986873E-028
   1.2300000000000002E-002     3.8373154857614607E-028
   1.2600000000000000E-002    -1.6784743525145994E-026
   1.2900000000000002E-002     8.4450721761336552E-026
   1.3200000000000000E-002    -1.6899269848515370E-025
   1.3500000000000002E-002    -3.1828395935568761E-025
   1.3800000000000003E-002     3.1877364230458284E-024
   1.4100000000000001E-002    -8.4069189043082166E-024
   1.4400000000000000E-002    -5.3654082725258364E-024
   1.4700000000000001E-002     1.3115891549560968E-022
   1.4999999999999999E-002    -5.8036211640005817E-022
   1.5300000000000001E-002     1.5386679798095594E-021
   1.5600000000000003E-002    -2.4431691566140305E-021
   1.5899999999999997E-002     1.0864318066900855E-022
   1.6199999999999999E-002     1.7102148353706270E-020
   1.6500000000000001E-002    -1.0140783989071924E-019
   1.6800000000000002E-002     5.3426003458898940E-019
   1.7100000000000004E-002    -2.7674446463118308E-018
   1.7400000000000006E-002     1.3406961490622050E-017
   1.7700000000000000E-002    -5.8609837295650732E-017
   1.8000000000000002E-002     2.2625623458842468E-016
   1.8300000000000004E-002    -7.4188822376504411E-016
   1.8600000000000005E-002     1.8308762545624869E-015
   1.8900000000000000E-002    -1.5038073842364234E-015
   1.9200000000000002E-002    -1.7530402859140156E-014
   1.9500000000000003E-002     1.4073329399953547E-013
   1.9799999999999998E-002    -6.6654445150903002E-013
   2.0100000000000000E-002     2.2680104474071991E-012
   2.0400000000000001E-002    -5.2189730980216498E-012
   2.0700000000000003E-002     4.3644657671099832E-012
   2.0999999999999998E-002     2.3439333227766920E-011
   2.1299999999999999E-002    -1.1914796184592884E-010
   2.1600000000000001E-002     2.3602268627571340E-010
   2.1900000000000003E-002     4.7573507064356104E-011
   2.2200000000000004E-002    -1.4321083796880147E-009
   2.2500000000000006E-002     2.7510382124928140E-009
   2.2800000000000001E-002     2.0847404044256914E-009
   2.3100000000000002E-002    -1.4831673395634303E-008
   2.3400000000000004E-002     6.3731396050883801E-009
   2.3699999999999999E-002     5.1854651507226048E-008
   2.4000000000000000E-002    -4.3434750793958648E-008
   2.4300000000000002E-002    -1.8451688123995732E-007
   2.4599999999999997E-002     7.3186652602651435E-008
   2.4900000000000005E-002     5.6221576225426848E-007
   2.5200000000000000E-002     1.4084421185226640E-007
   2.5499999999999995E-002    -1.3524129902357560E-006
   2.5800000000000003E-002    -1.2941946142815707E-006
   2.6099999999999998E-002     3.2799351645754532E-006
   2.6400000000000007E-002     1.1139078730575449E-005
   2.6700000000000002E-002     1.7707150505247037E-005
   2.6999999999999996E-002     2.2252078033378749E-005
   2.7300000000000005E-002     3.1860144398114081E-005
   2.7600000000000000E-002     5.5337532389385136E-005
   2.7900000000000008E-002     9.4783364648719522E-005
   2.8200000000000003E-002     1.4782812466518510E-004
   2.8499999999999998E-002     2.1930922781899931E-004
   2.8800000000000006E-002     3.2690456121421121E-004
   2.9100000000000001E-002     4.9308461316843126E-004
   2.9400000000000003E-002     7.3586970375822856E-004
   2.9700000000000004E-002     1.0735227455857363E-003
   3.0000000000000006E-002     1.5380901983660193E-003
   3.0300000000000001E-002     2.1794105697890837E-003
   3.0600000000000002E-002     3.0550528680028943E-003
   3.0900000000000004E-002     4.2223092616466137E-003
   3.1199999999999999E-002     5.7437667195330035E-003
   3.1500000000000007E-002     7.6961075471909573E-003
   3.1800000000000002E-002     1.0165547069595039E-002
   3.2099999999999997E-002     1.3231698463434456E-002
   3.2400000000000005E-002     1.6955532152032073E-002
   3.2700000000000000E-002     2.1376272641573921E-002
   3.3000000000000002E-002     2.6506107214174048E-002
   3.3300000000000003E-002     3.2313018857419738E-002
   3.3599999999999998E-002     3.8697864551134137E-002
   3.3900000000000000E-002     4.5478246623755249E-002
   3.4200000000000001E-002     5.2382725516933570E-002
   3.4500000000000003E-002     5.9049311044803633E-002
   3.4799999999999998E-002     6.5022705679452716E-002
   3.5099999999999999E-002     6.9757452420940683E-002
   3.5400000000000001E-002     7.2637734716402641E-002
   3.5699999999999996E-002     7.3013429820895467E-002
   3.6000000000000004E-002     7.0252296391154698E-002
   3.6299999999999999E-002     6.3794438229955647E-002
   3.6600000000000008E-002     5.3206417849464040E-002
   3.6900000000000002E-002     3.8241900467553838E-002
   3.7199999999999997E-002     1.8912481090425457E-002
   3.7500000000000006E-002    -4.4574731627096201E-003
   3.7800000000000000E-002    -3.1206946282990759E-002
   3.8100000000000009E-002    -6.0346024777657062E-002
   3.8400000000000004E-002    -9.0573677551767623E-002
   3.8699999999999998E-002   -0.12032868761143825     
   3.9000000000000007E-002   -0.14787961456576623     
   3.9300000000000002E-002   -0.17144949499698997     
   3.9600000000000003E-002   -0.18935963121568467     
   3.9900000000000005E-002   -0.20016550474533637     
   4.0200000000000000E-002   -0.20278524667446965     
   4.0500000000000001E-002   -0.19661583690321133     
   4.0800000000000003E-002   -0.18162812884587631     
   4.1100000000000005E-002   -0.15840486228311604     
   4.1399999999999999E-002   -0.12813132032783214     
   4.1700000000000008E-002    -9.2527268363732360E-002
   4.2000000000000003E-002    -5.3740895027912121E-002
   4.2299999999999997E-002    -1.4208533613439921E-002
   4.2600000000000006E-002     2.3509154774172088E-002
   4.2900000000000001E-002     5.6906179546584112E-002
   4.3200000000000002E-002     8.3718496562481426E-002
   4.3500000000000004E-002    0.10207788775155217     
   4.3799999999999999E-002    0.11062962532908562     
   4.4100000000000000E-002    0.10860521180699591     
   4.4400000000000002E-002     9.5864136761835625E-002
   4.4700000000000004E-002     7.2911713526925978E-002
   4.4999999999999998E-002     4.0869809586243672E-002
   4.5300000000000000E-002     1.3849871935047000E-003
   4.5600000000000002E-002    -4.3498303420041733E-002
   4.5899999999999996E-002    -9.1409313402335768E-002
   4.6200000000000005E-002   -0.13975857373973161     
   4.6500000000000000E-002   -0.18589232926384780     
   4.6799999999999994E-002   -0.22720989530194521     
   4.7100000000000003E-002   -0.26129752225181430     
   4.7399999999999998E-002   -0.28605615813661317     
   4.7700000000000006E-002   -0.29978027573712607     
   4.8000000000000001E-002   -0.30124321152560574     
   4.8300000000000010E-002   -0.28980004329253400     
   4.8600000000000004E-002   -0.26545294664519659     
   4.8899999999999999E-002   -0.22884797633871920     
   4.9200000000000008E-002   -0.18122683121403893     
   4.9500000000000002E-002   -0.12439583743924879     
   4.9800000000000011E-002    -6.0646529056934802E-002
   5.0100000000000006E-002     7.3997199065078357E-003
   5.0400000000000000E-002     7.6949073124032250E-002
   5.0700000000000009E-002    0.14521938237288884     
   5.1000000000000004E-002    0.20959881969693175     
   5.1299999999999998E-002    0.26779657004621932     
   5.1600000000000007E-002    0.31801771410581492     
   5.1900000000000002E-002    0.35904415649737026     
   5.2200000000000010E-002    0.39025168759649853     
   5.2500000000000005E-002    0.41162609169122311     
   5.2800000000000000E-002    0.42371817528696909     
   5.3099999999999994E-002    0.42754214118958850     
   5.3400000000000003E-002    0.42442428210393057     
   5.3699999999999998E-002    0.41585644262360771     
   5.4000000000000006E-002    0.40337597549520149     
   5.4300000000000001E-002    0.38840182884247537     
   5.4599999999999996E-002    0.37207093140920589     
   5.4900000000000004E-002    0.35517820049465110     
   5.5199999999999999E-002    0.33814304415367136     
   5.5499999999999994E-002    0.32097675745755738     
   5.5800000000000002E-002    0.30332478218788383     
   5.6099999999999997E-002    0.28451725156780289     
   5.6400000000000006E-002    0.26368605378996174     
   5.6700000000000000E-002    0.23991867160639191     
   5.6999999999999995E-002    0.21240270869461442     
   5.7300000000000004E-002    0.18055071666828931     
   5.7599999999999998E-002    0.14408784368343586     
   5.7900000000000007E-002    0.10318533395405131     
   5.8200000000000002E-002     5.8579822729857754E-002
   5.8499999999999996E-002     1.1512957692889909E-002
   5.8800000000000005E-002    -3.6382588431207487E-002
   5.9100000000000000E-002    -8.3138846343884409E-002
   5.9400000000000008E-002   -0.12656816640228122     
   5.9700000000000003E-002   -0.16447309682412667     
   6.0000000000000012E-002   -0.19489235437114324     
   6.0300000000000006E-002   -0.21631068483753041     
   6.0600000000000001E-002   -0.22779219116705166     
   6.0900000000000010E-002   -0.22908668302080704     
   6.1200000000000004E-002   -0.22069318551681261     
   6.1500000000000013E-002   -0.20383843684452452     
   6.1800000000000008E-002   -0.18039032741067121     
   6.2100000000000002E-002   -0.15269982832037216     
   6.2399999999999997E-002   -0.12334251582163194     
   6.2700000000000006E-002    -9.4847548987096589E-002
   6.3000000000000000E-002    -6.9507553270031650E-002
   6.3300000000000009E-002    -4.9229519516613716E-002
   6.3600000000000004E-002    -3.5320491741917516E-002
   6.3899999999999998E-002    -2.8347891088270093E-002
   6.4199999999999993E-002    -2.8158943236162685E-002
   6.4500000000000002E-002    -3.4004860986337100E-002
   6.4800000000000010E-002    -4.4680132869415794E-002
   6.5100000000000005E-002    -5.8655579328816439E-002
   6.5400000000000000E-002    -7.4271143938642883E-002
   6.5700000000000008E-002    -8.9955428490744935E-002
   6.5999999999999989E-002   -0.10439101019640415     
   6.6299999999999998E-002   -0.11664034530989394     
   6.6600000000000006E-002   -0.12622483840979168     
   6.6900000000000001E-002   -0.13311529820568663     
   6.7199999999999996E-002   -0.13764347676966540     
   6.7500000000000004E-002   -0.14041304999707721     
   6.7800000000000013E-002   -0.14220717827279108     
   6.8099999999999994E-002   -0.14381684507701972     
   6.8400000000000002E-002   -0.14587821080684241     
   6.8700000000000011E-002   -0.14876925832957238     
   6.8999999999999992E-002   -0.15258191292331172     
   6.9300000000000000E-002   -0.15707389661700250     
   6.9600000000000009E-002   -0.16170785864775916     
   6.9900000000000004E-002   -0.16572401862178504     
   7.0199999999999999E-002   -0.16823666642759480     
   7.0500000000000007E-002   -0.16841486863001442     
   7.0800000000000016E-002   -0.16564749883406746     
   7.1099999999999997E-002   -0.15965197145005636     
   7.1400000000000005E-002   -0.15054277211419662     
   7.1700000000000000E-002   -0.13893001397696558     
   7.1999999999999995E-002   -0.12595967084774082     
   7.2300000000000003E-002   -0.11322262049461879     
   7.2600000000000012E-002   -0.10262361872215175     
   7.2900000000000006E-002    -9.6219740984787083E-002
   7.3200000000000001E-002    -9.5993787877374517E-002
   7.3499999999999996E-002   -0.10363628115610854     
   7.3800000000000004E-002   -0.12033631849982042     
   7.4099999999999999E-002   -0.14654090485388818     
   7.4400000000000008E-002   -0.18177951361208713     
   7.4700000000000003E-002   -0.22461406343592089     
   7.5000000000000011E-002   -0.27266802768793819     
   7.5299999999999992E-002   -0.32270433771263785     
   7.5600000000000001E-002   -0.37081207948965722     
   7.5900000000000009E-002   -0.41267116805722992     
   7.6200000000000004E-002   -0.44384543844197782     
   7.6499999999999999E-002   -0.46017743703750869     
   7.6800000000000007E-002   -0.45818410704168172     
   7.7099999999999988E-002   -0.43527765343064267     
   7.7399999999999997E-002   -0.38993926065328050     
   7.7700000000000005E-002   -0.32197086266950464     
   7.8000000000000014E-002   -0.23254294585975369     
   7.8299999999999995E-002   -0.12408685828983503     
   7.8600000000000003E-002    -1.3840198924402748E-004
   7.8900000000000012E-002    0.13485593103627727     
   7.9199999999999993E-002    0.27576312348926535     
   7.9500000000000001E-002    0.41713317508322995     
   7.9800000000000010E-002    0.55340920468833743     
   8.0100000000000018E-002    0.67909125364178069     
   8.0399999999999999E-002    0.78906521399096197     
   8.0700000000000008E-002    0.87880429217858369     
   8.1000000000000003E-002    0.94438090011453724     
   8.1299999999999997E-002    0.98255230700348484     
   8.1600000000000006E-002    0.99101091927264195     
   8.1900000000000014E-002    0.96851225172656674     
   8.2199999999999995E-002    0.91490818689863529     
   8.2500000000000004E-002    0.83123703766178858     
   8.2799999999999999E-002    0.71988269163852381     
   8.3100000000000007E-002    0.58461383106761955     
   8.3400000000000002E-002    0.43049696963384770     
   8.3700000000000011E-002    0.26376913696810567     
   8.4000000000000005E-002     9.1548252246427708E-002
   8.4300000000000000E-002    -7.8561264809693485E-002
   8.4599999999999995E-002   -0.23888849056609768     
   8.4900000000000003E-002   -0.38224048587835291     
   8.5199999999999998E-002   -0.50250170273551997     
   8.5500000000000007E-002   -0.59511634973307848     
   8.5800000000000001E-002   -0.65738865788219802     
   8.6100000000000010E-002   -0.68866506219608059     
   8.6399999999999991E-002   -0.69038692202797258     
   8.6699999999999999E-002   -0.66587338136238294     
   8.7000000000000008E-002   -0.61985692943985693     
   8.7300000000000003E-002   -0.55795202540012812     
   8.7599999999999997E-002   -0.48600919257360597     
   8.7900000000000006E-002   -0.40942679348605993     
   8.8200000000000014E-002   -0.33261744911871277     
   8.8499999999999995E-002   -0.25859953850445072     
   8.8800000000000004E-002   -0.18882683379745027     
   8.9100000000000013E-002   -0.12313685282152408     
   8.9399999999999993E-002    -5.9858974419590372E-002
   8.9700000000000002E-002     3.7496606727929357E-003
   9.0000000000000011E-002     7.0887078772537762E-002
   9.0299999999999991E-002    0.14466620748466452     
   9.0600000000000000E-002    0.22761654554372038     
   9.0900000000000009E-002    0.32123471310860152     
   9.1200000000000017E-002    0.42556197126548884     
   9.1499999999999998E-002    0.53891879509934615     
   9.1800000000000007E-002    0.65795880105530602     
   9.2100000000000001E-002    0.77782313788626056     
   9.2399999999999996E-002    0.89237968007156054     
   9.2700000000000005E-002    0.99454078015400327     
   9.3000000000000013E-002     1.0767392714159867     
   9.3300000000000008E-002     1.1314616910060320     
   9.3600000000000003E-002     1.1517016328199678     
   9.3899999999999997E-002     1.1314169746658578     
   9.4200000000000006E-002     1.0659457994161856     
   9.4500000000000001E-002    0.95242297183930735     
   9.4800000000000009E-002    0.79012399775029463     
   9.5100000000000004E-002    0.58060813471468908     
   9.5399999999999999E-002    0.32792122665572632     
   9.5699999999999993E-002     3.8649426269831137E-002
   9.6000000000000002E-002   -0.27828799444054325     
   9.6300000000000011E-002   -0.61188942322759721     
   9.6600000000000005E-002   -0.94947288871492264     
   9.6900000000000000E-002    -1.2771769442214478     
   9.7200000000000009E-002    -1.5806322816715559     
   9.7499999999999989E-002    -1.8457823385098064     
   9.7799999999999998E-002    -2.0595661880339495     
   9.8100000000000007E-002    -2.2105487988329329     
   9.8400000000000015E-002    -2.2896064881974465     
   9.8699999999999996E-002    -2.2904547808605238     
   9.9000000000000005E-002    -2.2099863673415299     
   9.9300000000000013E-002    -2.0483752928725227     
   9.9599999999999994E-002    -1.8090566918735675     
   9.9900000000000003E-002    -1.4985860018369885     
  0.10020000000000001         -1.1263744379671192     
  0.10049999999999999        -0.70430966927869121     
  0.10080000000000000        -0.24625192096249984     
  0.10110000000000001         0.23251005210554765     
  0.10140000000000000         0.71575033112912922     
  0.10170000000000000          1.1868016545866416     
  0.10200000000000001          1.6292835188501014     
  0.10230000000000002          2.0276362507048886     
  0.10260000000000000          2.3676533215400877     
  0.10290000000000001          2.6371254351811553     
  0.10320000000000000          2.8263964008564724     
  0.10350000000000001          2.9287506825969425     
  0.10380000000000000          2.9407359795692378     
  0.10410000000000001          2.8622125787147210     
  0.10440000000000001          2.6963030484114379     
  0.10470000000000000          2.4492124708552829     
  0.10500000000000000          2.1297430218088764     
  0.10530000000000000          1.7487062687826658     
  0.10560000000000000          1.3181633309692486     
  0.10590000000000001         0.85068333780165206     
  0.10620000000000000         0.35884111084692044     
  0.10650000000000001        -0.14530841506466224     
  0.10679999999999999        -0.65050537159691424     
  0.10710000000000000         -1.1463810097844194     
  0.10740000000000001         -1.6233578622319778     
  0.10770000000000000         -2.0722741593217258     
  0.10800000000000000         -2.4838699626246554     
  0.10830000000000001         -2.8482600809633700     
  0.10859999999999999         -3.1547268846758718     
  0.10890000000000000         -3.3916558133851145     
  0.10920000000000001         -3.5466014178892991     
  0.10950000000000001         -3.6066542862659015     
  0.10979999999999999         -3.5594028244360389     
  0.11009999999999999         -3.3942858047993165     
  0.11040000000000001         -3.1039866380424441     
  0.11070000000000001         -2.6858398042861480     
  0.11100000000000000         -2.1433176313446145     
  0.11130000000000000         -1.4872198842245523     
  0.11160000000000002        -0.73636219877281017     
  0.11190000000000001          8.2345903266972303E-002
  0.11220000000000001         0.93470951401089231     
  0.11250000000000000          1.7807401989653970     
  0.11280000000000000          2.5768469891883581     
  0.11309999999999999          3.2786582811642750     
  0.11340000000000001          3.8441587621032816     
  0.11369999999999998          4.2370494428898375     
  0.11400000000000000          4.4299381754477380     
  0.11430000000000000          4.4067886882686684     
  0.11460000000000002          4.1645277659625117     
  0.11489999999999999          3.7138630249617943     
  0.11520000000000001          3.0790309050949194     
  0.11550000000000001          2.2962653070783703     
  0.11580000000000000          1.4113671535927050     
  0.11609999999999999         0.47645915487140605     
  0.11640000000000002        -0.45374505449649660     
  0.11670000000000001         -1.3257474170498162     
  0.11700000000000001         -2.0908941234610712     
  0.11730000000000000         -2.7085186249191437     
  0.11760000000000000         -3.1485305906032366     
  0.11789999999999999         -3.3931087093198173     
  0.11820000000000001         -3.4372476216522450     
  0.11850000000000001         -3.2885068651586962     
  0.11880000000000000         -2.9660545775138809     
  0.11910000000000000         -2.4988347729529448     
  0.11940000000000002         -1.9232807889717698     
  0.11970000000000001         -1.2806227061993711     
  0.12000000000000001        -0.61399878821293186     
  0.12030000000000000          3.4280650895818325E-002
  0.12060000000000000         0.62534449978805851     
  0.12089999999999999          1.1261651744928538     
  0.12119999999999999          1.5115945416481873     
  0.12150000000000001          1.7657070159491541     
  0.12180000000000001          1.8823255300433512     
  0.12210000000000000          1.8649871425893008     
  0.12239999999999999          1.7265919670074787     
  0.12270000000000002          1.4882005882342260     
  0.12300000000000001          1.1768964017489889     
  0.12330000000000001         0.82329026515219172     
  0.12360000000000000         0.45919997032789162     
  0.12390000000000000         0.11518913805151833     
  0.12419999999999999        -0.18190893767816171     
  0.12450000000000001        -0.41108821074299984     
  0.12480000000000001        -0.55861833527457549     
  0.12509999999999999        -0.61870726057788039     
  0.12540000000000001        -0.59356387554791346     
  0.12570000000000003        -0.49271449237002818     
  0.12600000000000000        -0.33196009312955127     
  0.12630000000000002        -0.13190719460868297     
  0.12659999999999999          8.4243513839883419E-002
  0.12690000000000001         0.29266430230317092     
  0.12719999999999998         0.47047750920878806     
  0.12750000000000000         0.59747978437375404     
  0.12780000000000002         0.65762609558624763     
  0.12809999999999999         0.64005093486063902     
  0.12840000000000001         0.53972736686980294     
  0.12869999999999998         0.35777977444454540     
  0.12900000000000000         0.10152948585937492     
  0.12930000000000003        -0.21581475215194568     
  0.12959999999999999        -0.57578891146786226     
  0.12990000000000002        -0.95540848854126637     
  0.13019999999999998         -1.3284578422136986     
  0.13050000000000000         -1.6671998337262235     
  0.13080000000000003         -1.9439904269602446     
  0.13109999999999999         -2.1332265680631570     
  0.13140000000000002         -2.2133604646423577     
  0.13169999999999998         -2.1686197755952796     
  0.13200000000000001         -1.9907992074235124     
  0.13229999999999997         -1.6806619386065902     
  0.13260000000000000         -1.2481371492530704     
  0.13290000000000002        -0.71184723693284047     
  0.13319999999999999         -9.8476141714207072E-002
  0.13350000000000001         0.55863590760603932     
  0.13380000000000003          1.2219792482377374     
  0.13410000000000000          1.8530362435204804     
  0.13440000000000002          2.4148201275448988     
  0.13469999999999999          2.8740827161427314     
  0.13500000000000001          3.2040888242032621     
  0.13529999999999998          3.3867575029587127     
  0.13560000000000000          3.4135407315008162     
  0.13590000000000002          3.2854582257559040     
  0.13619999999999999          3.0126136872642544     
  0.13650000000000001          2.6135708619789870     
  0.13680000000000003          2.1136939087111837     
  0.13710000000000000          1.5426130096889035     
  0.13740000000000002         0.93194425458112184     
  0.13769999999999999         0.31345715562756038     
  0.13800000000000001        -0.28269388152170266     
  0.13829999999999998        -0.83016700230535823     
  0.13860000000000000         -1.3081747894085902     
  0.13890000000000002         -1.7017729874880265     
  0.13919999999999999         -2.0018679536733770     
  0.13950000000000001         -2.2056064125668708     
  0.13979999999999998         -2.3160206896257010     
  0.14010000000000000         -2.3407141903382578     
  0.14040000000000002         -2.2904753539070564     
  0.14069999999999999         -2.1780922363188062     
  0.14100000000000001         -2.0170645733398200     
  0.14130000000000004         -1.8203114326854262     
  0.14160000000000000         -1.5991215762767284     
  0.14189999999999997         -1.3623971964833361     
  0.14219999999999999         -1.1164942948782901     
  0.14250000000000002        -0.86545484225736957     
  0.14279999999999998        -0.61157254576322329     
  0.14310000000000000        -0.35612547921815363     
  0.14339999999999997        -0.10030075965285332     
  0.14369999999999999         0.15374949696131771     
  0.14400000000000002         0.40230107271915888     
  0.14429999999999998         0.63972946468562120     
  0.14460000000000001         0.85829545713670052     
  0.14490000000000003          1.0487854542001687     
  0.14520000000000000          1.2016550247979472     
  0.14550000000000002          1.3079461881102856     
  0.14579999999999999          1.3603501045252948     
  0.14610000000000001          1.3546931386313124     
  0.14640000000000003          1.2911867685508256     
  0.14670000000000000          1.1744498778746526     
  0.14699999999999996          1.0130168980114374     
  0.14729999999999999         0.81914850395035110     
  0.14760000000000001         0.60790631197208000     
  0.14789999999999998         0.39503846442850782     
  0.14820000000000000         0.19499589779407484     