  -1.4999999999999999E-002     0.0000000000000000     
  -1.4700000000000000E-002     0.0000000000000000     
  -1.4400000000000000E-002     0.0000000000000000     
  -1.4100000000000000E-002     0.0000000000000000     
  -1.3800000000000000E-002     0.0000000000000000     
  -1.3500000000000000E-002     0.0000000000000000     
  -1.3200000000000000E-002     0.0000000000000000     
  -1.2899999999999998E-002     0.0000000000000000     
  -1.2600000000000000E-002     0.0000000000000000     
  -1.2299999999999998E-002     0.0000000000000000     
  -1.2000000000000000E-002     0.0000000000000000     
  -1.1699999999999999E-002     0.0000000000000000     
  -1.1399999999999999E-002     0.0000000000000000     
  -1.1099999999999999E-002     0.0000000000000000     
  -1.0799999999999999E-002     0.0000000000000000     
  -1.0499999999999999E-002     0.0000000000000000     
  -1.0199999999999999E-002     0.0000000000000000     
  -9.8999999999999991E-003     0.0000000000000000     
  -9.5999999999999992E-003     0.0000000000000000     
  -9.2999999999999992E-003     0.0000000000000000     
  -8.9999999999999993E-003     0.0000000000000000     
  -8.6999999999999994E-003     0.0000000000000000     
  -8.3999999999999995E-003     0.0000000000000000     
  -8.0999999999999996E-003     0.0000000000000000     
  -7.7999999999999988E-003     0.0000000000000000     
  -7.4999999999999997E-003     0.0000000000000000     
  -7.1999999999999998E-003     0.0000000000000000     
  -6.8999999999999981E-003     0.0000000000000000     
  -6.5999999999999982E-003     0.0000000000000000     
  -6.3000000000000000E-003     0.0000000000000000     
  -6.0000000000000001E-003     0.0000000000000000     
  -5.6999999999999985E-003     0.0000000000000000     
  -5.3999999999999986E-003     0.0000000000000000     
  -5.1000000000000004E-003     0.0000000000000000     
  -4.7999999999999987E-003     0.0000000000000000     
  -4.5000000000000005E-003     0.0000000000000000     
  -4.1999999999999989E-003     0.0000000000000000     
  -3.8999999999999990E-003     0.0000000000000000     
  -3.5999999999999990E-003     0.0000000000000000     
  -3.2999999999999991E-003     0.0000000000000000     
  -2.9999999999999992E-003     0.0000000000000000     
  -2.6999999999999993E-003     0.0000000000000000     
  -2.3999999999999994E-003     0.0000000000000000     
  -2.0999999999999977E-003     0.0000000000000000     
  -1.7999999999999995E-003     0.0000000000000000     
  -1.4999999999999979E-003     0.0000000000000000     
  -1.1999999999999997E-003     0.0000000000000000     
  -8.9999999999999976E-004     0.0000000000000000     
  -5.9999999999999810E-004     0.0000000000000000     
  -2.9999999999999992E-004     0.0000000000000000     
   0.0000000000000000          0.0000000000000000     
   3.0000000000000165E-004     0.0000000000000000     
   5.9999999999999984E-004     0.0000000000000000     
   9.0000000000000149E-004     0.0000000000000000     
   1.2000000000000031E-003     0.0000000000000000     
   1.5000000000000013E-003     0.0000000000000000     
   1.8000000000000030E-003     0.0000000000000000     
   2.1000000000000012E-003     0.0000000000000000     
   2.3999999999999994E-003     0.0000000000000000     
   2.7000000000000010E-003     0.0000000000000000     
   2.9999999999999992E-003     0.0000000000000000     
   3.3000000000000008E-003     0.0000000000000000     
   3.6000000000000025E-003     0.0000000000000000     
   3.9000000000000007E-003     0.0000000000000000     
   4.2000000000000023E-003     0.0000000000000000     
   4.5000000000000005E-003     0.0000000000000000     
   4.7999999999999987E-003     0.0000000000000000     
   5.1000000000000004E-003     0.0000000000000000     
   5.4000000000000020E-003     0.0000000000000000     
   5.7000000000000037E-003     0.0000000000000000     
   5.9999999999999984E-003     0.0000000000000000     
   6.3000000000000000E-003     0.0000000000000000     
   6.6000000000000017E-003     0.0000000000000000     
   6.9000000000000034E-003     0.0000000000000000     
   7.2000000000000015E-003     0.0000000000000000     
   7.5000000000000032E-003     0.0000000000000000     
   7.8000000000000014E-003     0.0000000000000000     
   8.0999999999999996E-003     0.0000000000000000     
   8.4000000000000012E-003     0.0000000000000000     
   8.7000000000000029E-003     0.0000000000000000     
   9.0000000000000011E-003     0.0000000000000000     
   9.2999999999999992E-003     0.0000000000000000     
   9.6000000000000009E-003     0.0000000000000000     
   9.8999999999999991E-003     0.0000000000000000     
   1.0200000000000001E-002     0.0000000000000000     
   1.0500000000000002E-002     0.0000000000000000     
   1.0800000000000004E-002     0.0000000000000000     
   1.1099999999999999E-002     0.0000000000000000     
   1.1400000000000000E-002    -3.8093394223302200E-043
   1.1700000000000002E-002    -1.1509512235622728E-041
   1.2000000000000004E-002    -2.1464452662706125E-038
   1.2300000000000002E-002    -8.2921777416150371E-037
   1.2600000000000000E-002     8.4035380551407421E-036
   1.2900000000000002E-002     2.3673352287688872E-035
   1.3200000000000000E-002    -5.0801351204039481E-034
   1.3500000000000002E-002     1.8030699406850414E-033
   1.3800000000000003E-002     1.6469568544102679E-032
   1.4100000000000001E-002    -1.4988085584147134E-031
   1.4400000000000000E-002     1.3694867092342808E-031
   1.4700000000000001E-002     3.9722039595984271E-030
   1.4999999999999999E-002    -2.2508179946028300E-029
   1.5300000000000001E-002     9.3948332525119632E-030
   1.5600000000000003E-002     4.4101388533861207E-028
   1.5899999999999997E-002    -2.2455640225445932E-027
   1.6199999999999999E-002     3.0578896859112332E-027
   1.6500000000000001E-002     1.9107616907201575E-026
   1.6800000000000002E-002    -1.2813710556579994E-025
   1.7100000000000004E-002     3.7140181925650139E-025
   1.7400000000000006E-002    -4.4543394739007555E-025
   1.7700000000000000E-002    -9.6158819465647228E-025
   1.8000000000000002E-002     6.7886154486323482E-024
   1.8300000000000004E-002    -2.4959162546613500E-023
   1.8600000000000005E-002     1.0197054091466048E-022
   1.8900000000000000E-002    -5.1172183726345591E-022
   1.9200000000000002E-002     2.4903982270181211E-021
   1.9500000000000003E-002    -1.0405059197586196E-020
   1.9799999999999998E-002     3.6564690337430375E-020
   2.0100000000000000E-002    -1.0741178576079807E-019
   2.0400000000000001E-002     2.5322020473214695E-019
   2.0700000000000003E-002    -3.8989010949086176E-019
   2.0999999999999998E-002    -2.6643263783947471E-019
   2.1299999999999999E-002     5.3769347676105900E-018
   2.1600000000000001E-002    -2.7417184636545643E-017
   2.1900000000000003E-002     9.2962112853150003E-017
   2.2200000000000004E-002    -1.6931734969579787E-016
   2.2500000000000006E-002    -5.1949939686386057E-016
   2.2800000000000001E-002     7.4163984566029360E-015
   2.3100000000000002E-002    -4.7750105141066087E-014
   2.3400000000000004E-002     2.2726717539029918E-013
   2.3699999999999999E-002    -8.5199538395995270E-013
   2.4000000000000000E-002     2.4332295726541981E-012
   2.4300000000000002E-002    -4.4056004108315068E-012
   2.4599999999999997E-002    -6.6292525546863923E-013
   2.4900000000000005E-002     3.8383478149860330E-011
   2.5200000000000000E-002    -1.4243007603644647E-010
   2.5499999999999995E-002     2.2805908456347608E-010
   2.5800000000000003E-002     1.8590664330884235E-010
   2.6099999999999998E-002    -1.7349767751793923E-009
   2.6400000000000007E-002     2.8237406400640672E-009
   2.6700000000000002E-002     3.0624929320047043E-009
   2.6999999999999996E-002    -1.6485986465447022E-008
   2.7300000000000005E-002     5.3119088352916283E-009
   2.7600000000000000E-002     5.7620060583857377E-008
   2.7900000000000008E-002    -4.4688781555567028E-008
   2.8200000000000003E-002    -1.9629762123572705E-007
   2.8499999999999998E-002     8.7624534310047380E-008
   2.8800000000000006E-002     5.8811127390549500E-007
   2.9100000000000001E-002     8.9623975760313791E-008
   2.9400000000000003E-002    -1.4340519840405047E-006
   2.9700000000000004E-002    -1.2105986686523349E-006
   3.0000000000000006E-002     3.3802184027269558E-006
   3.0300000000000001E-002     1.0411893892775195E-005
   3.0600000000000002E-002     1.5249870978822027E-005
   3.0900000000000004E-002     1.8149429715214968E-005
   3.1199999999999999E-002     2.6813578766673322E-005
   3.1500000000000007E-002     4.8719068572262932E-005
   3.1800000000000002E-002     8.3637682636159228E-005
   3.2099999999999997E-002     1.2838460238051049E-004
   3.2400000000000005E-002     1.8884583451283821E-004
   3.2700000000000000E-002     2.8266707002102593E-004
   3.3000000000000002E-002     4.2876019346247286E-004
   3.3300000000000003E-002     6.3993916193490403E-004
   3.3599999999999998E-002     9.3114082115259341E-004
   3.3900000000000000E-002     1.3325767754476846E-003
   3.4200000000000001E-002     1.8896700862497074E-003
   3.4500000000000003E-002     2.6511010134306519E-003
   3.4799999999999998E-002     3.6637802806284330E-003
   3.5099999999999999E-002     4.9823757742878463E-003
   3.5400000000000001E-002     6.6769976427513995E-003
   3.5699999999999996E-002     8.8248012490896952E-003
   3.6000000000000004E-002     1.1494538763173457E-002
   3.6299999999999999E-002     1.4739248186466571E-002
   3.6600000000000008E-002     1.8597303149594520E-002
   3.6900000000000002E-002     2.3087487425908139E-002
   3.7199999999999997E-002     2.8190280861989409E-002
   3.7500000000000006E-002     3.3826446092106811E-002
   3.7800000000000000E-002     3.9847012697281248E-002
   3.8100000000000009E-002     4.6031998756670911E-002
   3.8400000000000004E-002     5.2088127636699608E-002
   3.8699999999999998E-002     5.7639545743600057E-002
   3.9000000000000007E-002     6.2229645204621958E-002
   3.9300000000000002E-002     6.5342284727242420E-002
   3.9600000000000003E-002     6.6432909825014694E-002
   3.9900000000000005E-002     6.4970532773677328E-002
   4.0200000000000000E-002     6.0476750437782681E-002
   4.0500000000000001E-002     5.2567158382283270E-002
   4.0800000000000003E-002     4.1010769572103582E-002
   4.1100000000000005E-002     2.5787630125901982E-002
   4.1399999999999999E-002     7.1313449934050331E-003
   4.1700000000000008E-002    -1.4450301112594925E-002
   4.2000000000000003E-002    -3.8182735854893637E-002
   4.2299999999999997E-002    -6.3040272705180839E-002
   4.2600000000000006E-002    -8.7777018595049050E-002
   4.2900000000000001E-002   -0.11099810146872999     
   4.3200000000000002E-002   -0.13126652852445414     
   4.3500000000000004E-002   -0.14721891463265965     
   4.3799999999999999E-002   -0.15767626205590318     
   4.4100000000000000E-002   -0.16174304801843939     
   4.4400000000000002E-002   -0.15888436669723616     
   4.4700000000000004E-002   -0.14902906193291987     
   4.4999999999999998E-002   -0.13260896046269630     
   4.5300000000000000E-002   -0.11052675672166183     
   4.5600000000000002E-002    -8.4109369880711438E-002
   4.5899999999999996E-002    -5.5022845120068969E-002
   4.6200000000000005E-002    -2.5178319887159264E-002
   4.6500000000000000E-002     3.3779402827183750E-003
   4.6799999999999994E-002     2.8666061489117083E-002
   4.7100000000000003E-002     4.8891467408187228E-002
   4.7399999999999998E-002     6.2561179360320768E-002
   4.7700000000000006E-002     6.8573466764518282E-002
   4.8000000000000001E-002     6.6283658524438627E-002
   4.8300000000000010E-002     5.5579779325677203E-002
   4.8600000000000004E-002     3.6856067345698448E-002
   4.8899999999999999E-002     1.0993120768827726E-002
   4.9200000000000008E-002    -2.0685956922146718E-002
   4.9500000000000002E-002    -5.6531740925399865E-002
   4.9800000000000011E-002    -9.4612022050813094E-002
   5.0100000000000006E-002   -0.13280509742066904     
   5.0400000000000000E-002   -0.16894459954063745     
   5.0700000000000009E-002   -0.20090538959238946     
   5.1000000000000004E-002   -0.22671882004080007     
   5.1299999999999998E-002   -0.24467010771728959     
   5.1600000000000007E-002   -0.25336734218209550     
   5.1900000000000002E-002   -0.25185534763713280     
   5.2200000000000010E-002   -0.23965995197409801     
   5.2500000000000005E-002   -0.21684032692091812     
   5.2800000000000000E-002   -0.18401035608228072     
   5.3099999999999994E-002   -0.14224738656704580     
   5.3400000000000003E-002    -9.3089288575881904E-002
   5.3699999999999998E-002    -3.8482428408403810E-002
   5.4000000000000006E-002     1.9376383570239259E-002
   5.4300000000000001E-002     7.8186451442819785E-002
   5.4599999999999996E-002    0.13565739092605372     
   5.4900000000000004E-002    0.18964324782685271     
   5.5199999999999999E-002    0.23826356667917920     
   5.5499999999999994E-002    0.28003038031980876     
   5.5800000000000002E-002    0.31389513541205305     
   5.6099999999999997E-002    0.33927391664635154     
   5.6400000000000006E-002    0.35606532866582619     
   5.6700000000000000E-002    0.36457668452017411     
   5.6999999999999995E-002    0.36544890062082969     
   5.7300000000000004E-002    0.35960038996747357     
   5.7599999999999998E-002    0.34814060092323013     
   5.7900000000000007E-002    0.33221376052202423     
   5.8200000000000002E-002    0.31290559307204824     
   5.8499999999999996E-002    0.29119567822828663     
   5.8800000000000005E-002    0.26790032558226567     
   5.9100000000000000E-002    0.24362213771802799     
   5.9400000000000008E-002    0.21870691941996590     
   5.9700000000000003E-002    0.19324916233020403     
   6.0000000000000012E-002    0.16714830266581179     
   6.0300000000000006E-002    0.14018321413835988     
   6.0600000000000001E-002    0.11202829233329542     
   6.0900000000000010E-002     8.2331608288963160E-002
   6.1200000000000004E-002     5.0824453282158254E-002
   6.1500000000000013E-002     1.7419484824624871E-002
   6.1800000000000008E-002    -1.7674348055500898E-002
   6.2100000000000002E-002    -5.3929548979568934E-002
   6.2399999999999997E-002    -9.0470143378194784E-002
   6.2700000000000006E-002   -0.12602317775966299     
   6.3000000000000000E-002   -0.15896498146320626     
   6.3300000000000009E-002   -0.18740646000215821     
   6.3600000000000004E-002   -0.20933467746995033     
   6.3899999999999998E-002   -0.22280284037268222     
   6.4199999999999993E-002   -0.22608647859347303     
   6.4500000000000002E-002   -0.21789903945295716     
   6.4800000000000010E-002   -0.19759621842427486     
   6.5100000000000005E-002   -0.16529169594325721     
   6.5400000000000000E-002   -0.12198690256408629     
   6.5700000000000008E-002    -6.9544945120320778E-002
   6.5999999999999989E-002    -1.0655026768543586E-002
   6.6299999999999998E-002     5.1308819814211239E-002
   6.6600000000000006E-002    0.11253014922492939     
   6.6900000000000001E-002    0.16900603147537685     
   6.7199999999999996E-002    0.21684639634769756     
   6.7500000000000004E-002    0.25255442277691886     
   6.7800000000000013E-002    0.27331008568124221     
   6.8099999999999994E-002    0.27717944847510356     
   6.8400000000000002E-002    0.26324926796514758     
   6.8700000000000011E-002    0.23171117763728455     
   6.8999999999999992E-002    0.18383342631731281     
   6.9300000000000000E-002    0.12186156808402415     
   6.9600000000000009E-002     4.8887254226704556E-002
   6.9900000000000004E-002    -3.1377281922141752E-002
   7.0199999999999999E-002   -0.11478917434879113     
   7.0500000000000007E-002   -0.19698190399345555     
   7.0800000000000016E-002   -0.27365650023541283     
   7.1099999999999997E-002   -0.34075686585553455     
   7.1400000000000005E-002   -0.39467121654523341     
   7.1700000000000000E-002   -0.43238154573441268     
   7.1999999999999995E-002   -0.45162910294970748     
   7.2300000000000003E-002   -0.45105182645008679     
   7.2600000000000012E-002   -0.43024400013810965     
   7.2900000000000006E-002   -0.38983459463855819     
   7.3200000000000001E-002   -0.33149499917162717     
   7.3499999999999996E-002   -0.25787342970688421     
   7.3800000000000004E-002   -0.17251929881498856     
   7.4099999999999999E-002    -7.9676774322109678E-002
   7.4400000000000008E-002     1.5896649534217478E-002
   7.4700000000000003E-002    0.10922251504675598     
   7.5000000000000011E-002    0.19547100383065097     
   7.5299999999999992E-002    0.27020984965911915     
   7.5600000000000001E-002    0.32973232851280221     
   7.5900000000000009E-002    0.37129267433286489     
   7.6200000000000004E-002    0.39324654764806588     
   7.6499999999999999E-002    0.39519118856094260     
   7.6800000000000007E-002    0.37787790627978601     
   7.7099999999999988E-002    0.34306820842074293     
   7.7399999999999997E-002    0.29336296378417370     
   7.7700000000000005E-002    0.23184036853042833     
   7.8000000000000014E-002    0.16177865387802007     
   7.8299999999999995E-002     8.6410339220905519E-002
   7.8600000000000003E-002     8.6173051583146153E-003
   7.8900000000000012E-002    -6.9260175282602893E-002
   7.9199999999999993E-002   -0.14549578835721411     
   7.9500000000000001E-002   -0.21895136146491895     
   7.9800000000000010E-002   -0.28900703681120909     
   8.0100000000000018E-002   -0.35541689707258228     
   8.0399999999999999E-002   -0.41807761693878004     
   8.0700000000000008E-002   -0.47679394404907438     
   8.1000000000000003E-002   -0.53112381361246619     
   8.1299999999999997E-002   -0.58020664497239549     
   8.1600000000000006E-002   -0.62268728580562860     
   8.1900000000000014E-002   -0.65680120719617818     
   8.2199999999999995E-002   -0.68044466097088752     
   8.2500000000000004E-002   -0.69130669857646976     
   8.2799999999999999E-002   -0.68714259765009278     
   8.3100000000000007E-002   -0.66609754431915791     
   8.3400000000000002E-002   -0.62691999343704474     
   8.3700000000000011E-002   -0.56909583202818448     
   8.4000000000000005E-002   -0.49305338611892369     
   8.4300000000000000E-002   -0.40032005731233361     
   8.4599999999999995E-002   -0.29338459616227164     
   8.4900000000000003E-002   -0.17551124614854841     
   8.5199999999999998E-002    -5.0640426077246337E-002
   8.5500000000000007E-002     7.6870111923081907E-002
   8.5800000000000001E-002    0.20258677955596427     
   8.6100000000000010E-002    0.32223334825976879     
   8.6399999999999991E-002    0.43200549203339911     
   8.6699999999999999E-002    0.52870788645986022     
   8.7000000000000008E-002    0.60982530119357736     
   8.7300000000000003E-002    0.67359857916722299     
   8.7599999999999997E-002    0.71900790712602136     
   8.7900000000000006E-002    0.74565959323554809     
   8.8200000000000014E-002    0.75368170491431596     
   8.8499999999999995E-002    0.74362106683140838     
   8.8800000000000004E-002    0.71640684578238090     
   8.9100000000000013E-002    0.67328809480648821     
   8.9399999999999993E-002    0.61578904486043573     
   8.9700000000000002E-002    0.54584224570789719     
   9.0000000000000011E-002    0.46582762563914437     
   9.0299999999999991E-002    0.37860234683521587     
   9.0600000000000000E-002    0.28756084562487472     
   9.0900000000000009E-002    0.19656411088012660     
   9.1200000000000017E-002    0.10979713796103210     
   9.1499999999999998E-002     3.1627447835996213E-002
   9.1800000000000007E-002    -3.3725486828585144E-002
   9.2100000000000001E-002    -8.2563562575028726E-002
   9.2399999999999996E-002   -0.11199613340250958     
   9.2700000000000005E-002   -0.12036866084901307     
   9.3000000000000013E-002   -0.10746061260992879     
   9.3300000000000008E-002    -7.4682125938764332E-002
   9.3600000000000003E-002    -2.5171935604497056E-002
   9.3899999999999997E-002     3.6483021178181592E-002
   9.4200000000000006E-002    0.10447101850854386     
   9.4500000000000001E-002    0.17212935390224279     
   9.4800000000000009E-002    0.23250980654738895     
   9.5100000000000004E-002    0.27895136600275583     
   9.5399999999999999E-002    0.30574198966052102     
   9.5699999999999993E-002    0.30858660560000306     
   9.6000000000000002E-002    0.28497764759837096     
   9.6300000000000011E-002    0.23453036924340764     
   9.6600000000000005E-002    0.15906054999656474     
   9.6900000000000000E-002     6.2500265263770019E-002
   9.7200000000000009E-002    -4.9351815158432816E-002
   9.7499999999999989E-002   -0.16930675037088150     
   9.7799999999999998E-002   -0.28926038212451743     
   9.8100000000000007E-002   -0.40080983393703629     
   9.8400000000000015E-002   -0.49589112009221692     
   9.8699999999999996E-002   -0.56727187542103730     
   9.9000000000000005E-002   -0.60912849340800179     
   9.9300000000000013E-002   -0.61748893266191462     
   9.9599999999999994E-002   -0.59044653329938679     
   9.9900000000000003E-002   -0.52825340774686791     
  0.10020000000000001        -0.43334062321140487     
  0.10049999999999999        -0.31029321604474885     
  0.10080000000000000        -0.16558696135570850     
  0.10110000000000001         -7.1968366300833864E-003
  0.10140000000000000         0.15574971723751016     
  0.10170000000000000         0.31340109884051448     
  0.10200000000000001         0.45569619964679664     
  0.10230000000000002         0.57293069149786413     
  0.10260000000000000         0.65627278594568439     
  0.10290000000000001         0.69836327305323420     
  0.10320000000000000         0.69385836810667745     
  0.10350000000000001         0.63976626531438052     
  0.10380000000000000         0.53582669759730084     
  0.10410000000000001         0.38477223929035559     
  0.10440000000000001         0.19239833048123478     
  0.10470000000000000         -3.2769087251009979E-002
  0.10500000000000000        -0.27986428760354853     
  0.10530000000000000        -0.53618005694533055     
  0.10560000000000000        -0.78789226323968486     
  0.10590000000000001         -1.0209029100127043     
  0.10620000000000000         -1.2218335299307881     
  0.10650000000000001         -1.3788681543020138     
  0.10679999999999999         -1.4823431780535126     
  0.10710000000000000         -1.5253576987605753     
  0.10740000000000001         -1.5042809830454336     
  0.10770000000000000         -1.4188037461850584     
  0.10800000000000000         -1.2717907980876499     
  0.10830000000000001         -1.0690087372633694     
  0.10859999999999999        -0.81868379174941652     
  0.10890000000000000        -0.53086972223669449     
  0.10920000000000001        -0.21682443323138328     
  0.10950000000000001         0.11157161645870210     
  0.10979999999999999         0.44262746870189601     
  0.11009999999999999         0.76540706140753734     
  0.11040000000000001          1.0700737829900282     
  0.11070000000000001          1.3481838626551814     
  0.11100000000000000          1.5928369512992513     
  0.11130000000000000          1.7989291733260879     
  0.11160000000000002          1.9630336770524708     
  0.11190000000000001          2.0830046464821255     
  0.11220000000000001          2.1578240425787918     
  0.11250000000000000          2.1873023065171284     
  0.11280000000000000          2.1716647614994775     
  0.11309999999999999          2.1112135308852520     
  0.11340000000000001          2.0061604109361459     
  0.11369999999999998          1.8565763132664568     
  0.11400000000000000          1.6622716620709559     
  0.11430000000000000          1.4230938174982624     
  0.11460000000000002          1.1393500540880237     
  0.11489999999999999         0.81212904260137042     
  0.11520000000000001         0.44386958661673537     
  0.11550000000000001          3.8975326193745927E-002
  0.11580000000000000        -0.39571975012318089     
  0.11609999999999999        -0.85092632429715898     
  0.11640000000000002         -1.3147852191089473     
  0.11670000000000001         -1.7727204687256357     
  0.11700000000000001         -2.2082062335183883     
  0.11730000000000000         -2.6037629009234040     
  0.11760000000000000         -2.9414797837223818     
  0.11789999999999999         -3.2041867421816654     
  0.11820000000000001         -3.3766959780518180     
  0.11850000000000001         -3.4466867347969372     
  0.11880000000000000         -3.4058337165749002     
  0.11910000000000000         -3.2502835599437936     
  0.11940000000000002         -2.9809640229254679     
  0.11970000000000001         -2.6040683062209862     
  0.12000000000000001         -2.1306542193850979     
  0.12030000000000000         -1.5761464818223823     
  0.12060000000000000        -0.95989545999103632     
  0.12089999999999999        -0.30403404070267676     
  0.12119999999999999         0.36733688590008234     
  0.12150000000000001          1.0289619228760303     
  0.12180000000000001          1.6559306655317148     
  0.12210000000000000          2.2244743451309983     
  0.12239999999999999          2.7129398486200289     
  0.12270000000000002          3.1029648862201000     
  0.12300000000000001          3.3797844526344423     
  0.12330000000000001          3.5331330405980079     
  0.12360000000000000          3.5580037620878211     
  0.12390000000000000          3.4543775091290523     
  0.12419999999999999          3.2272832406416789     
  0.12450000000000001          2.8867459004780840     
  0.12480000000000001          2.4471149650658228     
  0.12509999999999999          1.9265128041207453     
  0.12540000000000001          1.3457750519390861     
  0.12570000000000003         0.72740732006085673     
  0.12600000000000000          9.4863903738756916E-002
  0.12630000000000002        -0.52872001268165048     
  0.12659999999999999         -1.1213968313209381     
  0.12690000000000001         -1.6629378878948566     
  0.12719999999999998         -2.1355761245926068     
  0.12750000000000000         -2.5243789900942861     
  0.12780000000000002         -2.8172086627430248     
  0.12809999999999999         -3.0050280000848590     
  0.12840000000000001         -3.0821329691858836     
  0.12869999999999998         -3.0459269044781858     
  0.12900000000000000         -2.8971132495499816     
  0.12930000000000003         -2.6398621529769084     
  0.12959999999999999         -2.2819015774567246     
  0.12990000000000002         -1.8347998986103495     
  0.13019999999999998         -1.3138026284714333     
  0.13050000000000000        -0.73761770068199550     
  0.13080000000000003        -0.12828652819459929     
  0.13109999999999999         0.48968477238546460     
  0.13140000000000002          1.0903461721591150     
  0.13169999999999998          1.6475074492638171     
  0.13200000000000001          2.1364163771080307     
  0.13229999999999997          2.5348454858841722     
  0.13260000000000000          2.8247760740070298     
  0.13290000000000002          2.9939397320841330     
  0.13319999999999999          3.0362053307601675     
  0.13350000000000001          2.9520888459344667     
  0.13380000000000003          2.7488305096167656     
  0.13410000000000000          2.4396548002595564     
  0.13440000000000002          2.0428627851231766     
  0.13469999999999999          1.5802770611889070     
  0.13500000000000001          1.0756406469029165     
  0.13529999999999998         0.55334822300687492     
  0.13560000000000000          3.6598138347933865E-002
  0.13590000000000002        -0.45366731601510346     
  0.13619999999999999        -0.89953766456703876     
  0.13650000000000001         -1.2871320555559493     
  0.13680000000000003         -1.6065588609814148     
  0.13710000000000000         -1.8519013901574768     
  0.13740000000000002         -2.0210018194342401     
  0.13769999999999999         -2.1149870340486787     
  0.13800000000000001         -2.1379614311976942     
  0.13829999999999998         -2.0963922524662126     
  0.13860000000000000         -1.9984045912261892     
  0.13890000000000002         -1.8536293422421388     
  0.13919999999999999         -1.6727824364486406     
  0.13950000000000001         -1.4668831808428711     
  0.13979999999999998         -1.2468845220440949     
  0.14010000000000000         -1.0232911415972041     
  0.14040000000000002        -0.80561002541805882     
  0.14069999999999999        -0.60169461437358684     
  0.14100000000000001        -0.41711050597443733     
  0.14130000000000004        -0.25493333581427313     
  0.14160000000000000        -0.11560152411071614     
  0.14189999999999997          3.4538527202862615E-003
  0.14219999999999999         0.10754038636894248     
  0.14250000000000002         0.20397565752733504     
  0.14279999999999998         0.30144027524982259     
  0.14310000000000000         0.40918056854117724     
  0.14339999999999997         0.53596495957106460     
  0.14369999999999999         0.68887987906171300     
  0.14400000000000002         0.87210704493545865     
  0.14429999999999998          1.0861335935488812     
  0.14460000000000001          1.3273270047744303     
  0.14490000000000003          1.5874650682474358     
  0.14520000000000000          1.8537766904376682     
  0.14550000000000002          2.1096339618300171     
  0.14579999999999999          2.3353449948921234     
  0.14610000000000001          2.5095336179469809     
  0.14640000000000003          2.6109743530875975     
  0.14670000000000000          2.6199551608005098     
  0.14699999999999996          2.5201513766034509     
  0.14729999999999999          2.3005703123634320     
  0.14760000000000001          1.9568425119412654     
  0.14789999999999998          1.4924144072009968     
  0.14820000000000000         0.91874926372296084     