  -1.4999999999999999E-002     0.0000000000000000     
  -1.4700000000000000E-002     0.0000000000000000     
  -1.4400000000000000E-002     0.0000000000000000     
  -1.4100000000000000E-002     1.9264628061284200E-044
  -1.3800000000000000E-002     5.3281129142688960E-035
  -1.3500000000000000E-002     4.8550615616513127E-033
  -1.3200000000000000E-002     2.6292860297289813E-032
  -1.2899999999999998E-002    -1.1684831559254619E-029
  -1.2600000000000000E-002    -1.4396155856290354E-029
  -1.2299999999999998E-002     1.6166427144500969E-027
  -1.2000000000000000E-002     2.0273682234339362E-027
  -1.1699999999999999E-002    -6.4561554782386500E-026
  -1.1399999999999999E-002    -7.3958797610533317E-025
  -1.1099999999999999E-002     1.1534057060373873E-023
  -1.0799999999999999E-002    -4.0032120456237572E-023
  -1.0499999999999999E-002    -3.7543831148482743E-022
  -1.0199999999999999E-002     5.0002091842573737E-021
  -9.8999999999999991E-003    -2.2740142926112805E-020
  -9.5999999999999992E-003     2.2019726476577712E-020
  -9.2999999999999992E-003     2.4693261446826758E-019
  -8.9999999999999993E-003    -1.4055916665648588E-018
  -8.6999999999999994E-003     4.0812404785619104E-018
  -8.3999999999999995E-003    -8.1158105429940563E-018
  -8.0999999999999996E-003     1.1258561932198724E-017
  -7.7999999999999988E-003    -5.3735519528661456E-018
  -7.4999999999999997E-003    -2.5554614943901240E-017
  -7.1999999999999998E-003     9.8771930653540591E-017
  -6.8999999999999981E-003    -2.1717385819540044E-016
  -6.5999999999999982E-003     2.9055963762784073E-016
  -6.3000000000000000E-003    -1.5850991469263879E-016
  -6.0000000000000001E-003     5.2244534407645104E-016
  -5.6999999999999985E-003    -3.8779081241353156E-015
  -5.3999999999999986E-003     1.0226787327798088E-014
  -5.1000000000000004E-003    -6.9727342961416727E-015
  -4.7999999999999987E-003    -3.1722558496484943E-014
  -4.5000000000000005E-003     1.1500691693370249E-013
  -4.1999999999999989E-003    -1.7040133417818259E-013
  -3.8999999999999990E-003     9.7266127767499380E-015
  -3.5999999999999990E-003     5.0124168958669856E-013
  -3.2999999999999991E-003    -1.0559770405239579E-012
  -2.9999999999999992E-003     8.2441084591948068E-013
  -2.6999999999999993E-003     7.3246874223784991E-013
  -2.3999999999999994E-003    -2.6530475203756226E-012
  -2.0999999999999977E-003     2.6001133952513720E-012
  -1.7999999999999995E-003     8.5710169851705886E-013
  -1.4999999999999979E-003    -6.0294445111208132E-012
  -1.1999999999999997E-003     8.4270633736159303E-012
  -8.9999999999999976E-004    -3.3130531777699953E-012
  -5.9999999999999810E-004    -8.6366722035628029E-012
  -2.9999999999999992E-004     1.7135049302825979E-011
   0.0000000000000000         -1.6677594476221467E-011
   3.0000000000000165E-004     2.7188934422104108E-011
   5.9999999999999984E-004    -6.2462062940484761E-011
   9.0000000000000149E-004     4.8910815637946195E-011
   1.2000000000000031E-003     1.8599558863862856E-010
   1.5000000000000013E-003    -7.4098003644200381E-010
   1.8000000000000030E-003     1.2724925191748868E-009
   2.1000000000000012E-003    -6.0250644993217194E-010
   2.3999999999999994E-003    -3.2916010993955122E-009
   2.7000000000000010E-003     1.2191453871022788E-008
   2.9999999999999992E-003    -2.1254792266630448E-008
   3.3000000000000008E-003    -4.1423348071136532E-010
   3.6000000000000025E-003     1.0842325622015695E-007
   3.9000000000000007E-003    -2.3024175174331244E-007
   4.2000000000000023E-003    -7.1831654871077691E-008
   4.5000000000000005E-003     1.0289350081702997E-006
   4.7999999999999987E-003    -8.7824408741596693E-007
   5.1000000000000004E-003    -2.8443253006970568E-006
   5.4000000000000020E-003     3.9723829529174420E-006
   5.7000000000000037E-003     7.4957070196506825E-006
   5.9999999999999984E-003    -9.7384756838388904E-006
   6.3000000000000000E-003    -2.4244638434400226E-005
   6.6000000000000017E-003     1.3789430507090317E-005
   6.9000000000000034E-003     1.2470597049531017E-004
   7.2000000000000015E-003     2.8571728872040550E-004
   7.5000000000000032E-003     4.6968071153140269E-004
   7.8000000000000014E-003     6.7820105357259896E-004
   8.0999999999999996E-003     9.5928311119878522E-004
   8.4000000000000012E-003     1.4229396070888746E-003
   8.7000000000000029E-003     2.1993430111061458E-003
   9.0000000000000011E-003     3.4008660007257235E-003
   9.2999999999999992E-003     5.1691630270579410E-003
   9.6000000000000009E-003     7.7063407785872683E-003
   9.8999999999999991E-003     1.1290247871272908E-002
   1.0200000000000001E-002     1.6317819658284126E-002
   1.0500000000000002E-002     2.3290619323440537E-002
   1.0800000000000004E-002     3.2761879519216053E-002
   1.1099999999999999E-002     4.5337217112928783E-002
   1.1400000000000000E-002     6.1713779336660196E-002
   1.1700000000000002E-002     8.2633325390922885E-002
   1.2000000000000004E-002    0.10874077798445841     
   1.2300000000000002E-002    0.14049741381915953     
   1.2600000000000000E-002    0.17808266062433639     
   1.2900000000000002E-002    0.22117648927665723     
   1.3200000000000000E-002    0.26873884884348576     
   1.3500000000000002E-002    0.31876456320457219     
   1.3800000000000003E-002    0.36804696047275931     
   1.4100000000000001E-002    0.41202210120241622     
   1.4400000000000000E-002    0.44458708486257353     
   1.4700000000000001E-002    0.45808572963137084     
   1.4999999999999999E-002    0.44350322592296199     
   1.5300000000000001E-002    0.39077785416526190     
   1.5600000000000003E-002    0.28940789956666307     
   1.5899999999999997E-002    0.12933817895457886     
   1.6199999999999999E-002    -9.7827548152280744E-002
   1.6500000000000001E-002   -0.39739729730459261     
   1.6800000000000002E-002   -0.77031768302994674     
   1.7100000000000004E-002    -1.2117270447642521     
   1.7400000000000006E-002    -1.7097812028826946     
   1.7700000000000000E-002    -2.2447237399109281     
   1.8000000000000002E-002    -2.7886424150590559     
   1.8300000000000004E-002    -3.3060698937802080     
   1.8600000000000005E-002    -3.7553432317825504     
   1.8900000000000000E-002    -4.0909821876677608     
   1.9200000000000002E-002    -4.2669165126916111     
   1.9500000000000003E-002    -4.2403049687217225     
   1.9799999999999998E-002    -3.9757215669442525     
   2.0100000000000000E-002    -3.4492891910336638     
   2.0400000000000001E-002    -2.6524965323231231     
   2.0700000000000003E-002    -1.5953511855706457     
   2.0999999999999998E-002   -0.30733308699882916     
   2.1299999999999999E-002     1.1620100350205333     
   2.1600000000000001E-002     2.7451095344870682     
   2.1900000000000003E-002     4.3604888756706339     
   2.2200000000000004E-002     5.9168039159323556     
   2.2500000000000006E-002     7.3198927366055173     
   2.2800000000000001E-002     8.4794432817675194     
   2.3100000000000002E-002     9.3154168443522050     
   2.3400000000000004E-002     9.7649087941711681     
   2.3699999999999999E-002     9.7866929988056235     
   2.4000000000000000E-002     9.3646882544878487     
   2.4300000000000002E-002     8.5096973248636445     
   2.4599999999999997E-002     7.2585817352756514     
   2.4900000000000005E-002     5.6717252063663892     
   2.5200000000000000E-002     3.8294787275225319     
   2.5499999999999995E-002     1.8264858772074382     
   2.5800000000000003E-002   -0.23464958384464440     
   2.6099999999999998E-002    -2.2486676964687682     
   2.6400000000000007E-002    -4.1150131280716158     
   2.6700000000000002E-002    -5.7426967070099320     
   2.6999999999999996E-002    -7.0547795260776098     
   2.7300000000000005E-002    -7.9930488777382305     
   2.7600000000000000E-002    -8.5194629051647368     
   2.7900000000000008E-002    -8.6184318625996550     
   2.8200000000000003E-002    -8.2968801655600171     
   2.8499999999999998E-002    -7.5831908166090578     
   2.8800000000000006E-002    -6.5262769521626707     
   2.9100000000000001E-002    -5.1917143764177451     
   2.9400000000000003E-002    -3.6590893005952285     
   2.9700000000000004E-002    -2.0175098169028112     
   3.0000000000000006E-002   -0.36042568572265776     
   3.0300000000000001E-002     1.2186199552462886     
   3.0600000000000002E-002     2.6321651901593932     
   3.0900000000000004E-002     3.8034420357413303     
   3.1199999999999999E-002     4.6703227439506572     
   3.1500000000000007E-002     5.1895089957293861     
   3.1800000000000002E-002     5.3384122270953380     
   3.2099999999999997E-002     5.1160929087932985     
   3.2400000000000005E-002     4.5428736172239281     
   3.2700000000000000E-002     3.6580293397648473     
   3.3000000000000002E-002     2.5164880337902207     
   3.3300000000000003E-002     1.1846343310719747     
   3.3599999999999998E-002   -0.26498896223327928     
   3.3900000000000000E-002    -1.7585052057027739     
   3.4200000000000001E-002    -3.2254472090550674     
   3.4500000000000003E-002    -4.6033860625113991     
   3.4799999999999998E-002    -5.8398029160386988     
   3.5099999999999999E-002    -6.8945230113357132     
   3.5400000000000001E-002    -7.7397661902639392     
   3.5699999999999996E-002    -8.3584374824902952     
   3.6000000000000004E-002    -8.7431464560888585     
   3.6299999999999999E-002    -8.8924057817803153     
   3.6600000000000008E-002    -8.8080913105479119     
   3.6900000000000002E-002    -8.4927165130136189     
   3.7199999999999997E-002    -7.9472878149162938     
   3.7500000000000006E-002    -7.1705296407349355     
   3.7800000000000000E-002    -6.1592737933385688     
   3.8100000000000009E-002    -4.9098739527914921     
   3.8400000000000004E-002    -3.4213478088324223     
   3.8699999999999998E-002    -1.6988685559687395     
   3.9000000000000007E-002    0.24247741614646534     
   3.9300000000000002E-002     2.3741688098653384     
   3.9600000000000003E-002     4.6507554983753145     
   3.9900000000000005E-002     7.0098055830436685     
   4.0200000000000000E-002     9.3711327962577293     
   4.0500000000000001E-002     11.640134586873554     
   4.0800000000000003E-002     13.712379132594489     
   4.1100000000000005E-002     15.478307310696454     
   4.1399999999999999E-002     16.832878950295964     
   4.1700000000000008E-002     17.681160198775196     
   4.2000000000000003E-002     17.947126052355053     
   4.2299999999999997E-002     17.581154131728685     
   4.2600000000000006E-002     16.563035121358169     
   4.2900000000000001E-002     14.907496062861480     
   4.3200000000000002E-002     12.663271518920061     
   4.3500000000000004E-002     9.9118179184764816     
   4.3799999999999999E-002     6.7647164105600535     
   4.4100000000000000E-002     3.3548518771973317     
   4.4400000000000002E-002   -0.16775489410977240     
   4.4700000000000004E-002    -3.6459002742712583     
   4.4999999999999998E-002    -6.9250796090613669     
   4.5300000000000000E-002    -9.8582816814528655     
   4.5600000000000002E-002    -12.318162791316322     
   4.5899999999999996E-002    -14.202284762395990     
   4.6200000000000005E-002    -15.436834777200385     
   4.6500000000000000E-002    -15.985138938251559     
   4.6799999999999994E-002    -15.845413021433963     
   4.7100000000000003E-002    -15.053296717814725     
   4.7399999999999998E-002    -13.681382881405648     
   4.7700000000000006E-002    -11.830436877425550     
   4.8000000000000001E-002    -9.6294598775083156     
   4.8300000000000010E-002    -7.2245395897730340     
   4.8600000000000004E-002    -4.7679574880317848     
   4.8899999999999999E-002    -2.4137367685700744     
   4.9200000000000008E-002   -0.30117902979009981     
   4.9500000000000002E-002     1.4519344439966506     
   4.9800000000000011E-002     2.7562585339532699     
   5.0100000000000006E-002     3.5625210144195982     
   5.0400000000000000E-002     3.8587444613017094     
   5.0700000000000009E-002     3.6740740317769651     
   5.1000000000000004E-002     3.0764931963396709     
   5.1299999999999998E-002     2.1614496029455048     
   5.1600000000000007E-002     1.0496646972820705     
   5.1900000000000002E-002   -0.12936366383378184     
   5.2200000000000010E-002    -1.2480253306209206     
   5.2500000000000005E-002    -2.1882637249144699     
   5.2800000000000000E-002    -2.8579187228179284     
   5.3099999999999994E-002    -3.1928071627546588     
   5.3400000000000003E-002    -3.1631416070200320     
   5.3699999999999998E-002    -2.7758373158733516     
   5.4000000000000006E-002    -2.0674628471946703     
   5.4300000000000001E-002    -1.1027875918441725     
   5.4599999999999996E-002     3.6496075423570640E-002
   5.4900000000000004E-002     1.2621048442525160     
   5.5199999999999999E-002     2.4859390789701066     
   5.5499999999999994E-002     3.6326502636828475     
   5.5800000000000002E-002     4.6446259489933714     
   5.6099999999999997E-002     5.4858985297837828     
   5.6400000000000006E-002     6.1441450329692957     
   5.6700000000000000E-002     6.6277944501059469     
   5.6999999999999995E-002     6.9611163643457097     
   5.7300000000000004E-002     7.1781347500524761     
   5.7599999999999998E-002     7.3151514840091068     
   5.7900000000000007E-002     7.4032603626580045     
   5.8200000000000002E-002     7.4649838276285134     
   5.8499999999999996E-002     7.5089442705488505     
   5.8800000000000005E-002     7.5313819742357531     
   5.9100000000000000E-002     7.5185686164812235     
   5.9400000000000008E-002     7.4482238357212935     
   5.9700000000000003E-002     7.2991559030386846     
   6.0000000000000012E-002     7.0531331556925645     
   6.0300000000000006E-002     6.6989363797625439     
   6.0600000000000001E-002     6.2354743531002654     
   6.0900000000000010E-002     5.6671122400493186     
   6.1200000000000004E-002     5.0026740244033459     
   6.1500000000000013E-002     4.2458931729234664     
   6.1800000000000008E-002     3.3885695473763646     
   6.2100000000000002E-002     2.4054039916126473     
   6.2399999999999997E-002     1.2466865049401705     
   6.2700000000000006E-002   -0.15897561447207020     
   6.3000000000000000E-002    -1.9007400753857406     
   6.3300000000000009E-002    -4.0745302464979449     
   6.3600000000000004E-002    -6.7659353164030502     
   6.3899999999999998E-002    -10.032844146162109     
   6.4199999999999993E-002    -13.881652441447262     
   6.4500000000000002E-002    -18.251388882575597     
   6.4800000000000010E-002    -22.999262150422059     
   6.5100000000000005E-002    -27.893879715936094     
   6.5400000000000000E-002    -32.622916592623483     
   6.5700000000000008E-002    -36.804841996210556     
   6.5999999999999989E-002    -40.017414714193848     
   6.6299999999999998E-002    -41.833142319025107     
   6.6600000000000006E-002    -41.857648035965390     
   6.6900000000000001E-002    -39.775327880648504     
   6.7199999999999996E-002    -35.387783704275371     
   6.7500000000000004E-002    -28.646361634312257     
   6.7800000000000013E-002    -19.674363944927315     
   6.8099999999999994E-002    -8.7736453345762904     
   6.8400000000000002E-002     3.5858079524736155     
   6.8700000000000011E-002     16.785363070421344     
   6.8999999999999992E-002     30.104619521016083     
   6.9300000000000000E-002     42.766062184539223     
   6.9600000000000009E-002     53.993008809287971     
   6.9900000000000004E-002     63.072342090208679     
   7.0199999999999999E-002     69.405975100122120     
   7.0500000000000007E-002     72.560815909983248     
   7.0800000000000016E-002     72.303257220173023     
   7.1099999999999997E-002     68.616395588850978     
   7.1400000000000005E-002     61.703930857541224     
   7.1700000000000000E-002     51.971222825720012     
   7.1999999999999995E-002     39.995150710064422     
   7.2300000000000003E-002     26.481243063630529     
   7.2600000000000012E-002     12.205292809740051     
   7.2900000000000006E-002    -2.0367570558829060     
   7.3200000000000001E-002    -15.490003521035547     
   7.3499999999999996E-002    -27.488652537181650     
   7.3800000000000004E-002    -37.493582644369312     
   7.4099999999999999E-002    -45.125520917354748     
   7.4400000000000008E-002    -50.172229356337894     
   7.4700000000000003E-002    -52.592595296779358     
   7.5000000000000011E-002    -52.503746023397277     
   7.5299999999999992E-002    -50.154062294740513     
   7.5600000000000001E-002    -45.896384911097194     
   7.5900000000000009E-002    -40.152479234605835     
   7.6200000000000004E-002    -33.376436472918662     
   7.6499999999999999E-002    -26.023133560327217     
   7.6800000000000007E-002    -18.521622624071583     
   7.7099999999999988E-002    -11.249431253497734     
   7.7399999999999997E-002    -4.5201822418428197     
   7.7700000000000005E-002     1.4252506307580868     
   7.8000000000000014E-002     6.4243145746042734     
   7.8299999999999995E-002     10.384184142114542     
   7.8600000000000003E-002     13.281293975058084     
   7.8900000000000012E-002     15.150424632108411     
   7.9199999999999993E-002     16.069200324090222     
   7.9500000000000001E-002     16.156650045606103     
   7.9800000000000010E-002     15.551977396950704     
   8.0100000000000018E-002     14.407579136291027     
   8.0399999999999999E-002     12.882800714030447     
   8.0700000000000008E-002     11.125337462484229     
   8.1000000000000003E-002     9.2738387738284107     
   8.1299999999999997E-002     7.4455027114774062     
   8.1600000000000006E-002     5.7320536567727904     
   8.1900000000000014E-002     4.2029915072011930     
   8.2199999999999995E-002     2.8983780995484558     
   8.2500000000000004E-002     1.8352988034769058     
   8.2799999999999999E-002     1.0120217243581682     
   8.3100000000000007E-002    0.40824639001219620     
   8.3400000000000002E-002    -5.2626831509166583E-003
   8.3700000000000011E-002   -0.26133874297655141     
   8.4000000000000005E-002   -0.39749574162798768     
   8.4300000000000000E-002   -0.44477719649538455     
   8.4599999999999995E-002   -0.42939525637021880     
   8.4900000000000003E-002   -0.37481952968586180     
   8.5199999999999998E-002   -0.29366473796276960     
   8.5500000000000007E-002   -0.19963177385464997     
   8.5800000000000001E-002   -0.10138602731191915     
   8.6100000000000010E-002    -3.8149512736029012E-003
   8.6399999999999991E-002     8.2342232692625639E-002
   8.6699999999999999E-002    0.15384726323478107     
   8.7000000000000008E-002    0.20286853094475019     
   8.7300000000000003E-002    0.22229104260948632     
   8.7599999999999997E-002    0.21221615233992747     
   8.7900000000000006E-002    0.16825852098618058     
   8.8200000000000014E-002     9.5835969797880713E-002
   8.8499999999999995E-002     1.2084084091229241E-003
   8.8800000000000004E-002   -0.10870827315067261     
   8.9100000000000013E-002   -0.22085463178225512     
   8.9399999999999993E-002   -0.32779914529486009     
   8.9700000000000002E-002   -0.41963991653974353     
   9.0000000000000011E-002   -0.49030827954911516     
   9.0299999999999991E-002   -0.53889726742494692     
   9.0600000000000000E-002   -0.56467450445677936     
   9.0900000000000009E-002   -0.57234970564148591     
   9.1200000000000017E-002   -0.56746281311934132     
   9.1499999999999998E-002   -0.55526177609018723     
   9.1800000000000007E-002   -0.54117433412215554     
   9.2100000000000001E-002   -0.52789894442761132     
   9.2399999999999996E-002   -0.51576450398595941     
   9.2700000000000005E-002   -0.50406222189253069     
   9.3000000000000013E-002   -0.48938882830956065     
   9.3300000000000008E-002   -0.46874803834289536     
   9.3600000000000003E-002   -0.44037278498321564     
   9.3899999999999997E-002   -0.40223729386507789     
   9.4200000000000006E-002   -0.35685285918098630     
   9.4500000000000001E-002   -0.30705702802380136     
   9.4800000000000009E-002   -0.25736924253066029     
   9.5100000000000004E-002   -0.21490359994601266     
   9.5399999999999999E-002   -0.18315265494098268     
   9.5699999999999993E-002   -0.16724895117398925     
   9.6000000000000002E-002   -0.16788497721250595     
   9.6300000000000011E-002   -0.18221701015251288     
   9.6600000000000005E-002   -0.20812094346011595     
   9.6900000000000000E-002   -0.23658356555451310     
   9.7200000000000009E-002   -0.26226133129658791     
   9.7499999999999989E-002   -0.27765859086378819     
   9.7799999999999998E-002   -0.27615960255273564     
   9.8100000000000007E-002   -0.25757106378245986     
   9.8400000000000015E-002   -0.21916846114206998     
   9.8699999999999996E-002   -0.16638535671775759     
   9.9000000000000005E-002   -0.10415066769847087     
   9.9300000000000013E-002    -3.8820374265413155E-002
   9.9599999999999994E-002     1.9720837133571558E-002
   9.9900000000000003E-002     6.7578083620010138E-002
  0.10020000000000001          9.8409474485137038E-002
  0.10049999999999999         0.11071753510498231     
  0.10080000000000000         0.10663181379627013     
  0.10110000000000001          8.7942486404379239E-002
  0.10140000000000000          6.2968939546359293E-002
  0.10170000000000000          3.7252037842736799E-002
  0.10200000000000001          1.7130958105771289E-002
  0.10230000000000002          1.0178262767009422E-002
  0.10260000000000000          1.7907597693337524E-002
  0.10290000000000001          4.2382261260643810E-002
  0.10320000000000000          8.1276441258766499E-002
  0.10350000000000001         0.12810398393073308     
  0.10380000000000000         0.17783448625397552     
  0.10410000000000001         0.22153557623823958     
  0.10440000000000001         0.25153355031923397     
  0.10470000000000000         0.26342036403870633     
  0.10500000000000000         0.25165197745890122     
  0.10530000000000000         0.21731900650574920     
  0.10560000000000000         0.16456033378369953     
  0.10590000000000001          9.7716871157964291E-002
  0.10620000000000000          2.9076031120837759E-002
  0.10650000000000001         -3.2917744457330797E-002
  0.10679999999999999         -7.8592667755125661E-002
  0.10710000000000000         -9.7013191730627932E-002
  0.10740000000000001         -8.7285311855818171E-002
  0.10770000000000000         -4.5984574771028484E-002
  0.10800000000000000          2.1524034947628501E-002
  0.10830000000000001         0.10435397864810778     
  0.10859999999999999         0.19367858381744474     
  0.10890000000000000         0.27095437918922421     
  0.10920000000000001         0.32375731240403166     
  0.10950000000000001         0.34058392946278715     
  0.10979999999999999         0.31123884447848221     
  0.11009999999999999         0.23794237932211137     
  0.11040000000000001         0.12485834923481604     
  0.11070000000000001         -1.4801401358657568E-002
  0.11100000000000000        -0.16093694319462282     
  0.11130000000000000        -0.29299086383273176     
  0.11160000000000002        -0.38724705967643697     
  0.11190000000000001        -0.42432471646481568     
  0.11220000000000001        -0.39206376116229996     
  0.11250000000000000        -0.28603899259816146     
  0.11280000000000000        -0.11389513827955472     
  0.11309999999999999         0.10474249183074669     
  0.11340000000000001         0.34251737231477486     
  0.11369999999999998         0.56344449520522866     
  0.11400000000000000         0.72934989271291539     
  0.11430000000000000         0.80749139930832781     
  0.11460000000000002         0.76934747029197181     
  0.11489999999999999         0.60247971259613353     
  0.11520000000000001         0.30983236005469461     
  0.11550000000000001         -9.0407809534375438E-002
  0.11580000000000000        -0.55990906084843872     
  0.11609999999999999         -1.0510039983191988     
  0.11640000000000002         -1.5056050829128140     
  0.11670000000000001         -1.8647551776554094     
  0.11700000000000001         -2.0782695491835730     
  0.11730000000000000         -2.1044836658452777     
  0.11760000000000000         -1.9235785431433374     
  0.11789999999999999         -1.5358022487996410     
  0.11820000000000001        -0.96299952216831386     
  0.11850000000000001        -0.24972763874870185     
  0.11880000000000000         0.54537337418835108     
  0.11910000000000000          1.3519931165490742     
  0.11940000000000002          2.0975403137058706     
  0.11970000000000001          2.7140415760408789     
  0.12000000000000001          3.1451267174689317     
  0.12030000000000000          3.3510495182006510     
  0.12060000000000000          3.3124738324705278     
  0.12089999999999999          3.0316779131707525     
  0.12119999999999999          2.5300930843203830     
  0.12150000000000001          1.8491727366430672     
  0.12180000000000001          1.0408796764182930     
  0.12210000000000000         0.16672209383793313     
  0.12239999999999999        -0.70864387915782645     
  0.12270000000000002         -1.5263448102525745     
  0.12300000000000001         -2.2307184538608982     
  0.12330000000000001         -2.7805130803876170     
  0.12360000000000000         -3.1462854617278229     
  0.12390000000000000         -3.3111818750583710     
  0.12419999999999999         -3.2766824043548435     
  0.12450000000000001         -3.0534371627422643     
  0.12480000000000001         -2.6662627269664734     
  0.12509999999999999         -2.1493160079869003     
  0.12540000000000001         -1.5405678614009084     
  0.12570000000000003        -0.88463247919861043     
  0.12600000000000000        -0.22353526870961493     
  0.12630000000000002         0.40298781276055612     
  0.12659999999999999         0.95932019196192697     
  0.12690000000000001          1.4185445622605855     
  0.12719999999999998          1.7620507892044777     
  0.12750000000000000          1.9795589238967159     
  0.12780000000000002          2.0717816001384013     
  0.12809999999999999          2.0474067678006813     
  0.12840000000000001          1.9194777588334748     
  0.12869999999999998          1.7103865708129626     
  0.12900000000000000          1.4410905249540882     
  0.12930000000000003          1.1347382542222173     
  0.12959999999999999         0.81619519230967064     
  0.12990000000000002         0.50091351650765192     
  0.13019999999999998         0.20896484960437145     
  0.13050000000000000         -4.9209444466373597E-002
  0.13080000000000003        -0.26767864574472056     
  0.13109999999999999        -0.43811815060201886     
  0.13140000000000002        -0.56438747354150265     
  0.13169999999999998        -0.64506136470370989     
  0.13200000000000001        -0.68356096585599679     
  0.13229999999999997        -0.68751360498477387     
  0.13260000000000000        -0.65812593172462530     
  0.13290000000000002        -0.60524531138315618     
  0.13319999999999999        -0.53436943339379406     
  0.13350000000000001        -0.45019750211097598     
  0.13380000000000003        -0.36244976987456740     
  0.13410000000000000        -0.27379832260588055     
  0.13440000000000002        -0.19085663324813898     
  0.13469999999999999        -0.11866706992088646     
  0.13500000000000001         -5.7811767906897502E-002
  0.13529999999999998         -1.1660808692597301E-002
  0.13560000000000000          2.0947584205009227E-002
  0.13590000000000002          4.2027249258727112E-002
  0.13619999999999999          5.2122025885349504E-002
  0.13650000000000001          5.5475499421242490E-002
  0.13680000000000003          5.4554790465340813E-002
  0.13710000000000000          5.0288185285030096E-002
  0.13740000000000002          4.6131465724114924E-002
  0.13769999999999999          4.0877587142165099E-002
  0.13800000000000001          3.4842395656079897E-002
  0.13829999999999998          2.8889636742874952E-002
  0.13860000000000000          1.9308243695457382E-002
  0.13890000000000002          8.2433909676849909E-003
  0.13919999999999999         -5.8920589162491663E-003
  0.13950000000000001         -2.2803238412738888E-002
  0.13979999999999998         -3.8814477344743192E-002
  0.14010000000000000         -5.5449331977434749E-002
  0.14040000000000002         -6.7451572415153260E-002
  0.14069999999999999         -7.4567559525505797E-002
  0.14100000000000001         -7.6395285472056415E-002
  0.14130000000000004         -6.9917991685299802E-002
  0.14160000000000000         -5.9296074899268886E-002
  0.14189999999999997         -4.2893536336844347E-002
  0.14219999999999999         -2.4114545596680567E-002
  0.14250000000000002         -5.9307212413634743E-003
  0.14279999999999998          1.1764267942917045E-002
  0.14310000000000000          2.5162342901240253E-002
  0.14339999999999997          3.5864858912232719E-002
  0.14369999999999999          4.3339431391766034E-002
  0.14400000000000002          4.8448172253814085E-002
  0.14429999999999998          5.3911118152156823E-002
  0.14460000000000001          5.9586958397839507E-002
  0.14490000000000003          6.7615617594755900E-002
  0.14520000000000000          7.7510977424148683E-002
  0.14550000000000002          8.8404556523166894E-002
  0.14579999999999999          9.9043032094710381E-002
  0.14610000000000001         0.10675627385239442     
  0.14640000000000003         0.11020987895102358     
  0.14670000000000000         0.10682436215683827     
  0.14699999999999996          9.6739970738397976E-002
  0.14729999999999999          7.9941036693209899E-002
  0.14760000000000001          5.8225512352650013E-002
  0.14789999999999998          3.4485124223448203E-002
  0.14820000000000000          1.1225105137182716E-002