  -1.4999999999999999E-002     0.0000000000000000     
  -1.4700000000000000E-002     0.0000000000000000     
  -1.4400000000000000E-002     0.0000000000000000     
  -1.4100000000000000E-002     0.0000000000000000     
  -1.3800000000000000E-002     0.0000000000000000     
  -1.3500000000000000E-002     0.0000000000000000     
  -1.3200000000000000E-002     0.0000000000000000     
  -1.2899999999999998E-002     0.0000000000000000     
  -1.2600000000000000E-002     0.0000000000000000     
  -1.2299999999999998E-002     0.0000000000000000     
  -1.2000000000000000E-002     0.0000000000000000     
  -1.1699999999999999E-002     0.0000000000000000     
  -1.1399999999999999E-002     0.0000000000000000     
  -1.1099999999999999E-002     0.0000000000000000     
  -1.0799999999999999E-002     0.0000000000000000     
  -1.0499999999999999E-002     0.0000000000000000     
  -1.0199999999999999E-002     0.0000000000000000     
  -9.8999999999999991E-003     0.0000000000000000     
  -9.5999999999999992E-003     0.0000000000000000     
  -9.2999999999999992E-003     0.0000000000000000     
  -8.9999999999999993E-003     0.0000000000000000     
  -8.6999999999999994E-003     0.0000000000000000     
  -8.3999999999999995E-003     0.0000000000000000     
  -8.0999999999999996E-003     0.0000000000000000     
  -7.7999999999999988E-003     0.0000000000000000     
  -7.4999999999999997E-003     0.0000000000000000     
  -7.1999999999999998E-003     0.0000000000000000     
  -6.8999999999999981E-003     0.0000000000000000     
  -6.5999999999999982E-003     3.8368632342553484E-043
  -6.3000000000000000E-003    -7.7997746330490215E-041
  -6.0000000000000001E-003     1.1717345530622233E-038
  -5.6999999999999985E-003     5.4363561469161542E-036
  -5.3999999999999986E-003    -6.1964678073420703E-035
  -5.1000000000000004E-003     1.7861648199818423E-034
  -4.7999999999999987E-003     1.5466365182997290E-033
  -4.5000000000000005E-003    -1.6066248357614833E-032
  -4.1999999999999989E-003     7.2555505914361796E-032
  -3.8999999999999990E-003    -1.7267158886669492E-031
  -3.5999999999999990E-003     1.3831426026260649E-031
  -3.2999999999999991E-003     2.8658520686543907E-031
  -2.9999999999999992E-003    -3.3045575765438774E-031
  -2.6999999999999993E-003    -2.3557975754682929E-030
  -2.3999999999999994E-003     4.3230345615181160E-030
  -2.0999999999999977E-003     2.4564993011855551E-029
  -1.7999999999999995E-003    -1.5095317726457693E-028
  -1.4999999999999979E-003     4.0573125947088011E-028
  -1.1999999999999997E-003    -5.7595335787913718E-028
  -8.9999999999999976E-004    -1.3776950912122126E-028
  -5.9999999999999810E-004     3.8390854411556718E-027
  -2.9999999999999992E-004    -1.5765115697685357E-026
   0.0000000000000000          4.6810510195451336E-026
   3.0000000000000165E-004    -1.1003467353892124E-025
   5.9999999999999984E-004     1.9455690400926518E-025
   9.0000000000000149E-004    -2.0617762148159629E-025
   1.2000000000000031E-003    -8.3164715264104511E-026
   1.5000000000000013E-003     9.4434917450703120E-025
   1.8000000000000030E-003    -2.2931017017479821E-024
   2.1000000000000012E-003     3.0027533094412876E-024
   2.3999999999999994E-003    -3.6375370399268713E-025
   2.7000000000000010E-003    -1.0484412059209162E-023
   2.9999999999999992E-003     4.4576013404454119E-023
   3.3000000000000008E-003    -1.7352559336159558E-022
   3.6000000000000025E-003     6.6256893236713908E-022
   3.9000000000000007E-003    -2.0849171456474338E-021
   4.2000000000000023E-003     4.2260676586110770E-021
   4.5000000000000005E-003     1.3673013269989243E-021
   4.7999999999999987E-003    -6.1435275341113336E-020
   5.1000000000000004E-003     3.5560085540485253E-019
   5.4000000000000020E-003    -1.4473577604814692E-018
   5.7000000000000037E-003     4.8525610449352818E-018
   5.9999999999999984E-003    -1.4042801708190656E-017
   6.3000000000000000E-003     3.4936853923438891E-017
   6.6000000000000017E-003    -6.7826658434122093E-017
   6.9000000000000034E-003     4.4485533377596787E-017
   7.2000000000000015E-003     5.1979784866368913E-016
   7.5000000000000032E-003    -4.1918326525163326E-015
   7.8000000000000014E-003     2.2697441784355513E-014
   8.0999999999999996E-003    -1.0283270820274217E-013
   8.4000000000000012E-003     4.0112210392484933E-013
   8.7000000000000029E-003    -1.3044102163862058E-012
   9.0000000000000011E-003     3.1673114417862486E-012
   9.2999999999999992E-003    -3.3420065215063290E-012
   9.6000000000000009E-003    -1.5945882796049025E-011
   9.8999999999999991E-003     1.1148433679906333E-010
   1.0200000000000001E-002    -3.5553144634495658E-010
   1.0500000000000002E-002     5.1992721190411452E-010
   1.0800000000000004E-002     7.6093044858830815E-010
   1.1099999999999999E-002    -5.7884913156864146E-009
   1.1400000000000000E-002     1.0860711946478410E-008
   1.1700000000000002E-002     7.0817223996030933E-009
   1.2000000000000004E-002    -6.7233658795390548E-008
   1.2300000000000002E-002     6.9114703937288333E-008
   1.2600000000000000E-002     1.9648919441612828E-007
   1.2900000000000002E-002    -4.2139628429746158E-007
   1.3200000000000000E-002    -5.0857056399164639E-007
   1.3500000000000002E-002     1.3640757287684444E-006
   1.3800000000000003E-002     1.7518343501628012E-006
   1.4100000000000001E-002    -3.1434268080388200E-006
   1.4400000000000000E-002    -7.2975547392905633E-006
   1.4700000000000001E-002     4.2525916695373076E-006
   1.4999999999999999E-002     4.1660585866763683E-005
   1.5300000000000001E-002     1.0103879767129417E-004
   1.5600000000000003E-002     1.7398553082866597E-004
   1.5899999999999997E-002     2.6383862836743536E-004
   1.6199999999999999E-002     3.9147202632020949E-004
   1.6500000000000001E-002     5.9346366375896264E-004
   1.6800000000000002E-002     9.1763504677745689E-004
   1.7100000000000004E-002     1.4196832687101890E-003
   1.7400000000000006E-002     2.1682773824840476E-003
   1.7700000000000000E-002     3.2566826181978262E-003
   1.8000000000000002E-002     4.8159621072280025E-003
   1.8300000000000004E-002     7.0256137282898607E-003
   1.8600000000000005E-002     1.0115793058957108E-002
   1.8900000000000000E-002     1.4365933585755027E-002
   1.9200000000000002E-002     2.0105730713226425E-002
   1.9500000000000003E-002     2.7715388448360495E-002
   1.9799999999999998E-002     3.7617617584118745E-002
   2.0100000000000000E-002     5.0252952425764788E-002
   2.0400000000000001E-002     6.6036635441891561E-002
   2.0700000000000003E-002     8.5306351853260701E-002
   2.0999999999999998E-002    0.10825448809983330     
   2.1299999999999999E-002    0.13483400044644617     
   2.1600000000000001E-002    0.16464283570230248     
   2.1900000000000003E-002    0.19680334531334240     
   2.2200000000000004E-002    0.22984831462799471     
   2.2500000000000006E-002    0.26160543639347150     
   2.2800000000000001E-002    0.28913007739414998     
   2.3100000000000002E-002    0.30867912507600487     
   2.3400000000000004E-002    0.31576813723988828     
   2.3699999999999999E-002    0.30534358147953000     
   2.4000000000000000E-002    0.27202370219655136     
   2.4300000000000002E-002    0.21051872876011907     
   2.4599999999999997E-002    0.11611319817090751     
   2.4900000000000005E-002    -1.4742380980868879E-002
   2.5200000000000000E-002   -0.18372758692770216     
   2.5499999999999995E-002   -0.39005077984168052     
   2.5800000000000003E-002   -0.62982855177484198     
   2.6099999999999998E-002   -0.89570095312928333     
   2.6400000000000007E-002    -1.1766751066357370     
   2.6700000000000002E-002    -1.4582135289751943     
   2.6999999999999996E-002    -1.7227874414407418     
   2.7300000000000005E-002    -1.9507495310913443     
   2.7600000000000000E-002    -2.1215402034827715     
   2.7900000000000008E-002    -2.2152289013589543     
   2.8200000000000003E-002    -2.2142403935226929     
   2.8499999999999998E-002    -2.1050383929813719     
   2.8800000000000006E-002    -1.8796936075504931     
   2.9100000000000001E-002    -1.5372175277561877     
   2.9400000000000003E-002    -1.0843239787246062     
   2.9700000000000004E-002   -0.53546694301287001     
   3.0000000000000006E-002     8.7431900356182535E-002
   3.0300000000000001E-002    0.75618357491076282     
   3.0600000000000002E-002     1.4382587843731494     
   3.0900000000000004E-002     2.0986438075259097     
   3.1199999999999999E-002     2.7025375459915617     
   3.1500000000000007E-002     3.2179404121890380     
   3.1800000000000002E-002     3.6176455654742656     
   3.2099999999999997E-002     3.8814569524370093     
   3.2400000000000005E-002     3.9973673103174070     
   3.2700000000000000E-002     3.9620079637299419     
   3.3000000000000002E-002     3.7810538316697277     
   3.3300000000000003E-002     3.4680635745132853     
   3.3599999999999998E-002     3.0432468403784139     
   3.3900000000000000E-002     2.5320033470150967     
   3.4200000000000001E-002     1.9622826210842597     
   3.4500000000000003E-002     1.3631734142610541     
   3.4799999999999998E-002    0.76265295085790874     
   3.5099999999999999E-002    0.18579134120846058     
   3.5400000000000001E-002   -0.34596534864932849     
   3.5699999999999996E-002   -0.81624041490420873     
   3.6000000000000004E-002    -1.2137742890310119     
   3.6299999999999999E-002    -1.5322371386614340     
   3.6600000000000008E-002    -1.7702510722929070     
   3.6900000000000002E-002    -1.9305173830682607     
   3.7199999999999997E-002    -2.0191136875123652     
   3.7500000000000006E-002    -2.0448711333533414     
   3.7800000000000000E-002    -2.0184061404138740     
   3.8100000000000009E-002    -1.9516119187788030     
   3.8400000000000004E-002    -1.8570062865566412     
   3.8699999999999998E-002    -1.7472312626792750     
   3.9000000000000007E-002    -1.6346314756670159     
   3.9300000000000002E-002    -1.5309942812300037     
   3.9600000000000003E-002    -1.4468247945816739     
   3.9900000000000005E-002    -1.3909661916858183     
   4.0200000000000000E-002    -1.3700406523471627     
   4.0500000000000001E-002    -1.3875029588891961     
   4.0800000000000003E-002    -1.4433276955641492     
   4.1100000000000005E-002    -1.5332561402299212     
   4.1399999999999999E-002    -1.6481485264342077     
   4.1700000000000008E-002    -1.7743075504625589     
   4.2000000000000003E-002    -1.8934375053667858     
   4.2299999999999997E-002    -1.9835318825506154     
   4.2600000000000006E-002    -2.0205352969087866     
   4.2900000000000001E-002    -1.9797816289407386     
   4.3200000000000002E-002    -1.8385426700989009     
   4.3500000000000004E-002    -1.5785759966984667     
   4.3799999999999999E-002    -1.1880907512857082     
   4.4100000000000000E-002   -0.66448336457168400     
   4.4400000000000002E-002    -1.5825353713198848E-002
   4.4700000000000004E-002    0.73873377183220779     
   4.4999999999999998E-002     1.5686713348512904     
   4.5300000000000000E-002     2.4336294681018513     
   4.5600000000000002E-002     3.2860048552158498     
   4.5899999999999996E-002     4.0738004051046657     
   4.6200000000000005E-002     4.7447094573191766     
   4.6500000000000000E-002     5.2504986594679597     
   4.6799999999999994E-002     5.5505201360532377     
   4.7100000000000003E-002     5.6157924362964566     
   4.7399999999999998E-002     5.4313796231383673     
   4.7700000000000006E-002     4.9974972656397565     
   4.8000000000000001E-002     4.3306436505672359     
   4.8300000000000010E-002     3.4614701914106560     
   4.8600000000000004E-002     2.4326208350149288     
   4.8899999999999999E-002     1.2960450439281068     
   4.9200000000000008E-002    0.10779421484439516     
   4.9500000000000002E-002    -1.0749430048742128     
   4.9800000000000011E-002    -2.1982558910390737     
   5.0100000000000006E-002    -3.2154786275289573     
   5.0400000000000000E-002    -4.0883808697946655     
   5.0700000000000009E-002    -4.7901602376615005     
   5.1000000000000004E-002    -5.3049077479770865     
   5.1299999999999998E-002    -5.6268582987181581     
   5.1600000000000007E-002    -5.7599129480624285     
   5.1900000000000002E-002    -5.7141902706831607     
   5.2200000000000010E-002    -5.5047082040548805     
   5.2500000000000005E-002    -5.1491106816432710     
   5.2800000000000000E-002    -4.6650340949830174     
   5.3099999999999994E-002    -4.0697739266408446     
   5.3400000000000003E-002    -3.3791945888187591     
   5.3699999999999998E-002    -2.6077993842274214     
   5.4000000000000006E-002    -1.7702110992884483     
   5.4300000000000001E-002   -0.88167890453432718     
   5.4599999999999996E-002     4.0397251209420781E-002
   5.4900000000000004E-002    0.97475398290983351     
   5.5199999999999999E-002     1.8963281801922263     
   5.5499999999999994E-002     2.7757615649981346     
   5.5800000000000002E-002     3.5797076690246943     
   5.6099999999999997E-002     4.2734843688205659     
   5.6400000000000006E-002     4.8221913510352810     
   5.6700000000000000E-002     5.1939627564318469     
   5.6999999999999995E-002     5.3636889373815499     
   5.7300000000000004E-002     5.3145138443881423     
   5.7599999999999998E-002     5.0416810098286478     
   5.7900000000000007E-002     4.5536710137354781     
   5.8200000000000002E-002     3.8720454590869746     
   5.8499999999999996E-002     3.0323743308933317     
   5.8800000000000005E-002     2.0812094973909159     
   5.9100000000000000E-002     1.0733960687715576     
   5.9400000000000008E-002     6.8839433262179284E-002
   5.9700000000000003E-002   -0.87261514183585887     
   6.0000000000000012E-002    -1.6951747096769920     
   6.0300000000000006E-002    -2.3513905521034353     
   6.0600000000000001E-002    -2.8060235605207615     
   6.0900000000000010E-002    -3.0383871081517997     
   6.1200000000000004E-002    -3.0441021250186893     
   6.1500000000000013E-002    -2.8351338784653213     
   6.1800000000000008E-002    -2.4386693224748170     
   6.2100000000000002E-002    -1.8944066609903674     
   6.2399999999999997E-002    -1.2517803918274788     
   6.2700000000000006E-002   -0.56556858373007735     
   6.3000000000000000E-002    0.10856209753386248     
   6.3300000000000009E-002    0.71749044266504847     
   6.3600000000000004E-002     1.2158414568148030     
   6.3899999999999998E-002     1.5684627930228872     
   6.4199999999999993E-002     1.7527315914256771     
   6.4500000000000002E-002     1.7610200126738496     
   6.4800000000000010E-002     1.5996258831877284     
   6.5100000000000005E-002     1.2891199046969817     
   6.5400000000000000E-002    0.86237481472776589     
   6.5700000000000008E-002    0.36133431524943349     
   6.5999999999999989E-002   -0.16498404046484097     
   6.6299999999999998E-002   -0.66559562283158269     
   6.6600000000000006E-002    -1.0910824614506240     
   6.6900000000000001E-002    -1.3972927327390536     
   6.7199999999999996E-002    -1.5501945568718567     
   6.7500000000000004E-002    -1.5278478532426025     
   6.7800000000000013E-002    -1.3233540845361040     
   6.8099999999999994E-002   -0.94614888353905657     
   6.8400000000000002E-002   -0.42125109019254015     
   6.8700000000000011E-002    0.21145901757520735     
   6.8999999999999992E-002    0.90083726160373279     
   6.9300000000000000E-002     1.5881477008780154     
   6.9600000000000009E-002     2.2119491194655980     
   6.9900000000000004E-002     2.7141688024644717     
   7.0199999999999999E-002     3.0446763668137704     
   7.0500000000000007E-002     3.1666553873543677     
   7.0800000000000016E-002     3.0605510546592933     
   7.1099999999999997E-002     2.7258899798686635     
   7.1400000000000005E-002     2.1822240420969123     
   7.1700000000000000E-002     1.4672019807071692     
   7.1999999999999995E-002    0.63373258419598089     
   7.2300000000000003E-002   -0.25474407751860745     
   7.2600000000000012E-002    -1.1305705359592053     
   7.2900000000000006E-002    -1.9276703083821907     
   7.3200000000000001E-002    -2.5879348136960587     
   7.3499999999999996E-002    -3.0666230457303438     
   7.3800000000000004E-002    -3.3360179834286523     
   7.4099999999999999E-002    -3.3879562546757489     
   7.4400000000000008E-002    -3.2339457474197801     
   7.4700000000000003E-002    -2.9034028991789285     
   7.5000000000000011E-002    -2.4407412967088078     
   7.5299999999999992E-002    -1.9004042248256878     
   7.5600000000000001E-002    -1.3413710168121629     
   7.5900000000000009E-002   -0.82229963095600855     
   7.6200000000000004E-002   -0.39561424540170687     
   7.6499999999999999E-002   -0.10381317122462003     
   7.6800000000000007E-002     2.3303205541601278E-002
   7.7099999999999988E-002    -2.8498702879142551E-002
   7.7399999999999997E-002   -0.25930115085471350     
   7.7700000000000005E-002   -0.65516981954997822     
   7.8000000000000014E-002    -1.1900949456221090     
   7.8299999999999995E-002    -1.8299569400109741     
   7.8600000000000003E-002    -2.5337514479019512     
   7.8900000000000012E-002    -3.2579233954401121     
   7.9199999999999993E-002    -3.9588065170810891     
   7.9500000000000001E-002    -4.5933451840498218     
   7.9800000000000010E-002    -5.1228779116820951     
   8.0100000000000018E-002    -5.5124151181918384     
   8.0399999999999999E-002    -5.7319138724288630     
   8.0700000000000008E-002    -5.7572399807989836     
   8.1000000000000003E-002    -5.5693875165936122     
   8.1299999999999997E-002    -5.1561487059850304     
   8.1600000000000006E-002    -4.5120879994546721     
   8.1900000000000014E-002    -3.6386864934504022     
   8.2199999999999995E-002    -2.5461012680093731     
   8.2500000000000004E-002    -1.2529847555640292     
   8.2799999999999999E-002    0.21247638866492413     
   8.3100000000000007E-002     1.8134217757799074     
   8.3400000000000002E-002     3.5040326835066180     
   8.3700000000000011E-002     5.2310963824398788     
   8.4000000000000005E-002     6.9363788326805818     
   8.4300000000000000E-002     8.5583098072810291     
   8.4599999999999995E-002     10.035429265934424     
   8.4900000000000003E-002     11.309364073888514     
   8.5199999999999998E-002     12.327588008033164     
   8.5500000000000007E-002     13.046343278996240     
   8.5800000000000001E-002     13.432888093468740     
   8.6100000000000010E-002     13.466416105476872     
   8.6399999999999991E-002     13.139695802720583     
   8.6699999999999999E-002     12.458471067747988     
   8.7000000000000008E-002     11.439762141791178     
   8.7300000000000003E-002     10.112588861301996     
   8.7599999999999997E-002     8.5144626830135124     
   8.7900000000000006E-002     6.6900601567322360     
   8.8200000000000014E-002     4.6901687228157520     
   8.8499999999999995E-002     2.5685482753215201     
   8.8800000000000004E-002    0.38165643526082793     
   8.9100000000000013E-002    -1.8127011204931192     
   8.9399999999999993E-002    -3.9572446312426042     
   8.9700000000000002E-002    -5.9943895047508375     
   9.0000000000000011E-002    -7.8684875320156697     
   9.0299999999999991E-002    -9.5256940791548921     
   9.0600000000000000E-002    -10.915529743983679     
   9.0900000000000009E-002    -11.992107279815112     
   9.1200000000000017E-002    -12.715415545103504     
   9.1499999999999998E-002    -13.054085754414839     
   9.1800000000000007E-002    -12.986604044850125     
   9.2100000000000001E-002    -12.504788848659985     
   9.2399999999999996E-002    -11.615210079376128     
   9.2700000000000005E-002    -10.340885985422592     
   9.3000000000000013E-002    -8.7233359934305810     
   9.3300000000000008E-002    -6.8208748187307311     
   9.3600000000000003E-002    -4.7091312266960603     
   9.3899999999999997E-002    -2.4787266678181084     
   9.4200000000000006E-002   -0.23019477520026110     
   9.4500000000000001E-002     1.9292489636342429     
   9.4800000000000009E-002     3.8928974670380274     
   9.5100000000000004E-002     5.5600335252261823     
   9.5399999999999999E-002     6.8426770075940953     
   9.5699999999999993E-002     7.6726495704861817     
   9.6000000000000002E-002     8.0049298074332107     
   9.6300000000000011E-002     7.8233640233488053     
   9.6600000000000005E-002     7.1415750833530947     
   9.6900000000000000E-002     6.0032313879183468     
   9.7200000000000009E-002     4.4806603725314327     
   9.7499999999999989E-002     2.6693124589746247     
   9.7799999999999998E-002    0.68364009935290548     
   9.8100000000000007E-002    -1.3516028288523128     
   9.8400000000000015E-002    -3.3087764394725010     
   9.8699999999999996E-002    -5.0648322045926362     
   9.9000000000000005E-002    -6.5108663317405826     
   9.9300000000000013E-002    -7.5576092253841187     
   9.9599999999999994E-002    -8.1420595579607653     
   9.9900000000000003E-002    -8.2315931569260563     
  0.10020000000000001         -7.8247704789361840     
  0.10049999999999999         -6.9529630498948123     
  0.10080000000000000         -5.6770984803189037     
  0.10110000000000001         -4.0831975162944278     
  0.10140000000000000         -2.2773479479967862     
  0.10170000000000000        -0.37786050289017248     
  0.10200000000000001          1.4930512946476671     
  0.10230000000000002          3.2168046798248402     
  0.10260000000000000          4.6878280746106862     
  0.10290000000000001          5.8206600371122672     
  0.10320000000000000          6.5546025291307775     
  0.10350000000000001          6.8602280174365129     
  0.10380000000000000          6.7391268326948186     
  0.10410000000000001          6.2244679706682087     
  0.10440000000000001          5.3787347182819802     
  0.10470000000000000          4.2861598246718806     
  0.10500000000000000          3.0489686055035223     
  0.10530000000000000          1.7773357006195054     
  0.10560000000000000         0.57923233637874283     
  0.10590000000000001        -0.44550978154486787     
  0.10620000000000000         -1.2160707265654473     
  0.10650000000000001         -1.6760739140644079     
  0.10679999999999999         -1.7974054676113385     
  0.10710000000000000         -1.5846152196694299     
  0.10740000000000001         -1.0708327044455599     
  0.10770000000000000        -0.31649324766985965     
  0.10800000000000000         0.59671241360372673     
  0.10830000000000001          1.5757183476219747     
  0.10859999999999999          2.5218198332245931     
  0.10890000000000000          3.3429912641750885     
  0.10920000000000001          3.9616202042762749     
  0.10950000000000001          4.3203976759079890     
  0.10979999999999999          4.3899808390435950     
  0.11009999999999999          4.1688322371141293     
  0.11040000000000001          3.6837176055483365     
  0.11070000000000001          2.9861927075647339     
  0.11100000000000000          2.1455886381167248     
  0.11130000000000000          1.2424860625293643     
  0.11160000000000002         0.35860272456893083     
  0.11190000000000001        -0.43097159119910411     
  0.11220000000000001         -1.0654297034575042     
  0.11250000000000000         -1.5044526076517166     
  0.11280000000000000         -1.7311844506366749     
  0.11309999999999999         -1.7523233386446402     
  0.11340000000000001         -1.5963376982078816     
  0.11369999999999998         -1.3088497953996336     
  0.11400000000000000        -0.94540503169734169     
  0.11430000000000000        -0.56568861886488020     
  0.11460000000000002        -0.22579571297403922     
  0.11489999999999999          2.8434784531152751E-002
  0.11520000000000001         0.16445523844582433     
  0.11550000000000001         0.16736624484299459     
  0.11580000000000000          3.8615070808254354E-002
  0.11609999999999999        -0.20532503208332473     
  0.11640000000000002        -0.53530637002479275     
  0.11670000000000001        -0.91630023760444235     
  0.11700000000000001         -1.3106785546904083     
  0.11730000000000000         -1.6833011703197496     
  0.11760000000000000         -2.0066056267252868     
  0.11789999999999999         -2.2607304589854795     
  0.11820000000000001         -2.4369574179548801     
  0.11850000000000001         -2.5373882844841464     
  0.11880000000000000         -2.5709222920856645     
  0.11910000000000000         -2.5536043309163983     
  0.11940000000000002         -2.5042032465991517     
  0.11970000000000001         -2.4404587034700249     
  0.12000000000000001         -2.3787793442498346     
  0.12030000000000000         -2.3304683665986445     
  0.12060000000000000         -2.3013550087860093     
  0.12089999999999999         -2.2924530617819308     
  0.12119999999999999         -2.2994878566517949     
  0.12150000000000001         -2.3152785105274019     
  0.12180000000000001         -2.3314755251225940     
  0.12210000000000000         -2.3384371760897746     
  0.12239999999999999         -2.3285744859938458     
  0.12270000000000002         -2.2963157535214824     
  0.12300000000000001         -2.2369158024070877     
  0.12330000000000001         -2.1492271962810459     
  0.12360000000000000         -2.0324001537812122     
  0.12390000000000000         -1.8859457088610219     
  0.12419999999999999         -1.7112898711576725     
  0.12450000000000001         -1.5079746821827400     
  0.12480000000000001         -1.2769552568644409     
  0.12509999999999999         -1.0192397473096653     
  0.12540000000000001        -0.73588970066538728     
  0.12570000000000003        -0.43169224822575325     
  0.12600000000000000        -0.11107066875587979     
  0.12630000000000002         0.21927784548950791     
  0.12659999999999999         0.55113551147278017     
  0.12690000000000001         0.87848349347746046     
  0.12719999999999998          1.1949097830865840     
  0.12750000000000000          1.4985110805954787     
  0.12780000000000002          1.7914491481753136     
  0.12809999999999999          2.0785055718796146     
  0.12840000000000001          2.3700594266443176     
  0.12869999999999998          2.6767387978323285     
  0.12900000000000000          3.0083894575654617     
  0.12930000000000003          3.3726409433005577     
  0.12959999999999999          3.7693270577137481     
  0.12990000000000002          4.1916213136104492     
  0.13019999999999998          4.6244076195985713     
  0.13050000000000000          5.0438469585635293     
  0.13080000000000003          5.4228647131842891     
  0.13109999999999999          5.7329958602281010     
  0.13140000000000002          5.9488598591033073     
  0.13169999999999998          6.0546460893967415     
  0.13200000000000001          6.0456051743529553     
  0.13229999999999997          5.9302367063009065     
  0.13260000000000000          5.7315789173017091     
  0.13290000000000002          5.4807286480547566     
  0.13319999999999999          5.2146544833483777     
  0.13350000000000001          4.9699977954571857     
  0.13380000000000003          4.7716270498571571     
  0.13410000000000000          4.6318306890152687     
  0.13440000000000002          4.5427262561561061     
  0.13469999999999999          4.4739551347425071     
  0.13500000000000001          4.3790339345966620     
  0.13529999999999998          4.1943163160739125     
  0.13560000000000000          3.8511168582813955     
  0.13590000000000002          3.2863626182880648     
  0.13619999999999999          2.4488353259421785     
  0.13650000000000001          1.3145544621790988     
  0.13680000000000003        -0.11102034746376033     
  0.13710000000000000         -1.7891638713115507     
  0.13740000000000002         -3.6453517017581452     
  0.13769999999999999         -5.5819108023282009     
  0.13800000000000001         -7.4840724716832385     
  0.13829999999999998         -9.2342508808800972     
  0.13860000000000000         -10.731022313995185     
  0.13890000000000002         -11.897952057861049     
  0.13919999999999999         -12.700205147231351     
  0.13950000000000001         -13.151756383170699     
  0.13979999999999998         -13.312038633508688     
  0.14010000000000000         -13.285818101433854     
  0.14040000000000002         -13.207069905042745     
  0.14069999999999999         -13.218461476713951     
  0.14100000000000001         -13.454652037026609     
  0.14130000000000004         -14.012595537345149     
  0.14160000000000000         -14.930523384707342     
  0.14189999999999997         -16.175426130654806     
  0.14219999999999999         -17.626465231662383     
  0.14250000000000002         -19.081647782915695     
  0.14279999999999998         -20.269679464024406     
  0.14310000000000000         -20.866876595970425     
  0.14339999999999997         -20.536943556191183     
  0.14369999999999999         -18.965301412822448     
  0.14400000000000002         -15.895901148024574     
  0.14429999999999998         -11.177855269811804     
  0.14460000000000001         -4.7876446302028466     
  0.14490000000000003          3.1467084995243439     
  0.14520000000000000          12.336043728870106     
  0.14550000000000002          22.349428847080731     
  0.14579999999999999          32.628841326496513     
  0.14610000000000001          42.531988370564662     
  0.14640000000000003          51.385013954388072     
  0.14670000000000000          58.528473836366359     
  0.14699999999999996          63.380962084915275     
  0.14729999999999999          65.485548150316816     
  0.14760000000000001          64.548522409540610     
  0.14789999999999998          60.472572160519974     
  0.14820000000000000          53.363010436206707     