  -1.4999999999999999E-002     0.0000000000000000     
  -1.4700000000000000E-002     0.0000000000000000     
  -1.4400000000000000E-002     0.0000000000000000     
  -1.4100000000000000E-002     0.0000000000000000     
  -1.3800000000000000E-002     0.0000000000000000     
  -1.3500000000000000E-002     0.0000000000000000     
  -1.3200000000000000E-002     0.0000000000000000     
  -1.2899999999999998E-002     0.0000000000000000     
  -1.2600000000000000E-002     0.0000000000000000     
  -1.2299999999999998E-002     0.0000000000000000     
  -1.2000000000000000E-002     0.0000000000000000     
  -1.1699999999999999E-002     0.0000000000000000     
  -1.1399999999999999E-002     0.0000000000000000     
  -1.1099999999999999E-002     0.0000000000000000     
  -1.0799999999999999E-002     0.0000000000000000     
  -1.0499999999999999E-002     0.0000000000000000     
  -1.0199999999999999E-002     0.0000000000000000     
  -9.8999999999999991E-003     0.0000000000000000     
  -9.5999999999999992E-003     0.0000000000000000     
  -9.2999999999999992E-003     0.0000000000000000     
  -8.9999999999999993E-003     0.0000000000000000     
  -8.6999999999999994E-003     0.0000000000000000     
  -8.3999999999999995E-003     0.0000000000000000     
  -8.0999999999999996E-003     0.0000000000000000     
  -7.7999999999999988E-003     0.0000000000000000     
  -7.4999999999999997E-003     0.0000000000000000     
  -7.1999999999999998E-003     0.0000000000000000     
  -6.8999999999999981E-003     0.0000000000000000     
  -6.5999999999999982E-003     0.0000000000000000     
  -6.3000000000000000E-003     0.0000000000000000     
  -6.0000000000000001E-003     0.0000000000000000     
  -5.6999999999999985E-003     0.0000000000000000     
  -5.3999999999999986E-003     0.0000000000000000     
  -5.1000000000000004E-003     0.0000000000000000     
  -4.7999999999999987E-003     0.0000000000000000     
  -4.5000000000000005E-003     0.0000000000000000     
  -4.1999999999999989E-003     0.0000000000000000     
  -3.8999999999999990E-003     0.0000000000000000     
  -3.5999999999999990E-003     0.0000000000000000     
  -3.2999999999999991E-003     0.0000000000000000     
  -2.9999999999999992E-003     0.0000000000000000     
  -2.6999999999999993E-003     0.0000000000000000     
  -2.3999999999999994E-003     0.0000000000000000     
  -2.0999999999999977E-003     0.0000000000000000     
  -1.7999999999999995E-003     0.0000000000000000     
  -1.4999999999999979E-003     0.0000000000000000     
  -1.1999999999999997E-003     0.0000000000000000     
  -8.9999999999999976E-004     0.0000000000000000     
  -5.9999999999999810E-004     0.0000000000000000     
  -2.9999999999999992E-004     0.0000000000000000     
   0.0000000000000000          0.0000000000000000     
   3.0000000000000165E-004     0.0000000000000000     
   5.9999999999999984E-004     0.0000000000000000     
   9.0000000000000149E-004     0.0000000000000000     
   1.2000000000000031E-003     0.0000000000000000     
   1.5000000000000013E-003     0.0000000000000000     
   1.8000000000000030E-003     0.0000000000000000     
   2.1000000000000012E-003     0.0000000000000000     
   2.3999999999999994E-003     0.0000000000000000     
   2.7000000000000010E-003     0.0000000000000000     
   2.9999999999999992E-003     0.0000000000000000     
   3.3000000000000008E-003     0.0000000000000000     
   3.6000000000000025E-003     0.0000000000000000     
   3.9000000000000007E-003     0.0000000000000000     
   4.2000000000000023E-003     0.0000000000000000     
   4.5000000000000005E-003     0.0000000000000000     
   4.7999999999999987E-003     0.0000000000000000     
   5.1000000000000004E-003     0.0000000000000000     
   5.4000000000000020E-003     0.0000000000000000     
   5.7000000000000037E-003     0.0000000000000000     
   5.9999999999999984E-003     0.0000000000000000     
   6.3000000000000000E-003     0.0000000000000000     
   6.6000000000000017E-003     0.0000000000000000     
   6.9000000000000034E-003     0.0000000000000000     
   7.2000000000000015E-003     0.0000000000000000     
   7.5000000000000032E-003     0.0000000000000000     
   7.8000000000000014E-003     0.0000000000000000     
   8.0999999999999996E-003     0.0000000000000000     
   8.4000000000000012E-003     0.0000000000000000     
   8.7000000000000029E-003     0.0000000000000000     
   9.0000000000000011E-003     0.0000000000000000     
   9.2999999999999992E-003     0.0000000000000000     
   9.6000000000000009E-003     0.0000000000000000     
   9.8999999999999991E-003    -1.0837330767797338E-058
   1.0200000000000001E-002    -2.9637400147769666E-044
   1.0500000000000002E-002     2.4834290068898128E-043
   1.0800000000000004E-002     2.7713758827085458E-036
   1.1099999999999999E-002     5.6138284949750086E-036
   1.1400000000000000E-002    -3.6421665456673366E-034
   1.1700000000000002E-002    -1.9257428215953622E-034
   1.2000000000000004E-002     2.0318366221661523E-032
   1.2300000000000002E-002    -5.6702292136337201E-032
   1.2600000000000000E-002    -6.0304548074218104E-031
   1.2900000000000002E-002     4.1055452927602714E-030
   1.3200000000000000E-002     2.5484213263383272E-030
   1.3500000000000002E-002    -1.1846321062811114E-028
   1.3800000000000003E-002     4.1415422352078121E-028
   1.4100000000000001E-002     7.6725703013321921E-028
   1.4400000000000000E-002    -1.0625549774119318E-026
   1.4700000000000001E-002     3.0118114023571597E-026
   1.4999999999999999E-002     3.2733152258016891E-026
   1.5300000000000001E-002    -5.0191103478606356E-025
   1.5600000000000003E-002     1.4654672494374770E-024
   1.5899999999999997E-002    -4.6868172994268375E-026
   1.6199999999999999E-002    -1.3475904193783437E-023
   1.6500000000000001E-002     4.3066348693023044E-023
   1.6800000000000002E-002    -8.1368207984628941E-024
   1.7100000000000004E-002    -4.5304335480775136E-022
   1.7400000000000006E-002     2.2220667247428576E-021
   1.7700000000000000E-002    -6.6833487801161692E-021
   1.8000000000000002E-002     1.5376531178313250E-020
   1.8300000000000004E-002    -3.0279007648869392E-020
   1.8600000000000005E-002     5.0687929883986013E-020
   1.8900000000000000E-002    -7.9205920454556418E-021
   1.9200000000000002E-002    -6.9713898908619600E-019
   1.9500000000000003E-002     5.3604687650857241E-018
   1.9799999999999998E-002    -2.7287244746990462E-017
   2.0100000000000000E-002     1.0358517388876118E-016
   2.0400000000000001E-002    -2.5874679503708346E-016
   2.0700000000000003E-002    -4.8507251781673053E-017
   2.0999999999999998E-002     5.4758418706595831E-015
   2.1299999999999999E-002    -4.1190893186834589E-014
   2.1600000000000001E-002     2.0957646514557919E-013
   2.1900000000000003E-002    -8.1928547716347458E-013
   2.2200000000000004E-002     2.4262068964538564E-012
   2.2500000000000006E-002    -4.6512227811653047E-012
   2.2800000000000001E-002     5.3016191585250085E-013
   2.3100000000000002E-002     3.4907555755251729E-011
   2.3400000000000004E-002    -1.3561524958527695E-010
   2.3699999999999999E-002     2.2095453899992350E-010
   2.4000000000000000E-002     1.7759520492758187E-010
   2.4300000000000002E-002    -1.6723492320614710E-009
   2.4599999999999997E-002     2.6657886368050950E-009
   2.4900000000000005E-002     3.2061553215072532E-009
   2.5200000000000000E-002    -1.6044788430653147E-008
   2.5499999999999995E-002     3.7416451549122103E-009
   2.5800000000000003E-002     5.7781329855616305E-008
   2.6099999999999998E-002    -3.7802131884992062E-008
   2.6400000000000007E-002    -2.0204226951961006E-007
   2.6700000000000002E-002     5.7741471527919533E-008
   2.6999999999999996E-002     6.0257157812059640E-007
   2.7300000000000005E-002     1.9335551030685190E-007
   2.7600000000000000E-002    -1.4071950293305662E-006
   2.7900000000000008E-002    -1.4592504642758384E-006
   2.8200000000000003E-002     3.0312070795427790E-006
   2.8499999999999998E-002     1.0433546617271251E-005
   2.8800000000000006E-002     1.5757131126641827E-005
   2.9100000000000001E-002     1.8573107855413806E-005
   2.9400000000000003E-002     2.6640448843040838E-005
   2.9700000000000004E-002     4.8448953591392327E-005
   3.0000000000000006E-002     8.4421744207907387E-005
   3.0300000000000001E-002     1.3066710582102241E-004
   3.0600000000000002E-002     1.9193344775067674E-004
   3.0900000000000004E-002     2.8610896051097336E-004
   3.1199999999999999E-002     4.3391590750222034E-004
   3.1500000000000007E-002     6.4946670633043058E-004
   3.1800000000000002E-002     9.4717659878264964E-004
   3.2099999999999997E-002     1.3566184813466539E-003
   3.2400000000000005E-002     1.9246636667912807E-003
   3.2700000000000000E-002     2.7030631898451378E-003
   3.3000000000000002E-002     3.7411798226152826E-003
   3.3300000000000003E-002     5.0947246970378147E-003
   3.3599999999999998E-002     6.8355938195220458E-003
   3.3900000000000000E-002     9.0453577759801798E-003
   3.4200000000000001E-002     1.1798023181444278E-002
   3.4500000000000003E-002     1.5150800246367911E-002
   3.4799999999999998E-002     1.9145602208071315E-002
   3.5099999999999999E-002     2.3804813402033290E-002
   3.5400000000000001E-002     2.9113361301217566E-002
   3.5699999999999996E-002     3.4995093517766848E-002
   3.6000000000000004E-002     4.1301477135980841E-002
   3.6299999999999999E-002     4.7809194039367009E-002
   3.6600000000000008E-002     5.4217549972025908E-002
   3.6900000000000002E-002     6.0141741076286448E-002
   3.7199999999999997E-002     6.5109497405520439E-002
   3.7500000000000006E-002     6.8581273998729445E-002
   3.7800000000000000E-002     6.9985007840252425E-002
   3.8100000000000009E-002     6.8759081633247343E-002
   3.8400000000000004E-002     6.4388004628715689E-002
   3.8699999999999998E-002     5.6448844641705097E-002
   3.9000000000000007E-002     4.4673183353252058E-002
   3.9300000000000002E-002     2.9006394991720124E-002
   3.9600000000000003E-002     9.6550720703016107E-003
   3.9900000000000005E-002    -1.2894542811632520E-002
   4.0200000000000000E-002    -3.7873831921846603E-002
   4.0500000000000001E-002    -6.4246021830467528E-002
   4.0800000000000003E-002    -9.0740717781113506E-002
   4.1100000000000005E-002   -0.11592209233598405     
   4.1399999999999999E-002   -0.13829727269867248     
   4.1700000000000008E-002   -0.15643511414395392     
   4.2000000000000003E-002   -0.16907533611839612     
   4.2299999999999997E-002   -0.17523523689966825     
   4.2600000000000006E-002   -0.17430643193087983     
   4.2900000000000001E-002   -0.16613892616957401     
   4.3200000000000002E-002   -0.15109356617264921     
   4.3500000000000004E-002   -0.13002000127227095     
   4.3799999999999999E-002   -0.10420457421090469     
   4.4100000000000000E-002    -7.5296627450166784E-002
   4.4400000000000002E-002    -4.5204791091248732E-002
   4.4700000000000004E-002    -1.5966247539225563E-002
   4.4999999999999998E-002     1.0411066204328920E-002
   4.5300000000000000E-002     3.2097591221400830E-002
   4.5600000000000002E-002     4.7564704997416080E-002
   4.5899999999999996E-002     5.5671837327656640E-002
   4.6200000000000005E-002     5.5733635433547347E-002
   4.6500000000000000E-002     4.7572134789529229E-002
   4.6799999999999994E-002     3.1532099866622421E-002
   4.7100000000000003E-002     8.4396426731755125E-003
   4.7399999999999998E-002    -2.0462909291274225E-002
   4.7700000000000006E-002    -5.3573874002140379E-002
   4.8000000000000001E-002    -8.9020625359236980E-002
   4.8300000000000010E-002   -0.12476032224120102     
   4.8600000000000004E-002   -0.15867648944696780     
   4.8899999999999999E-002   -0.18869763466107067     
   4.9200000000000008E-002   -0.21288619720604166     
   4.9500000000000002E-002   -0.22952520574019375     
   4.9800000000000011E-002   -0.23722904603600828     
   5.0100000000000006E-002   -0.23502622202998186     
   5.0400000000000000E-002   -0.22242143405561704     
   5.0700000000000009E-002   -0.19942472551033008     
   5.1000000000000004E-002   -0.16656169015147754     
   5.1299999999999998E-002   -0.12486991816820527     
   5.1600000000000007E-002    -7.5844234417440787E-002
   5.1900000000000002E-002    -2.1367614782156739E-002
   5.2200000000000010E-002     3.6412618265423621E-002
   5.2500000000000005E-002     9.5239704407231562E-002
   5.2800000000000000E-002    0.15285682372079723     
   5.3099999999999994E-002    0.20712560001925873     
   5.3400000000000003E-002    0.25618767228105876     
   5.3699999999999998E-002    0.29856526258600014     
   5.4000000000000006E-002    0.33320661720086564     
   5.4300000000000001E-002    0.35950171240002454     
   5.4599999999999996E-002    0.37728186703694644     
   5.4900000000000004E-002    0.38679512583287351     
   5.5199999999999999E-002    0.38862543547842066     
   5.5499999999999994E-002    0.38358324030452301     
   5.5800000000000002E-002    0.37260269407699903     
   5.6099999999999997E-002    0.35667549884645533     
   5.6400000000000006E-002    0.33677714420583749     
   5.6700000000000000E-002    0.31377571218006622     
   5.6999999999999995E-002    0.28838225635573461     
   5.7300000000000004E-002    0.26114201020369637     
   5.7599999999999998E-002    0.23247307049825880     
   5.7900000000000007E-002    0.20266164384261010     
   5.8200000000000002E-002    0.17185531133842499     
   5.8499999999999996E-002    0.14014763738171673     
   5.8800000000000005E-002    0.10764407750506548     
   5.9100000000000000E-002     7.4511263966924340E-002
   5.9400000000000008E-002     4.0998783788216517E-002
   5.9700000000000003E-002     7.4694444072210065E-003
   6.0000000000000012E-002    -2.5516059314166579E-002
   6.0300000000000006E-002    -5.7197631696127849E-002
   6.0600000000000001E-002    -8.6662665547353121E-002
   6.0900000000000010E-002   -0.11286061224432359     
   6.1200000000000004E-002   -0.13464464118235198     
   6.1500000000000013E-002   -0.15084896749094792     
   6.1800000000000008E-002   -0.16040195185123840     
   6.2100000000000002E-002   -0.16246801170341629     
   6.2399999999999997E-002   -0.15656288917659333     
   6.2700000000000006E-002   -0.14261699591230256     
   6.3000000000000000E-002   -0.12106041673327526     
   6.3300000000000009E-002    -9.2903822948719003E-002
   6.3600000000000004E-002    -5.9754666187324050E-002
   6.3899999999999998E-002    -2.3700148390808102E-002
   6.4199999999999993E-002     1.2824807137868972E-002
   6.4500000000000002E-002     4.7167630759002190E-002
   6.4800000000000010E-002     7.6622430907571343E-002
   6.5100000000000005E-002     9.8667274596580659E-002
   6.5400000000000000E-002    0.11121520585742685     
   6.5700000000000008E-002    0.11277210025124232     
   6.5999999999999989E-002    0.10257083863852162     
   6.6299999999999998E-002     8.0635680185837999E-002
   6.6600000000000006E-002     4.7796578651482742E-002
   6.6900000000000001E-002     5.6875334774816808E-003
   6.7199999999999996E-002    -4.3381775798903052E-002
   6.7500000000000004E-002    -9.6602345724796243E-002
   6.7800000000000013E-002   -0.15082946647348025     
   6.8099999999999994E-002   -0.20280081197499905     
   6.8400000000000002E-002   -0.24933379973958350     
   6.8700000000000011E-002   -0.28753212094564162     
   6.8999999999999992E-002   -0.31492409026413409     
   6.9300000000000000E-002   -0.32955735762706012     
   6.9600000000000009E-002   -0.33017685789820767     
   6.9900000000000004E-002   -0.31629210451587358     
   7.0199999999999999E-002   -0.28814562881841638     
   7.0500000000000007E-002   -0.24669588840977705     
   7.0800000000000016E-002   -0.19362276569370401     
   7.1099999999999997E-002   -0.13128393727757254     
   7.1400000000000005E-002    -6.2543637272533217E-002
   7.1700000000000000E-002     9.3754863250489727E-003
   7.1999999999999995E-002     8.1052749101605065E-002
   7.2300000000000003E-002    0.14899064370399928     
   7.2600000000000012E-002    0.20981031327192773     
   7.2900000000000006E-002    0.26052319588550671     
   7.3200000000000001E-002    0.29865577335264376     
   7.3499999999999996E-002    0.32232585024313731     
   7.3800000000000004E-002    0.33035185390652722     
   7.4099999999999999E-002    0.32228201095261944     
   7.4400000000000008E-002    0.29832902055231841     
   7.4700000000000003E-002    0.25928946896137528     
   7.5000000000000011E-002    0.20648805448951599     
   7.5299999999999992E-002    0.14166390654379027     
   7.5600000000000001E-002     6.6736942862870283E-002
   7.5900000000000009E-002    -1.6299307084011602E-002
   7.6200000000000004E-002   -0.10535712357771050     
   7.6499999999999999E-002   -0.19830582683955830     
   7.6800000000000007E-002   -0.29302167358271514     
   7.7099999999999988E-002   -0.38737597334321200     
   7.7399999999999997E-002   -0.47915198470404391     
   7.7700000000000005E-002   -0.56594662723154587     
   7.8000000000000014E-002   -0.64514123049898375     
   7.8299999999999995E-002   -0.71395264508106637     
   7.8600000000000003E-002   -0.76951251673692100     
   7.8900000000000012E-002   -0.80893097396215707     
   7.9199999999999993E-002   -0.82942877147732064     
   7.9500000000000001E-002   -0.82854829066829039     
   7.9800000000000010E-002   -0.80443242971915696     
   8.0100000000000018E-002   -0.75604108767304490     
   8.0399999999999999E-002   -0.68329499042667274     
   8.0700000000000008E-002   -0.58725599477710488     
   8.1000000000000003E-002   -0.47015146671113173     
   8.1299999999999997E-002   -0.33528585790528886     
   8.1600000000000006E-002   -0.18696436708134218     
   8.1900000000000014E-002    -3.0287505159052257E-002
   8.2199999999999995E-002    0.12917426415641481     
   8.2500000000000004E-002    0.28570064601545198     
   8.2799999999999999E-002    0.43374990619694131     
   8.3100000000000007E-002    0.56828366426789023     
   8.3400000000000002E-002    0.68504838396137369     
   8.3700000000000011E-002    0.78070525168021021     
   8.4000000000000005E-002    0.85282353055875271     
   8.4300000000000000E-002    0.89999136550122794     
   8.4599999999999995E-002    0.92180249135216052     
   8.4900000000000003E-002    0.91870078397444965     
   8.5199999999999998E-002    0.89180150590557716     
   8.5500000000000007E-002    0.84277340837202086     
   8.5800000000000001E-002    0.77381292248407196     
   8.6100000000000010E-002    0.68760386650101768     
   8.6399999999999991E-002    0.58726892764846284     
   8.6699999999999999E-002    0.47640143139414454     
   8.7000000000000008E-002    0.35907162974225965     
   8.7300000000000003E-002    0.23980563100070365     
   8.7599999999999997E-002    0.12352633903573026     
   8.7900000000000006E-002     1.5381968850457952E-002
   8.8200000000000014E-002    -7.9463521467663389E-002
   8.8499999999999995E-002   -0.15613707054968304     
   8.8800000000000004E-002   -0.21051584576530691     
   8.9100000000000013E-002   -0.23970775537525790     
   8.9399999999999993E-002   -0.24233129789825017     
   8.9700000000000002E-002   -0.21876834539026138     
   9.0000000000000011E-002   -0.17147769369239796     
   9.0299999999999991E-002   -0.10504816273127736     
   9.0600000000000000E-002    -2.5914317739519428E-002
   9.0900000000000009E-002     5.8093421012475721E-002
   9.1200000000000017E-002    0.13827885719845254     
   9.1499999999999998E-002    0.20574596248332089     
   9.1800000000000007E-002    0.25230299888078317     
   9.2100000000000001E-002    0.27125736343171508     
   9.2399999999999996E-002    0.25807293427805139     
   9.2700000000000005E-002    0.21095067948030838     
   9.3000000000000013E-002    0.13116415665216438     
   9.3300000000000008E-002     2.3111748970346797E-002
   9.3600000000000003E-002   -0.10592782563464367     
   9.3899999999999997E-002   -0.24635348845802735     
   9.4200000000000006E-002   -0.38701873166703693     
   9.4500000000000001E-002   -0.51609240619587016     
   9.4800000000000009E-002   -0.62196944342341942     
   9.5100000000000004E-002   -0.69429806670044214     
   9.5399999999999999E-002   -0.72499129705631704     
   9.5699999999999993E-002   -0.70881173431852473     
   9.6000000000000002E-002   -0.64373896009185805     
   9.6300000000000011E-002   -0.53123287105961081     
   9.6600000000000005E-002   -0.37624402038669069     
   9.6900000000000000E-002   -0.18691991582235581     
   9.7200000000000009E-002     2.5983579896403035E-002
   9.7499999999999989E-002    0.24981650267119693     
   9.7799999999999998E-002    0.47079812134532401     
   9.8100000000000007E-002    0.67477802191084457     
   9.8400000000000015E-002    0.84803095402517192     
   9.8699999999999996E-002    0.97819700112392494     
   9.9000000000000005E-002     1.0550357877543266     
   9.9300000000000013E-002     1.0709454571528128     
   9.9599999999999994E-002     1.0214541711099427     
   9.9900000000000003E-002    0.90562738850051083     
  0.10020000000000001         0.72627207078664846     
  0.10049999999999999         0.48981315137478787     
  0.10080000000000000         0.20611843209840586     
  0.10110000000000001        -0.11186837274227311     
  0.10140000000000000        -0.44881405833311111     
  0.10170000000000000        -0.78778658492076026     
  0.10200000000000001         -1.1111236515428864     
  0.10230000000000002         -1.4014342626233691     
  0.10260000000000000         -1.6426124092328098     
  0.10290000000000001         -1.8207154925022393     
  0.10320000000000000         -1.9247052093327028     
  0.10350000000000001         -1.9470657717694435     
  0.10380000000000000         -1.8842192321685807     
  0.10410000000000001         -1.7365747166463548     
  0.10440000000000001         -1.5084609526497066     
  0.10470000000000000         -1.2078294378562118     
  0.10500000000000000        -0.84562728012062738     
  0.10530000000000000        -0.43522323457897932     
  0.10560000000000000          8.1893187796144296E-003
  0.10590000000000001         0.46835928571304991     
  0.10620000000000000         0.92874930574943615     
  0.10650000000000001          1.3731119353690271     
  0.10679999999999999          1.7859143832297493     
  0.10710000000000000          2.1529068479317983     
  0.10740000000000001          2.4615826062843364     
  0.10770000000000000          2.7013427605288101     
  0.10800000000000000          2.8637329879963467     
  0.10830000000000001          2.9426616941163197     
  0.10859999999999999          2.9344968103638425     
  0.10890000000000000          2.8381251604756037     
  0.10920000000000001          2.6550072967241567     
  0.10950000000000001          2.3890504227998095     
  0.10979999999999999          2.0464982444110458     
  0.11009999999999999          1.6358402510201182     
  0.11040000000000001          1.1676594855828224     
  0.11070000000000001         0.65427485705370081     
  0.11100000000000000         0.10926212763949052     
  0.11130000000000000        -0.45276844229591012     
  0.11160000000000002         -1.0164493154138337     
  0.11190000000000001         -1.5662185836691844     
  0.11220000000000001         -2.0867695363440339     
  0.11250000000000000         -2.5632645512731380     
  0.11280000000000000         -2.9816672118936043     
  0.11309999999999999         -3.3291088758103897     
  0.11340000000000001         -3.5942050562377821     
  0.11369999999999998         -3.7671882211154299     
  0.11400000000000000         -3.8399573841447081     
  0.11430000000000000         -3.8065504120146492     
  0.11460000000000002         -3.6635567269864606     
  0.11489999999999999         -3.4101890708534119     
  0.11520000000000001         -3.0485083336360979     
  0.11550000000000001         -2.5839018212904707     
  0.11580000000000000         -2.0255884647142253     
  0.11609999999999999         -1.3866877226842000     
  0.11640000000000002        -0.68419132925884796     
  0.11670000000000001          6.0973301749846512E-002
  0.11700000000000001         0.82431582931150560     
  0.11730000000000000          1.5786657001751372     
  0.11760000000000000          2.2950603474642555     
  0.11789999999999999          2.9438928929645676     
  0.11820000000000001          3.4965063776589691     
  0.11850000000000001          3.9268263925430031     
  0.11880000000000000          4.2129377406537047     
  0.11910000000000000          4.3384684568953276     
  0.11940000000000002          4.2938794141277672     
  0.11970000000000001          4.0773257294690266     
  0.12000000000000001          3.6949774372758180     
  0.12030000000000000          3.1610275953896831     
  0.12060000000000000          2.4970859866680328     
  0.12089999999999999          1.7311008709602991     
  0.12119999999999999         0.89610955257489089     
  0.12150000000000001          2.8752417888344362E-002
  0.12180000000000001        -0.83264922131624131     
  0.12210000000000000         -1.6499794434862358     
  0.12239999999999999         -2.3869277964843638     
  0.12270000000000002         -3.0105981200432557     
  0.12300000000000001         -3.4930371478327755     
  0.12330000000000001         -3.8125356768187006     
  0.12360000000000000         -3.9546190772150918     
  0.12390000000000000         -3.9127220170178170     
  0.12419999999999999         -3.6886781737244445     
  0.12450000000000001         -3.2927848457425388     
  0.12480000000000001         -2.7436086412524787     
  0.12509999999999999         -2.0674154193696035     
  0.12540000000000001         -1.2970516301829504     
  0.12570000000000003        -0.47043357545836906     
  0.12600000000000000         0.37117531455695274     
  0.12630000000000002          1.1852761246188968     
  0.12659999999999999          1.9305697214124491     
  0.12690000000000001          2.5693756887724311     
  0.12719999999999998          3.0698503654396285     
  0.12750000000000000          3.4079054887058122     
  0.12780000000000002          3.5688938137335060     
  0.12809999999999999          3.5486027229618711     
  0.12840000000000001          3.3533064397383114     
  0.12869999999999998          2.9991253975756695     
  0.12900000000000000          2.5107957619050802     
  0.12930000000000003          1.9199300473941379     
  0.12959999999999999          1.2627379555913498     
  0.12990000000000002         0.57725410333633032     
  0.13019999999999998         -9.9346212763182243E-002
  0.13050000000000000        -0.73303666907908693     
  0.13080000000000003         -1.2946722046457249     
  0.13109999999999999         -1.7615405896295002     
  0.13140000000000002         -2.1185361600230221     
  0.13169999999999998         -2.3581880701870994     
  0.13200000000000001         -2.4800075623240030     
  0.13229999999999997         -2.4896890258114426     
  0.13260000000000000         -2.3983315606088658     
  0.13290000000000002         -2.2211009722090695     
  0.13319999999999999         -1.9755954122474666     
  0.13350000000000001         -1.6805190559625227     
  0.13380000000000003         -1.3548329745108978     
  0.13410000000000000         -1.0170358261731298     
  0.13440000000000002        -0.68412971575718262     
  0.13469999999999999        -0.37091876717805972     
  0.13500000000000001         -8.9721218184784901E-002
  0.13529999999999998         0.14994043431461657     
  0.13560000000000000         0.34159241121201417     
  0.13590000000000002         0.48215029172786539     
  0.13619999999999999         0.57227004004950399     
  0.13650000000000001         0.61625439621515898     
  0.13680000000000003         0.62162656875036670     
  0.13710000000000000         0.59864088054113074     
  0.13740000000000002         0.55974051566740468     
  0.13769999999999999         0.51876221470362027     
  0.13800000000000001         0.48944919844570017     
  0.13829999999999998         0.48389447345758729     
  0.13860000000000000         0.51154948774982112     
  0.13890000000000002         0.57819374537984103     
  0.13919999999999999         0.68483933271645880     
  0.13950000000000001         0.82716598564382671     
  0.13979999999999998         0.99563302712242963     
  0.14010000000000000          1.1762063650680554     
  0.14040000000000002          1.3512656749955807     
  0.14069999999999999          1.5009149272777067     
  0.14100000000000001          1.6049345584312287     
  0.14130000000000004          1.6447512853403252     
  0.14160000000000000          1.6051014323659225     
  0.14189999999999997          1.4756092622555403     
  0.14219999999999999          1.2522787611385571     
  0.14250000000000002         0.93833829588655493     
  0.14279999999999998         0.54426427708350900     
  0.14310000000000000          8.7361616793202299E-002
  0.14339999999999997        -0.40880861008729741     
  0.14369999999999999        -0.91584266015393234     
  0.14400000000000002         -1.4026926686199119     
  0.14429999999999998         -1.8377587573645733     
  0.14460000000000001         -2.1909155480304841     
  0.14490000000000003         -2.4359404551686756     
  0.14520000000000000         -2.5527173890698727     
  0.14550000000000002         -2.5289840062298845     
  0.14579999999999999         -2.3617133449416814     
  0.14610000000000001         -2.0577148784459602     
  0.14640000000000003         -1.6335133982510022     
  0.14670000000000000         -1.1147257879932500     
  0.14699999999999996        -0.53473458174557975     
  0.14729999999999999          6.7763604793263960E-002
  0.14760000000000001         0.65176009198300522     
  0.14789999999999998          1.1768182260340452     
  0.14820000000000000          1.6059026324807733     