  -1.4999999999999999E-002     0.0000000000000000     
  -1.4700000000000000E-002     0.0000000000000000     
  -1.4400000000000000E-002     0.0000000000000000     
  -1.4100000000000000E-002     0.0000000000000000     
  -1.3800000000000000E-002     0.0000000000000000     
  -1.3500000000000000E-002     0.0000000000000000     
  -1.3200000000000000E-002     0.0000000000000000     
  -1.2899999999999998E-002     0.0000000000000000     
  -1.2600000000000000E-002     0.0000000000000000     
  -1.2299999999999998E-002     0.0000000000000000     
  -1.2000000000000000E-002     0.0000000000000000     
  -1.1699999999999999E-002     0.0000000000000000     
  -1.1399999999999999E-002     0.0000000000000000     
  -1.1099999999999999E-002     0.0000000000000000     
  -1.0799999999999999E-002     0.0000000000000000     
  -1.0499999999999999E-002     0.0000000000000000     
  -1.0199999999999999E-002     0.0000000000000000     
  -9.8999999999999991E-003     0.0000000000000000     
  -9.5999999999999992E-003     0.0000000000000000     
  -9.2999999999999992E-003     0.0000000000000000     
  -8.9999999999999993E-003     0.0000000000000000     
  -8.6999999999999994E-003     0.0000000000000000     
  -8.3999999999999995E-003     0.0000000000000000     
  -8.0999999999999996E-003     0.0000000000000000     
  -7.7999999999999988E-003     0.0000000000000000     
  -7.4999999999999997E-003     0.0000000000000000     
  -7.1999999999999998E-003     0.0000000000000000     
  -6.8999999999999981E-003     0.0000000000000000     
  -6.5999999999999982E-003     0.0000000000000000     
  -6.3000000000000000E-003     0.0000000000000000     
  -6.0000000000000001E-003    -1.9688285602034857E-042
  -5.6999999999999985E-003     1.5231952105073265E-038
  -5.3999999999999986E-003    -1.2633535652150051E-037
  -5.1000000000000004E-003    -1.1723479001789240E-036
  -4.7999999999999987E-003     1.9578272657581137E-035
  -4.5000000000000005E-003    -1.3959509045941485E-034
  -4.1999999999999989E-003     2.3648517852926094E-034
  -3.8999999999999990E-003     5.9563121135051585E-034
  -3.5999999999999990E-003    -5.9118461647082868E-033
  -3.2999999999999991E-003     1.6407530029816595E-032
  -2.9999999999999992E-003    -1.9492461214755221E-032
  -2.6999999999999993E-003     3.5547535791044778E-032
  -2.3999999999999994E-003    -2.7852130357307819E-031
  -2.0999999999999977E-003     1.1447624122219202E-030
  -1.7999999999999995E-003    -2.1811986827747746E-030
  -1.4999999999999979E-003     1.5532744178344417E-032
  -1.1999999999999997E-003     1.1950350967741414E-029
  -8.9999999999999976E-004    -4.3363474845500792E-029
  -5.9999999999999810E-004     1.2662687787947894E-028
  -2.9999999999999992E-004    -3.7805835731272972E-028
   0.0000000000000000          1.0388913285268772E-027
   3.0000000000000165E-004    -2.2304936957079466E-027
   5.9999999999999984E-004     2.9905311124418013E-027
   9.0000000000000149E-004     4.4650509482562422E-030
   1.2000000000000031E-003    -9.9517146549698690E-027
   1.5000000000000013E-003     1.3693986436248625E-026
   1.8000000000000030E-003     5.8809615212367101E-026
   2.1000000000000012E-003    -3.9037645612283256E-025
   2.3999999999999994E-003     1.2819289848870094E-024
   2.7000000000000010E-003    -3.0083519419923496E-024
   2.9999999999999992E-003     5.9377146398074164E-024
   3.3000000000000008E-003    -1.3710764695566253E-023
   3.6000000000000025E-003     4.5289213022929351E-023
   3.9000000000000007E-003    -1.4301854177184416E-022
   4.2000000000000023E-003     2.3255833457920796E-022
   4.5000000000000005E-003     7.6531453995942357E-022
   4.7999999999999987E-003    -8.2076124589150311E-021
   5.1000000000000004E-003     4.0564086226092399E-020
   5.4000000000000020E-003    -1.4837886705336759E-019
   5.7000000000000037E-003     4.5064914573889246E-019
   5.9999999999999984E-003    -1.2191138661260774E-018
   6.3000000000000000E-003     3.1796036466246337E-018
   6.6000000000000017E-003    -8.8157778299550666E-018
   6.9000000000000034E-003     2.7747115949623642E-017
   7.2000000000000015E-003    -9.6497480182191346E-017
   7.5000000000000032E-003     3.4056136225610808E-016
   7.8000000000000014E-003    -1.1180078494090337E-015
   8.0999999999999996E-003     3.0588350369134779E-015
   8.4000000000000012E-003    -4.9109213531323579E-015
   8.7000000000000029E-003    -1.2818795744422324E-014
   9.0000000000000011E-003     1.6717462094242098E-013
   9.2999999999999992E-003    -9.4619217199358407E-013
   9.6000000000000009E-003     3.7764155803473519E-012
   9.8999999999999991E-003    -1.0778401139880570E-011
   1.0200000000000001E-002     1.7385033239748452E-011
   1.0500000000000002E-002     1.6553505800297208E-011
   1.0800000000000004E-002    -2.0631485188994519E-010
   1.1099999999999999E-002     6.1636547737781754E-010
   1.1400000000000000E-002    -5.5968061940493169E-010
   1.1700000000000002E-002    -2.1867312923136036E-009
   1.2000000000000004E-002     8.0383016100241609E-009
   1.2300000000000002E-002    -3.9741659856552428E-009
   1.2600000000000000E-002    -3.1090205567056356E-008
   1.2900000000000002E-002     5.0932550102033125E-008
   1.3200000000000000E-002     8.3109472939906614E-008
   1.3500000000000002E-002    -2.3109693076328985E-007
   1.3800000000000003E-002    -2.9654102335147673E-007
   1.4100000000000001E-002     6.3805187011609654E-007
   1.4400000000000000E-002     1.1123068640547527E-006
   1.4700000000000001E-002    -1.1625992775957807E-006
   1.4999999999999999E-002    -3.6401947116925006E-006
   1.5300000000000001E-002     1.4933084143481784E-006
   1.5600000000000003E-002     1.7693495365503532E-005
   1.5899999999999997E-002     3.7490014442884702E-005
   1.6199999999999999E-002     5.2836463778610507E-005
   1.6500000000000001E-002     7.0949856291194772E-005
   1.6800000000000002E-002     1.1182413434941129E-004
   1.7100000000000004E-002     1.8892360371713379E-004
   1.7400000000000006E-002     3.0170624896505181E-004
   1.7700000000000000E-002     4.5442004947291587E-004
   1.8000000000000002E-002     6.7663253627307232E-004
   1.8300000000000004E-002     1.0161598174884671E-003
   1.8600000000000005E-002     1.5170632111279263E-003
   1.8900000000000000E-002     2.2203707848669095E-003
   1.9200000000000002E-002     3.1903316870235433E-003
   1.9500000000000003E-002     4.5275457500969420E-003
   1.9799999999999998E-002     6.3510477169967054E-003
   2.0100000000000000E-002     8.7805075661007304E-003
   2.0400000000000001E-002     1.1945427291168214E-002
   2.0700000000000003E-002     1.5999718260035642E-002
   2.0999999999999998E-002     2.1108124323990129E-002
   2.1299999999999999E-002     2.7412184818682156E-002
   2.1600000000000001E-002     3.5008776437437966E-002
   2.1900000000000003E-002     4.3939356851870351E-002
   2.2200000000000004E-002     5.4165743329332203E-002
   2.2500000000000006E-002     6.5523964982375144E-002
   2.2800000000000001E-002     7.7679852939765620E-002
   2.3100000000000002E-002     9.0103045398487083E-002
   2.3400000000000004E-002    0.10205183124569504     
   2.3699999999999999E-002    0.11255034850367809     
   2.4000000000000000E-002    0.12039024172112606     
   2.4300000000000002E-002    0.12416816338767070     
   2.4599999999999997E-002    0.12234686296216135     
   2.4900000000000005E-002    0.11335197619891771     
   2.5200000000000000E-002     9.5693245015919984E-002
   2.5499999999999995E-002     6.8116818953492864E-002
   2.5800000000000003E-002     2.9778702933679166E-002
   2.6099999999999998E-002    -1.9593080815924653E-002
   2.6400000000000007E-002    -7.9525949334754945E-002
   2.6700000000000002E-002   -0.14867925917094882     
   2.6999999999999996E-002   -0.22478651120754684     
   2.7300000000000005E-002   -0.30466339536236264     
   2.7600000000000000E-002   -0.38431029643108883     
   2.7900000000000008E-002   -0.45908538741237881     
   2.8200000000000003E-002   -0.52398197796115831     
   2.8499999999999998E-002   -0.57400035706337738     
   2.8800000000000006E-002   -0.60455422173140738     
   2.9100000000000001E-002   -0.61187806341006157     
   2.9400000000000003E-002   -0.59340623896482492     
   2.9700000000000004E-002   -0.54809198504622980     
   3.0000000000000006E-002   -0.47666169406764469     
   3.0300000000000001E-002   -0.38166207800266183     
   3.0600000000000002E-002   -0.26736721387751605     
   3.0900000000000004E-002   -0.13955738193572867     
   3.1199999999999999E-002    -5.1383907354446146E-003
   3.1500000000000007E-002    0.12830127617582152     
   3.1800000000000002E-002    0.25303246744870722     
   3.2099999999999997E-002    0.36186154645621615     
   3.2400000000000005E-002    0.44859308602052383     
   3.2700000000000000E-002    0.50848467615826498     
   3.3000000000000002E-002    0.53858746388206236     
   3.3300000000000003E-002    0.53788129815375585     
   3.3599999999999998E-002    0.50736405742812984     
   3.3900000000000000E-002    0.45002693222432755     
   3.4200000000000001E-002    0.37053085964509636     
   3.4500000000000003E-002    0.27486450887854430     
   3.4799999999999998E-002    0.16997820015391790     
   3.5099999999999999E-002     6.3330325356477368E-002
   3.5400000000000001E-002    -3.7445677115476896E-002
   3.5699999999999996E-002   -0.12501493836347327     
   3.6000000000000004E-002   -0.19281278842242455     
   3.6299999999999999E-002   -0.23524543880151155     
   3.6600000000000008E-002   -0.24800902519112134     
   3.6900000000000002E-002   -0.22827759835537459     
   3.7199999999999997E-002   -0.17494026427427717     
   3.7500000000000006E-002    -8.8754131050569535E-002
   3.7800000000000000E-002     2.7739022281963954E-002
   3.8100000000000009E-002    0.17023291463794421     
   3.8400000000000004E-002    0.33262027789856530     
   3.8699999999999998E-002    0.50720925112677651     
   3.9000000000000007E-002    0.68509627368974813     
   3.9300000000000002E-002    0.85647326328142448     
   3.9600000000000003E-002     1.0110861704244094     
   3.9900000000000005E-002     1.1386420435442020     
   4.0200000000000000E-002     1.2293806916630141     
   4.0500000000000001E-002     1.2747602177342028     
   4.0800000000000003E-002     1.2679330690898440     
   4.1100000000000005E-002     1.2042979741971027     
   4.1399999999999999E-002     1.0819237308706284     
   4.1700000000000008E-002    0.90185798684669605     
   4.2000000000000003E-002    0.66852179089183883     
   4.2299999999999997E-002    0.38970850153508330     
   4.2600000000000006E-002     7.6397920775358841E-002
   4.2900000000000001E-002   -0.25754421650982795     
   4.3200000000000002E-002   -0.59588783595364148     
   4.3500000000000004E-002   -0.92073275039159452     
   4.3799999999999999E-002    -1.2134722376126232     
   4.4100000000000000E-002    -1.4560924077213608     
   4.4400000000000002E-002    -1.6322791190252033     
   4.4700000000000004E-002    -1.7285158077213887     
   4.4999999999999998E-002    -1.7351577471624087     
   4.5300000000000000E-002    -1.6475490322381410     
   4.5600000000000002E-002    -1.4667522273982940     
   4.5899999999999996E-002    -1.1995968758870781     
   4.6200000000000005E-002   -0.85854664687187954     
   4.6500000000000000E-002   -0.46124002279044796     
   4.6799999999999994E-002    -2.9591595265598430E-002
   4.7100000000000003E-002    0.41169895741910684     
   4.7399999999999998E-002    0.83671122811578991     
   4.7700000000000006E-002     1.2199458970968144     
   4.8000000000000001E-002     1.5381097421158305     
   4.8300000000000010E-002     1.7715777505032266     
   4.8600000000000004E-002     1.9055582733296226     
   4.8899999999999999E-002     1.9310442368078093     
   4.9200000000000008E-002     1.8453882609407932     
   4.9500000000000002E-002     1.6521231264275669     
   4.9800000000000011E-002     1.3605247893355619     
   5.0100000000000006E-002    0.98483906668010635     
   5.0400000000000000E-002    0.54324552441820528     
   5.0700000000000009E-002     5.6615414472515960E-002
   5.1000000000000004E-002   -0.45309006842065574     
   5.1299999999999998E-002   -0.96372358182627349     
   5.1600000000000007E-002    -1.4543467688799121     
   5.1900000000000002E-002    -1.9063241257877266     
   5.2200000000000010E-002    -2.3036601867068800     
   5.2500000000000005E-002    -2.6335302468855994     
   5.2800000000000000E-002    -2.8864734387229785     
   5.3099999999999994E-002    -3.0562400006333621     
   5.3400000000000003E-002    -3.1393224798764878     
   5.3699999999999998E-002    -3.1343079912392415     
   5.4000000000000006E-002    -3.0416131772877129     
   5.4300000000000001E-002    -2.8630949354376103     
   5.4599999999999996E-002    -2.6012544834581446     
   5.4900000000000004E-002    -2.2591846478508284     
   5.5199999999999999E-002    -1.8408148289804895     
   5.5499999999999994E-002    -1.3511143413735378     
   5.5800000000000002E-002   -0.79628555522033073     
   5.6099999999999997E-002   -0.18440773631266516     
   5.6400000000000006E-002    0.47366291806775979     
   5.6700000000000000E-002     1.1637309484139196     
   5.6999999999999995E-002     1.8680280381088363     
   5.7300000000000004E-002     2.5649800521559238     
   5.7599999999999998E-002     3.2293338019809683     
   5.7900000000000007E-002     3.8328524106914417     
   5.8200000000000002E-002     4.3452667961333376     
   5.8499999999999996E-002     4.7357066593456629     
   5.8800000000000005E-002     4.9745761128608095     
   5.9100000000000000E-002     5.0357817096386857     
   5.9400000000000008E-002     4.8987046736377442     
   5.9700000000000003E-002     4.5503177403990742     
   6.0000000000000012E-002     3.9874590932260610     
   6.0300000000000006E-002     3.2183177822408084     
   6.0600000000000001E-002     2.2631680167053019     
   6.0900000000000010E-002     1.1546391078322349     
   6.1200000000000004E-002    -6.2660493381795246E-002
   6.1500000000000013E-002    -1.3337833991102155     
   6.1800000000000008E-002    -2.5964843012359156     
   6.2100000000000002E-002    -3.7842474784107605     
   6.2399999999999997E-002    -4.8300073186181001     
   6.2700000000000006E-002    -5.6711345529763708     
   6.3000000000000000E-002    -6.2535266894836052     
   6.3300000000000009E-002    -6.5357196924722292     
   6.3600000000000004E-002    -6.4925378435671117     
   6.3899999999999998E-002    -6.1174200423116538     
   6.4199999999999993E-002    -5.4238935674677853     
   6.4500000000000002E-002    -4.4450530703726594     
   6.4800000000000010E-002    -3.2318586007334758     
   6.5100000000000005E-002    -1.8507681956414972     
   6.5400000000000000E-002   -0.37939783919178938     
   6.5700000000000008E-002     1.0985979782650224     
   6.5999999999999989E-002     2.4985102882820156     
   6.6299999999999998E-002     3.7402943502614621     
   6.6600000000000006E-002     4.7532517570442412     
   6.6900000000000001E-002     5.4804877403412657     
   6.7199999999999996E-002     5.8829270737467887     
   6.7500000000000004E-002     5.9412668541681759     
   6.7800000000000013E-002     5.6569851250484096     
   6.8099999999999994E-002     5.0524936272913870     
   6.8400000000000002E-002     4.1692718138727916     
   6.8700000000000011E-002     3.0653172516247569     
   6.8999999999999992E-002     1.8117899200468193     
   6.9300000000000000E-002    0.48783883374740489     
   6.9600000000000009E-002   -0.82439047501200924     
   6.9900000000000004E-002    -2.0448081401983815     
   7.0199999999999999E-002    -3.1009048686381577     
   7.0500000000000007E-002    -3.9322963575537297     
   7.0800000000000016E-002    -4.4949753001282602     
   7.1099999999999997E-002    -4.7640553848424885     
   7.1400000000000005E-002    -4.7342652075583675     
   7.1700000000000000E-002    -4.4203865804320763     
   7.1999999999999995E-002    -3.8556422610586552     
   7.2300000000000003E-002    -3.0877871036238895     
   7.2600000000000012E-002    -2.1750799651349646     
   7.2900000000000006E-002    -1.1810232282869717     
   7.3200000000000001E-002   -0.16907443402785760     
   7.3499999999999996E-002    0.80207531917657737     
   7.3800000000000004E-002     1.6834597471621915     
   7.4099999999999999E-002     2.4387934926768997     
   7.4400000000000008E-002     3.0454320242478596     
   7.4700000000000003E-002     3.4952920543663497     
   7.5000000000000011E-002     3.7935525356309601     
   7.5299999999999992E-002     3.9555156998003769     
   7.5600000000000001E-002     4.0034965691089530     
   7.5900000000000009E-002     3.9629962556940690     
   7.6200000000000004E-002     3.8592470175102980     
   7.6499999999999999E-002     3.7143324118978978     
   7.6800000000000007E-002     3.5443052960083823     
   7.7099999999999988E-002     3.3584022182643078     
   7.7399999999999997E-002     3.1596460508285729     
   7.7700000000000005E-002     2.9456581406343503     
   7.8000000000000014E-002     2.7106050606015883     
   7.8299999999999995E-002     2.4474306700182247     
   7.8600000000000003E-002     2.1500156546603959     
   7.8900000000000012E-002     1.8158580621619378     
   7.9199999999999993E-002     1.4470744657279377     
   7.9500000000000001E-002     1.0503191561292207     
   7.9800000000000010E-002    0.63691362196531831     
   8.0100000000000018E-002    0.22161679125557859     
   8.0399999999999999E-002   -0.17928390035275421     
   8.0700000000000008E-002   -0.54993966447187759     
   8.1000000000000003E-002   -0.87774729333588219     
   8.1299999999999997E-002    -1.1552515765233560     
   8.1600000000000006E-002    -1.3807765147264757     
   8.1900000000000014E-002    -1.5598751376189863     
   8.2199999999999995E-002    -1.7054437183135520     
   8.2500000000000004E-002    -1.8365173805963879     
   8.2799999999999999E-002    -1.9769269895989265     
   8.3100000000000007E-002    -2.1532674169308152     
   8.3400000000000002E-002    -2.3924295420471973     
   8.3700000000000011E-002    -2.7190834181101744     
   8.4000000000000005E-002    -3.1527203586688519     
   8.4300000000000000E-002    -3.7051441228239770     
   8.4599999999999995E-002    -4.3787174738294468     
   8.4900000000000003E-002    -5.1638675161262171     
   8.5199999999999998E-002    -6.0378282062705608     
   8.5500000000000007E-002    -6.9654892224450382     
   8.5800000000000001E-002    -7.8994833972742100     
   8.6100000000000010E-002    -8.7809363256210862     
   8.6399999999999991E-002    -9.5429615301649697     
   8.6699999999999999E-002    -10.114572138766221     
   8.7000000000000008E-002    -10.425175845837623     
   8.7300000000000003E-002    -10.409655919502210     
   8.7599999999999997E-002    -10.013286122289056     
   8.7900000000000006E-002    -9.1979151660272471     
   8.8200000000000014E-002    -7.9468282324930364     
   8.8499999999999995E-002    -6.2673704385184230     
   8.8800000000000004E-002    -4.1932975813778768     
   8.9100000000000013E-002    -1.7850289078056663     
   8.9399999999999993E-002    0.87276687626647764     
   8.9700000000000002E-002     3.6744576225086858     
   9.0000000000000011E-002     6.4997123673051469     
   9.0299999999999991E-002     9.2212947309195457     
   9.0600000000000000E-002     11.712384412836705     
   9.0900000000000009E-002     13.855099673247825     
   9.1200000000000017E-002     15.548132558877384     
   9.1499999999999998E-002     16.713546435941915     
   9.1800000000000007E-002     17.301892886105840     
   9.2100000000000001E-002     17.293734276116524     
   9.2399999999999996E-002     16.700737679661799     
   9.2700000000000005E-002     15.563510725764168     
   9.3000000000000013E-002     13.947207215992163     
   9.3300000000000008E-002     11.936718472645722     
   9.3600000000000003E-002     9.6294031548045389     
   9.3899999999999997E-002     7.1278199589403073     
   9.4200000000000006E-002     4.5344409980337428     
   9.4500000000000001E-002     1.9457608935548412     
   9.4800000000000009E-002   -0.55139000083855172     
   9.5100000000000004E-002    -2.8825312715664770     
   9.5399999999999999E-002    -4.9869405311247155     
   9.5699999999999993E-002    -6.8169439099334115     
   9.6000000000000002E-002    -8.3359773018942835     
   9.6300000000000011E-002    -9.5178545803838190     
   9.6600000000000005E-002    -10.345650004853697     
   9.6900000000000000E-002    -10.809648909178614     
   9.7200000000000009E-002    -10.907700122357943     
   9.7499999999999989E-002    -10.645028470353669     
   9.7799999999999998E-002    -10.035584508678060     
   9.8100000000000007E-002    -9.1044805271121749     
   9.8400000000000015E-002    -7.8881773050755424     
   9.8699999999999996E-002    -6.4356021999779918     
   9.9000000000000005E-002    -4.8085945079507688     
   9.9300000000000013E-002    -3.0800870043761721     
   9.9599999999999994E-002    -1.3320873867443175     
   9.9900000000000003E-002    0.34843055912479970     
  0.10020000000000001          1.8754560011180295     
  0.10049999999999999          3.1687698045351187     
  0.10080000000000000          4.1605754587488777     
  0.10110000000000001          4.8006377238302687     
  0.10140000000000000          5.0598992226810111     
  0.10170000000000000          4.9347898892812552     
  0.10200000000000001          4.4479382397759242     
  0.10230000000000002          3.6457965715965690     
  0.10260000000000000          2.5960330245987171     
  0.10290000000000001          1.3831904282271938     
  0.10320000000000000         0.10229038412989921     
  0.10350000000000001         -1.1482112484907989     
  0.10380000000000000         -2.2747349287266898     
  0.10410000000000001         -3.1948276378551346     
  0.10440000000000001         -3.8420603204466648     
  0.10470000000000000         -4.1721601167527069     
  0.10500000000000000         -4.1655159278848499     
  0.10530000000000000         -3.8273843191266979     
  0.10560000000000000         -3.1876660416324092     
  0.10590000000000001         -2.2973208105074443     
  0.10620000000000000         -1.2238924715668991     
  0.10650000000000001         -4.6883309719414401E-002
  0.10679999999999999          1.1493226125419165     
  0.10710000000000000          2.2820431590583397     
  0.10740000000000001          3.2760413114341951     
  0.10770000000000000          4.0693873245874785     
  0.10800000000000000          4.6167373992058378     
  0.10830000000000001          4.8923264281871672     
  0.10859999999999999          4.8917526531948194     
  0.10890000000000000          4.6302766084459677     
  0.10920000000000001          4.1409917269760959     
  0.10950000000000001          3.4717666777703275     
  0.10979999999999999          2.6798236048101822     
  0.11009999999999999          1.8276050263613710     
  0.11040000000000001         0.97755566260047733     
  0.11070000000000001         0.18588957406827417     
  0.11100000000000000        -0.50003796315516891     
  0.11130000000000000         -1.0453063099040640     
  0.11160000000000002         -1.4303684295920762     
  0.11190000000000001         -1.6500211551357720     
  0.11220000000000001         -1.7136324638443825     
  0.11250000000000000         -1.6437972639757148     
  0.11280000000000000         -1.4723001013607679     
  0.11309999999999999         -1.2366092760628400     
  0.11340000000000001        -0.97604315643280781     
  0.11369999999999998        -0.72877674385219293     
  0.11400000000000000        -0.52841349326524045     
  0.11430000000000000        -0.39909944360941091     
  0.11460000000000002        -0.35546601063761135     
  0.11489999999999999        -0.40357647633523519     
  0.11520000000000001        -0.53823803995503672     
  0.11550000000000001        -0.74480917250687795     
  0.11580000000000000         -1.0032701387100245     
  0.11609999999999999         -1.2887529678777274     
  0.11640000000000002         -1.5741856768056586     
  0.11670000000000001         -1.8343542338612271     
  0.11700000000000001         -2.0473670044063121     
  0.11730000000000000         -2.1962641226307626     
  0.11760000000000000         -2.2697042110203425     
  0.11789999999999999         -2.2631734518339970     
  0.11820000000000001         -2.1798211955974760     
  0.11850000000000001         -2.0272671523820276     
  0.11880000000000000         -1.8169915082948029     
  0.11910000000000000         -1.5649811434154237     
  0.11940000000000002         -1.2876482584243070     
  0.11970000000000001         -1.0007657652337447     
  0.12000000000000001        -0.71967445387815809     
  0.12030000000000000        -0.45596583406874414     
  0.12060000000000000        -0.21807877144770843     
  0.12089999999999999         -1.1680571377693350E-002
  0.12119999999999999         0.16184129603267461     
  0.12150000000000001         0.30400695913085407     
  0.12180000000000001         0.41954792064104823     
  0.12210000000000000         0.51529960146544851     
  0.12239999999999999         0.59752685473228428     
  0.12270000000000002         0.67348499538893436     
  0.12300000000000001         0.74998680169232135     
  0.12330000000000001         0.83104964886040955     
  0.12360000000000000         0.91971813916098921     
  0.12390000000000000          1.0168322689562468     
  0.12419999999999999          1.1203213011467510     
  0.12450000000000001          1.2274357496641093     
  0.12480000000000001          1.3336932732830311     
  0.12509999999999999          1.4335248915003052     
  0.12540000000000001          1.5225211593342349     
  0.12570000000000003          1.5963061677359491     
  0.12600000000000000          1.6518250432525254     
  0.12630000000000002          1.6881364477964087     
  0.12659999999999999          1.7047014360910095     
  0.12690000000000001          1.7032072311595818     
  0.12719999999999998          1.6867955350045605     
  0.12750000000000000          1.6581691252163924     
  0.12780000000000002          1.6213833920246068     
  0.12809999999999999          1.5803473628871574     
  0.12840000000000001          1.5376114600689426     
  0.12869999999999998          1.4960604068042849     
  0.12900000000000000          1.4568639015194660     
  0.12930000000000003          1.4200098587369647     
  0.12959999999999999          1.3856924362372403     
  0.12990000000000002          1.3516697638129860     
  0.13019999999999998          1.3148833863242471     
  0.13050000000000000          1.2725529116417551     
  0.13080000000000003          1.2198452807916520     
  0.13109999999999999          1.1523339443375251     
  0.13140000000000002          1.0666086230532783     
  0.13169999999999998         0.95925208816119700     
  0.13200000000000001         0.82923765230412627     
  0.13229999999999997         0.67746596627913225     
  0.13260000000000000         0.50735924324723192     
  0.13290000000000002         0.32576242545175177     
  0.13319999999999999         0.14045236682093970     
  0.13350000000000001         -3.9016231953369965E-002
  0.13380000000000003        -0.20185397435075444     
  0.13410000000000000        -0.34050683443260377     
  0.13440000000000002        -0.45038662543770969     
  0.13469999999999999        -0.53022841193763759     
  0.13500000000000001        -0.58496945206764805     
  0.13529999999999998        -0.62449101229522586     
  0.13560000000000000        -0.66300937268518723     
  0.13590000000000002        -0.71782099893318674     
  0.13619999999999999        -0.80570953572712245     
  0.13650000000000001        -0.94135165695979661     
  0.13680000000000003         -1.1346612749172098     
  0.13710000000000000         -1.3876986814285464     
  0.13740000000000002         -1.6951308041540325     
  0.13769999999999999         -2.0437413237382929     
  0.13800000000000001         -2.4132586212879561     
  0.13829999999999998         -2.7810856094821266     
  0.13860000000000000         -3.1243149892489059     
  0.13890000000000002         -3.4226487887166375     
  0.13919999999999999         -3.6638804491067622     
  0.13950000000000001         -3.8454576106621854     
  0.13979999999999998         -3.9742671939828940     
  0.14010000000000000         -4.0665537994914462     
  0.14040000000000002         -4.1446882773964457     
  0.14069999999999999         -4.2332589703797137     
  0.14100000000000001         -4.3540075204033002     
  0.14130000000000004         -4.5195425435599441     
  0.14160000000000000         -4.7300183816839532     
  0.14189999999999997         -4.9702851137171953     
  0.14219999999999999         -5.2078139426471610     
  0.14250000000000002         -5.3965384277802633     
  0.14279999999999998         -5.4811630929198802     
  0.14310000000000000         -5.4015673264212953     
  0.14339999999999997         -5.1037876985109909     
  0.14369999999999999         -4.5473526461405429     
  0.14400000000000002         -3.7114131270625554     
  0.14429999999999998         -2.6020147286932458     
  0.14460000000000001         -1.2531391340363220     
  0.14490000000000003         0.27509319968079693     
  0.14520000000000000          1.9011583531530416     
  0.14550000000000002          3.5316329194336826     
  0.14579999999999999          5.0715343779822941     
  0.14610000000000001          6.4374998858205146     
  0.14640000000000003          7.5710878983796235     
  0.14670000000000000          8.4454754443433782     
  0.14699999999999996          9.0717559775228160     
  0.14729999999999999          9.5012086117552741     
  0.14760000000000001          9.8179062631115332     
  0.14789999999999998          10.127589813488576     
  0.14820000000000000          10.543026648594017     