  -1.4999999999999999E-002     0.0000000000000000     
  -1.4700000000000000E-002    -2.7044159351510814E-018
  -1.4400000000000000E-002    -2.9360614392959089E-015
  -1.4100000000000000E-002    -4.5305323820094743E-014
  -1.3800000000000000E-002     4.2658439032421382E-013
  -1.3500000000000000E-002     1.7704528531260947E-012
  -1.3200000000000000E-002    -4.5295734302329372E-012
  -1.2899999999999998E-002    -2.0418855302572494E-011
  -1.2600000000000000E-002    -3.1323155079477090E-011
  -1.2299999999999998E-002     1.2739448441443420E-010
  -1.2000000000000000E-002     3.9055321068012417E-010
  -1.1699999999999999E-002    -3.7516529554566436E-011
  -1.1399999999999999E-002    -1.7390818688525078E-009
  -1.1099999999999999E-002    -2.9184709319269821E-009
  -1.0799999999999999E-002     4.0539776183456142E-009
  -1.0499999999999999E-002     1.3109497147568197E-008
  -1.0199999999999999E-002    -1.1055903758904631E-009
  -9.8999999999999991E-003    -2.5937639452678866E-008
  -9.5999999999999992E-003    -1.5561865141736773E-008
  -9.2999999999999992E-003     1.8095162276714020E-008
  -8.9999999999999993E-003     1.9331802075768623E-008
  -8.6999999999999994E-003     1.3109224232761657E-008
  -8.3999999999999995E-003     5.8408711223229492E-008
  -8.0999999999999996E-003     1.6435711171732369E-008
  -7.7999999999999988E-003    -1.6852928226899273E-007
  -7.4999999999999997E-003    -1.6192149198328520E-007
  -7.1999999999999998E-003     4.1928988145491111E-008
  -6.8999999999999981E-003     1.7861610993524948E-007
  -6.5999999999999982E-003     2.6540418916666393E-007
  -6.3000000000000000E-003     2.2229224489006805E-007
  -6.0000000000000001E-003     1.6174785527489197E-009
  -5.6999999999999985E-003    -4.6717689598781246E-007
  -5.3999999999999986E-003    -6.7399602211388051E-007
  -5.1000000000000004E-003    -4.8103281875243596E-007
  -4.7999999999999987E-003    -9.9003604272629891E-007
  -4.5000000000000005E-003     6.4928368884722330E-007
  -4.1999999999999989E-003     6.6603688821974436E-006
  -3.8999999999999990E-003     7.2582643501925205E-006
  -3.5999999999999990E-003    -8.5957147033955968E-006
  -3.2999999999999991E-003    -2.7253720725131382E-005
  -2.9999999999999992E-003    -1.9285535113406361E-006
  -2.6999999999999993E-003     1.1938138657239603E-004
  -2.3999999999999994E-003     3.5307872192376903E-004
  -2.0999999999999977E-003     6.6466937395524958E-004
  -1.7999999999999995E-003     9.9908226705926542E-004
  -1.4999999999999979E-003     1.3753248771659538E-003
  -1.1999999999999997E-003     1.9531238120747973E-003
  -8.9999999999999976E-004     2.9566258543484922E-003
  -5.9999999999999810E-004     4.5867925273483821E-003
  -2.9999999999999992E-004     7.0266963345984894E-003
   0.0000000000000000          1.0504701726069711E-002
   3.0000000000000165E-004     1.5406988856620452E-002
   5.9999999999999984E-004     2.2311686615245796E-002
   9.0000000000000149E-004     3.1927204637180996E-002
   1.2000000000000031E-003     4.5024318274075562E-002
   1.5000000000000013E-003     6.2405293208459806E-002
   1.8000000000000030E-003     8.4968205877713920E-002
   2.1000000000000012E-003    0.11372889045094721     
   2.3999999999999994E-003    0.14965149072034384     
   2.7000000000000010E-003    0.19339809532240648     
   2.9999999999999992E-003    0.24511239638418503     
   3.3000000000000008E-003    0.30417241709693194     
   3.6000000000000025E-003    0.36885348028228260     
   3.9000000000000007E-003    0.43605352142822590     
   4.2000000000000023E-003    0.50102992576064498     
   4.5000000000000005E-003    0.55697358916502748     
   4.7999999999999987E-003    0.59477074951186681     
   5.1000000000000004E-003    0.60302105500243364     
   5.4000000000000020E-003    0.56822121735647158     
   5.7000000000000037E-003    0.47527981706212707     
   5.9999999999999984E-003    0.30873474088681785     
   6.3000000000000000E-003     5.4182390276110506E-002
   6.6000000000000017E-003   -0.30012054699018803     
   6.9000000000000034E-003   -0.76133274545021823     
   7.2000000000000015E-003    -1.3296798165395458     
   7.5000000000000032E-003    -1.9961614460637156     
   7.8000000000000014E-003    -2.7408769139458729     
   8.0999999999999996E-003    -3.5315249983555672     
   8.4000000000000012E-003    -4.3231127241519971     
   8.7000000000000029E-003    -5.0591387292907406     
   9.0000000000000011E-003    -5.6737589009508920     
   9.2999999999999992E-003    -6.0955020522112253     
   9.6000000000000009E-003    -6.2525805629420814     
   9.8999999999999991E-003    -6.0791070002632468     
   1.0200000000000001E-002    -5.5221199140519435     
   1.0500000000000002E-002    -4.5486008789423167     
   1.0800000000000004E-002    -3.1512218040318118     
   1.1099999999999999E-002    -1.3538279957877284     
   1.1400000000000000E-002    0.78660285436530630     
   1.1700000000000002E-002     3.1798085101292544     
   1.2000000000000004E-002     5.7054122758743260     
   1.2300000000000002E-002     8.2191978738987412     
   1.2600000000000000E-002     10.561705221600311     
   1.2900000000000002E-002     12.568980374636517     
   1.3200000000000000E-002     14.085676547557579     
   1.3500000000000002E-002     14.976601112731458     
   1.3800000000000003E-002     15.138770993361618     
   1.4100000000000001E-002     14.511185733739921     
   1.4400000000000000E-002     13.081547549652150     
   1.4700000000000001E-002     10.890360843121732     
   1.4999999999999999E-002     8.0298856591006587     
   1.5300000000000001E-002     4.6408594902557825     
   1.5600000000000003E-002    0.90498016285533289     
   1.5899999999999997E-002    -2.9666784004161277     
   1.6199999999999999E-002    -6.7450294782301459     
   1.6500000000000001E-002    -10.198064186061947     
   1.6800000000000002E-002    -13.104630896209747     
   1.7100000000000004E-002    -15.268821569687631     
   1.7400000000000006E-002    -16.531782529700372     
   1.7700000000000000E-002    -16.781625723439724     
   1.8000000000000002E-002    -15.960954903059715     
   1.8300000000000004E-002    -14.071299982191547     
   1.8600000000000005E-002    -11.173417818244847     
   1.8900000000000000E-002    -7.3861585386776270     
   1.9200000000000002E-002    -2.8817266885061379     
   1.9500000000000003E-002     2.1214182475996961     
   1.9799999999999998E-002     7.3665345774895545     
   2.0100000000000000E-002     12.569388411728834     
   2.0400000000000001E-002     17.428683860804000     
   2.0700000000000003E-002     21.638486442335537     
   2.0999999999999998E-002     24.901815691814086     
   2.1299999999999999E-002     26.943447326916868     
   2.1600000000000001E-002     27.526521887665691     
   2.1900000000000003E-002     26.466836989398871     
   2.2200000000000004E-002     23.649557248118988     
   2.2500000000000006E-002     19.044915718517558     
   2.2800000000000001E-002     12.720757009382659     
   2.3100000000000002E-002     4.8527178268539730     
   2.3400000000000004E-002    -4.2712412900908721     
   2.3699999999999999E-002    -14.253465977805718     
   2.4000000000000000E-002    -24.599218053203934     
   2.4300000000000002E-002    -34.736395762975192     
   2.4599999999999997E-002    -44.047292350079843     
   2.4900000000000005E-002    -51.905528417777035     
   2.5200000000000000E-002    -57.721711569661302     
   2.5499999999999995E-002    -60.989787358801124     
   2.5800000000000003E-002    -61.328949736054767     
   2.6099999999999998E-002    -58.525785301063834     
   2.6400000000000007E-002    -52.558311743173562     
   2.6700000000000002E-002    -43.610454334056115     
   2.6999999999999996E-002    -32.068781541671150     
   2.7300000000000005E-002    -18.503985568988014     
   2.7600000000000000E-002    -3.6337165354386798     
   2.7900000000000008E-002     11.726163074765267     
   2.8200000000000003E-002     26.716621745853899     
   2.8499999999999998E-002     40.500854154000088     
   2.8800000000000006E-002     52.320307888835195     
   2.9100000000000001E-002     61.548350511940640     
   2.9400000000000003E-002     67.736088069688961     
   2.9700000000000004E-002     70.632819346565228     
   3.0000000000000006E-002     70.201745391402227     
   3.0300000000000001E-002     66.613087841405616     
   3.0600000000000002E-002     60.218498077302058     
   3.0900000000000004E-002     51.524127342504450     
   3.1199999999999999E-002     41.139085100471632     
   3.1500000000000007E-002     29.731474013299902     
   3.1800000000000002E-002     17.979394620480566     
   3.2099999999999997E-002     6.5186012714201311     
   3.2400000000000005E-002    -4.0889344371525782     
   3.2700000000000000E-002    -13.391118524247439     
   3.3000000000000002E-002    -21.063468446524084     
   3.3300000000000003E-002    -26.913483213716859     
   3.3599999999999998E-002    -30.884708835213573     
   3.3900000000000000E-002    -33.035300648559357     
   3.4200000000000001E-002    -33.522845154981141     
   3.4500000000000003E-002    -32.581599505941703     
   3.4799999999999998E-002    -30.486389758655463     
   3.5099999999999999E-002    -27.537683907936987     
   3.5400000000000001E-002    -24.030990146331156     
   3.5699999999999996E-002    -20.235911425954576     
   3.6000000000000004E-002    -16.391398522891290     
   3.6299999999999999E-002    -12.685587274464817     
   3.6600000000000008E-002    -9.2627416654928183     
   3.6900000000000002E-002    -6.2214557174938125     
   3.7199999999999997E-002    -3.6136266925333054     
   3.7500000000000006E-002    -1.4639005125437423     
   3.7800000000000000E-002    0.23673036609480436     
   3.8100000000000009E-002     1.5155774879021104     
   3.8400000000000004E-002     2.4104666677482340     
   3.8699999999999998E-002     2.9752056732358563     
   3.9000000000000007E-002     3.2611493890099190     
   3.9300000000000002E-002     3.3246343325678267     
   3.9600000000000003E-002     3.2232839421744637     
   3.9900000000000005E-002     3.0067447244609218     
   4.0200000000000000E-002     2.7270382439242153     
   4.0500000000000001E-002     2.4249667737954774     
   4.0800000000000003E-002     2.1338030154104053     
   4.1100000000000005E-002     1.8812527752731061     
   4.1399999999999999E-002     1.6791569335211842     
   4.1700000000000008E-002     1.5348911555680758     
   4.2000000000000003E-002     1.4454545837472197     
   4.2299999999999997E-002     1.3986251252893278     
   4.2600000000000006E-002     1.3834126261112596     
   4.2900000000000001E-002     1.3825722309514723     
   4.3200000000000002E-002     1.3819844587219596     
   4.3500000000000004E-002     1.3739238136136300     
   4.3799999999999999E-002     1.3504745595660028     
   4.4100000000000000E-002     1.3136536060160424     
   4.4400000000000002E-002     1.2672199930512775     
   4.4700000000000004E-002     1.2156711290629383     
   4.4999999999999998E-002     1.1684582518174285     
   4.5300000000000000E-002     1.1283769082232964     
   4.5600000000000002E-002     1.0990057174030932     
   4.5899999999999996E-002     1.0808325859895407     
   4.6200000000000005E-002     1.0665999235553794     
   4.6500000000000000E-002     1.0523750067901843     
   4.6799999999999994E-002     1.0301187509072562     
   4.7100000000000003E-002    0.99231333982796399     
   4.7399999999999998E-002    0.93857211805178786     
   4.7700000000000006E-002    0.86617261182248817     
   4.8000000000000001E-002    0.78063288942305720     
   4.8300000000000010E-002    0.68917292396575180     
   4.8600000000000004E-002    0.59791568112720139     
   4.8899999999999999E-002    0.51881660899334026     
   4.9200000000000008E-002    0.45641065614536647     
   4.9500000000000002E-002    0.41454045443703225     
   4.9800000000000011E-002    0.39497226475565905     
   5.0100000000000006E-002    0.39066432150062019     
   5.0400000000000000E-002    0.39673437344469931     
   5.0700000000000009E-002    0.40400780686622734     
   5.1000000000000004E-002    0.40210030369168925     
   5.1299999999999998E-002    0.38693459766036231     
   5.1600000000000007E-002    0.35205683969437140     
   5.1900000000000002E-002    0.29818603486001405     
   5.2200000000000010E-002    0.22981783626503105     
   5.2500000000000005E-002    0.14965278201217647     
   5.2800000000000000E-002     6.8485038859998418E-002
   5.3099999999999994E-002    -8.5524222348023760E-003
   5.3400000000000003E-002    -7.6090969615806567E-002
   5.3699999999999998E-002   -0.12876904847302498     
   5.4000000000000006E-002   -0.16957342650672783     
   5.4300000000000001E-002   -0.19852230272924073     
   5.4599999999999996E-002   -0.22077051692076083     
   5.4900000000000004E-002   -0.24200495082722900     
   5.5199999999999999E-002   -0.26390462199579034     
   5.5499999999999994E-002   -0.29154030392740082     
   5.5800000000000002E-002   -0.32279959785034740     
   5.6099999999999997E-002   -0.35463101176163880     
   5.6400000000000006E-002   -0.38396315115649060     
   5.6700000000000000E-002   -0.40304469741571886     
   5.6999999999999995E-002   -0.40854522135816018     
   5.7300000000000004E-002   -0.39611138316251715     
   5.7599999999999998E-002   -0.36479437401793646     
   5.7900000000000007E-002   -0.31771877941624732     
   5.8200000000000002E-002   -0.25873426887647466     
   5.8499999999999996E-002   -0.19664557262401161     
   5.8800000000000005E-002   -0.13874215249321523     
   5.9100000000000000E-002    -9.3152327501144036E-002
   5.9400000000000008E-002    -6.5204672394543181E-002
   5.9700000000000003E-002    -5.7353539334512565E-002
   6.0000000000000012E-002    -6.9164612034117529E-002
   6.0300000000000006E-002    -9.4923519784420402E-002
   6.0600000000000001E-002   -0.12897144939669919     
   6.0900000000000010E-002   -0.16223620591244278     
   6.1200000000000004E-002   -0.18706041855426736     
   6.1500000000000013E-002   -0.19842369103512447     
   6.1800000000000008E-002   -0.19161467628972265     
   6.2100000000000002E-002   -0.16887126093259555     
   6.2399999999999997E-002   -0.13312935307151272     
   6.2700000000000006E-002    -9.0720788289273296E-002
   6.3000000000000000E-002    -5.1545664961269388E-002
   6.3300000000000009E-002    -2.0883403801017858E-002
   6.3600000000000004E-002    -6.9979318576105787E-003
   6.3899999999999998E-002    -1.2393580183368915E-002
   6.4199999999999993E-002    -3.4198464793640901E-002
   6.4500000000000002E-002    -7.1285179723274639E-002
   6.4800000000000010E-002   -0.11315545330450824     
   6.5100000000000005E-002   -0.15204155897766075     
   6.5400000000000000E-002   -0.17974039001292461     
   6.5700000000000008E-002   -0.18589763767754738     
   6.5999999999999989E-002   -0.17009974238889178     
   6.6299999999999998E-002   -0.13032943304019903     
   6.6600000000000006E-002    -7.2026328188774066E-002
   6.6900000000000001E-002    -7.1993870700078622E-003
   6.7199999999999996E-002     5.6468460377049355E-002
   6.7500000000000004E-002    0.10241090145388257     
   6.7800000000000013E-002    0.12033385479258246     
   6.8099999999999994E-002    0.10489839125208777     
   6.8400000000000002E-002     4.9286168425289142E-002
   6.8700000000000011E-002    -3.7412497759032451E-002
   6.8999999999999992E-002   -0.14722757296517675     
   6.9300000000000000E-002   -0.26380255008962361     
   6.9600000000000009E-002   -0.36333393416106063     
   6.9900000000000004E-002   -0.42971110411324698     
   7.0199999999999999E-002   -0.43933696207818773     
   7.0500000000000007E-002   -0.38007444367740195     
   7.0800000000000016E-002   -0.24763665420553738     
   7.1099999999999997E-002    -4.2327450829045599E-002
   7.1400000000000005E-002    0.21688887306117940     
   7.1700000000000000E-002    0.50838480219634485     
   7.1999999999999995E-002    0.80003006371447039     
   7.2300000000000003E-002     1.0521484825067824     
   7.2600000000000012E-002     1.2306650094626068     
   7.2900000000000006E-002     1.2992236918389191     
   7.3200000000000001E-002     1.2338423865504553     
   7.3499999999999996E-002     1.0238563105327498     
   7.3800000000000004E-002    0.66948469626908347     
   7.4099999999999999E-002    0.19298872303354758     
   7.4400000000000008E-002   -0.37140092228584110     
   7.4700000000000003E-002   -0.97549450602376508     
   7.5000000000000011E-002    -1.5597285063700856     
   7.5299999999999992E-002    -2.0644961818481562     
   7.5600000000000001E-002    -2.4306097620662737     
   7.5900000000000009E-002    -2.6088761922985499     
   7.6200000000000004E-002    -2.5676230553357153     
   7.6499999999999999E-002    -2.2925642080021871     
   7.6800000000000007E-002    -1.7932304287238079     
   7.7099999999999988E-002    -1.1026898197553889     
   7.7399999999999997E-002   -0.27115242063098677     
   7.7700000000000005E-002    0.63281569484303657     
   7.8000000000000014E-002     1.5333521830945709     
   7.8299999999999995E-002     2.3544989418562983     
   7.8600000000000003E-002     3.0237126348614467     
   7.8900000000000012E-002     3.4858367974449451     
   7.9199999999999993E-002     3.7029803537594530     
   7.9500000000000001E-002     3.6589057717868068     
   7.9800000000000010E-002     3.3634720448100639     
   8.0100000000000018E-002     2.8446578651238386     
   8.0399999999999999E-002     2.1495978323698597     
   8.0700000000000008E-002     1.3393531882372822     
   8.1000000000000003E-002    0.47670947465877067     
   8.1299999999999997E-002   -0.37215555692511026     
   8.1600000000000006E-002    -1.1489543086628644     
   8.1900000000000014E-002    -1.8084640006391550     
   8.2199999999999995E-002    -2.3135856423632699     
   8.2500000000000004E-002    -2.6477635735405674     
   8.2799999999999999E-002    -2.8059858794707431     
   8.3100000000000007E-002    -2.7941245093346905     
   8.3400000000000002E-002    -2.6341061700853530     
   8.3700000000000011E-002    -2.3476704728405400     
   8.4000000000000005E-002    -1.9662461415857040     
   8.4300000000000000E-002    -1.5225432740837150     
   8.4599999999999995E-002    -1.0432913735215301     
   8.4900000000000003E-002   -0.56211296235450725     
   8.5199999999999998E-002   -0.10164613815826518     
   8.5500000000000007E-002    0.31706973722420084     
   8.5800000000000001E-002    0.67283012726747327     
   8.6100000000000010E-002    0.95914446013812271     
   8.6399999999999991E-002     1.1635221080485680     
   8.6699999999999999E-002     1.2849443997706711     
   8.7000000000000008E-002     1.3284775026431643     
   8.7300000000000003E-002     1.2953296026692300     
   8.7599999999999997E-002     1.2027216045056546     
   8.7900000000000006E-002     1.0609773841976400     
   8.8200000000000014E-002    0.88487755412384539     
   8.8499999999999995E-002    0.69505765764104577     
   8.8800000000000004E-002    0.50059294325136472     
   8.9100000000000013E-002    0.31907167863623903     
   8.9399999999999993E-002    0.15906777652113832     
   8.9700000000000002E-002     2.3010523481398162E-002
   9.0000000000000011E-002    -8.0757167775054595E-002
   9.0299999999999991E-002   -0.15904891372546687     
   9.0600000000000000E-002   -0.21307370879039211     
   9.0900000000000009E-002   -0.24525694739436699     
   9.1200000000000017E-002   -0.26658530172544925     
   9.1499999999999998E-002   -0.27523449259887733     
   9.1800000000000007E-002   -0.27841169769734303     
   9.2100000000000001E-002   -0.27838231265243435     
   9.2399999999999996E-002   -0.27076145914377325     
   9.2700000000000005E-002   -0.26170705559688451     
   9.3000000000000013E-002   -0.24533558862028954     
   9.3300000000000008E-002   -0.22265929268188994     
   9.3600000000000003E-002   -0.19740443289410126     
   9.3899999999999997E-002   -0.16415999022556005     
   9.4200000000000006E-002   -0.13179200643216096     
   9.4500000000000001E-002   -0.10013438938829315     
   9.4800000000000009E-002    -7.0159848661537794E-002
   9.5100000000000004E-002    -5.0287589686698123E-002
   9.5399999999999999E-002    -3.5053811159399546E-002
   9.5699999999999993E-002    -2.9702276799182303E-002
   9.6000000000000002E-002    -3.2611645911125989E-002
   9.6300000000000011E-002    -3.7742786916467076E-002
   9.6600000000000005E-002    -4.9231353359931999E-002
   9.6900000000000000E-002    -5.8125937810616896E-002
   9.7200000000000009E-002    -6.5121927532966944E-002
   9.7499999999999989E-002    -7.0516506242820798E-002
   9.7799999999999998E-002    -6.8851709585857790E-002
   9.8100000000000007E-002    -6.6673866682225719E-002
   9.8400000000000015E-002    -6.1149562187215484E-002
   9.8699999999999996E-002    -5.4246249456941231E-002
   9.9000000000000005E-002    -5.0790759882563097E-002
   9.9300000000000013E-002    -4.6352475620366387E-002
   9.9599999999999994E-002    -4.5171323538050444E-002
   9.9900000000000003E-002    -4.4950874006547195E-002
  0.10020000000000001         -4.2145005807082005E-002
  0.10049999999999999         -3.9266229213992684E-002
  0.10080000000000000         -3.0407909326823211E-002
  0.10110000000000001         -1.7139927362291127E-002
  0.10140000000000000          3.7799051217000598E-004
  0.10170000000000000          2.4308851132337592E-002
  0.10200000000000001          4.8626393127768480E-002
  0.10230000000000002          7.4275527300986605E-002
  0.10260000000000000          9.7956955766501166E-002
  0.10290000000000001         0.11562903732949936     
  0.10320000000000000         0.12903453905838802     
  0.10350000000000001         0.13478221751210834     
  0.10380000000000000         0.13451010852077136     
  0.10410000000000001         0.13003607720658414     
  0.10440000000000001         0.12073087082863690     
  0.10470000000000000         0.11096819708758843     
  0.10500000000000000         0.10042353975474810     
  0.10530000000000000          8.9898079873682701E-002
  0.10560000000000000          8.1430240459481384E-002
  0.10590000000000001          7.1610098356689078E-002
  0.10620000000000000          6.2194215569951486E-002
  0.10650000000000001          5.1688397901140493E-002
  0.10679999999999999          3.8738306992598642E-002
  0.10710000000000000          2.5299837305767431E-002
  0.10740000000000001          1.0227175148393915E-002
  0.10770000000000000         -3.8403790145099780E-003
  0.10800000000000000         -1.5500601034247129E-002
  0.10830000000000001         -2.3796847316850167E-002
  0.10859999999999999         -2.6182943685902155E-002
  0.10890000000000000         -2.3211234580434580E-002
  0.10920000000000001         -1.5078870745289302E-002
  0.10950000000000001         -2.0723967895528075E-003
  0.10979999999999999          1.2521304029920431E-002
  0.11009999999999999          2.7284479387431310E-002
  0.11040000000000001          4.0049070193322781E-002
  0.11070000000000001          4.8115592628054205E-002
  0.11100000000000000          5.1872250305369363E-002
  0.11130000000000000          5.0066322224956196E-002
  0.11160000000000002          4.3695950173975956E-002
  0.11190000000000001          3.4401202006912587E-002
  0.11220000000000001          2.2566541519254860E-002
  0.11250000000000000          1.1194992634111105E-002
  0.11280000000000000          5.7112251657107527E-004
  0.11309999999999999         -9.4656318073440028E-003
  0.11340000000000001         -1.7285289919492432E-002
  0.11369999999999998         -2.5482998617862133E-002
  0.11400000000000000         -3.3597764522596926E-002
  0.11430000000000000         -4.2062605378277280E-002
  0.11460000000000002         -5.2953047379292878E-002
  0.11489999999999999         -6.3520158415165132E-002
  0.11520000000000001         -7.5138983052342595E-002
  0.11550000000000001         -8.5425918679342155E-002
  0.11580000000000000         -9.1969829075947140E-002
  0.11609999999999999         -9.5524792818115351E-002
  0.11640000000000002         -9.1956586092656056E-002
  0.11670000000000001         -8.2840358797079253E-002
  0.11700000000000001         -6.8443932006790345E-002
  0.11730000000000000         -4.8583076873212394E-002
  0.11760000000000000         -2.8451088024796102E-002
  0.11789999999999999         -7.6051523459113070E-003
  0.11820000000000001          1.0085954950397751E-002
  0.11850000000000001          2.1823995915999789E-002
  0.11880000000000000          2.9457183395438812E-002
  0.11910000000000000          2.8946049013051270E-002
  0.11940000000000002          2.3558623206411680E-002
  0.11970000000000001          1.4556052689234433E-002
  0.12000000000000001          1.7821539727335342E-003
  0.12030000000000000         -9.2074587137501301E-003
  0.12060000000000000         -2.0134842422053791E-002
  0.12089999999999999         -2.8349896430952065E-002
  0.12119999999999999         -3.2925289502391618E-002
  0.12150000000000001         -3.7445222000923012E-002
  0.12180000000000001         -3.8835387048190000E-002
  0.12210000000000000         -4.0956010799930123E-002
  0.12239999999999999         -4.4748799535941436E-002
  0.12270000000000002         -4.7894297835167826E-002
  0.12300000000000001         -5.4232198087859923E-002
  0.12330000000000001         -5.9831295041424121E-002
  0.12360000000000000         -6.4019209092270338E-002
  0.12390000000000000         -6.6976669693423474E-002
  0.12419999999999999         -6.3536114892506809E-002
  0.12450000000000001         -5.6983004228666832E-002
  0.12480000000000001         -4.4804459027188714E-002
  0.12509999999999999         -2.7274089071241084E-002
  0.12540000000000001         -9.7048084000739866E-003
  0.12570000000000003          1.0535258070573868E-002
  0.12600000000000000          2.7509059745347321E-002
  0.12630000000000002          3.9572708591853710E-002
  0.12659999999999999          4.7702183336441620E-002
  0.12690000000000001          4.7353092283671808E-002
  0.12719999999999998          4.2818934246331264E-002
  0.12750000000000000          3.4200533990084860E-002
  0.12780000000000002          2.2319287381922306E-002
  0.12809999999999999          1.3295618927257166E-002
  0.12840000000000001          5.7576564119629914E-003
  0.12869999999999998          3.3542820273729443E-003
  0.12900000000000000          7.4889786804435143E-003
  0.12930000000000003          1.4611300058071031E-002
  0.12959999999999999          2.7341791090128693E-002
  0.12990000000000002          4.1207446948731699E-002
  0.13019999999999998          5.4216867488322718E-002
  0.13050000000000000          6.6993545110579658E-002
  0.13080000000000003          7.4856849057070657E-002
  0.13109999999999999          8.0084933867701436E-002
  0.13140000000000002          8.3053179175884229E-002
  0.13169999999999998          8.2864463632010749E-002
  0.13200000000000001          8.4284934990857624E-002
  0.13229999999999997          8.6401021551932106E-002
  0.13260000000000000          9.0253590263192088E-002
  0.13290000000000002          9.8436616170885824E-002
  0.13319999999999999         0.10620684387375587     
  0.13350000000000001         0.11493599617875039     
  0.13380000000000003         0.12190909999496130     
  0.13410000000000000         0.12226760778206636     
  0.13440000000000002         0.11931462948687430     
  0.13469999999999999         0.10750780814433145     
  0.13500000000000001          8.8772661388683116E-002
  0.13529999999999998          6.6605168263912828E-002
  0.13560000000000000          3.8183585154331824E-002
  0.13590000000000002          1.1926709045682115E-002
  0.13619999999999999         -1.2618956137399988E-002
  0.13650000000000001         -3.3619423313716992E-002
  0.13680000000000003         -4.5201719419908901E-002
  0.13710000000000000         -5.3239916296443666E-002
  0.13740000000000002         -5.3339611843452039E-002
  0.13769999999999999         -4.8417543915038309E-002
  0.13800000000000001         -4.3913768183676288E-002
  0.13829999999999998         -3.5626438025194017E-002
  0.13860000000000000         -3.1392659253569252E-002
  0.13890000000000002         -2.9186701166807386E-002
  0.13919999999999999         -2.7809219133430652E-002
  0.13950000000000001         -3.1897851469279599E-002
  0.13979999999999998         -3.3760803440338202E-002
  0.14010000000000000         -3.6339725341832968E-002
  0.14040000000000002         -3.8019600936206814E-002
  0.14069999999999999         -3.4600087514496530E-002
  0.14100000000000001         -3.2475400170238318E-002
  0.14130000000000004         -2.7370656883734475E-002
  0.14160000000000000         -2.2912343809586712E-002
  0.14189999999999997         -2.3161489281195394E-002
  0.14219999999999999         -2.4461810707622274E-002
  0.14250000000000002         -3.3665826999998053E-002
  0.14279999999999998         -4.7900710949362407E-002
  0.14310000000000000         -6.5451986085393044E-002
  0.14339999999999997         -8.8798573946568579E-002
  0.14369999999999999        -0.10997088483308590     
  0.14400000000000002        -0.13043817095619195     
  0.14429999999999998        -0.14666318303918319     
  0.14460000000000001        -0.15415255709144787     
  0.14490000000000003        -0.15683433078238157     
  0.14520000000000000        -0.15032932561020632     
  0.14550000000000002        -0.13792630376609588     
  0.14579999999999999        -0.12250813632430679     
  0.14610000000000001        -0.10294136534747730     
  0.14640000000000003         -8.5168382985058966E-002
  0.14670000000000000         -6.8335379793634410E-002
  0.14699999999999996         -5.3792505932456873E-002
  0.14729999999999999         -4.3401948915499297E-002
  0.14760000000000001         -3.4173415629123877E-002
  0.14789999999999998         -2.7036336006236929E-002
  0.14820000000000000         -2.0345999672031399E-002