  -1.4999999999999999E-002     0.0000000000000000     
  -1.4700000000000000E-002     0.0000000000000000     
  -1.4400000000000000E-002     0.0000000000000000     
  -1.4100000000000000E-002     0.0000000000000000     
  -1.3800000000000000E-002     0.0000000000000000     
  -1.3500000000000000E-002     0.0000000000000000     
  -1.3200000000000000E-002     0.0000000000000000     
  -1.2899999999999998E-002     0.0000000000000000     
  -1.2600000000000000E-002     0.0000000000000000     
  -1.2299999999999998E-002     0.0000000000000000     
  -1.2000000000000000E-002     0.0000000000000000     
  -1.1699999999999999E-002     0.0000000000000000     
  -1.1399999999999999E-002     0.0000000000000000     
  -1.1099999999999999E-002     0.0000000000000000     
  -1.0799999999999999E-002     0.0000000000000000     
  -1.0499999999999999E-002     0.0000000000000000     
  -1.0199999999999999E-002     0.0000000000000000     
  -9.8999999999999991E-003     0.0000000000000000     
  -9.5999999999999992E-003     0.0000000000000000     
  -9.2999999999999992E-003     0.0000000000000000     
  -8.9999999999999993E-003     0.0000000000000000     
  -8.6999999999999994E-003     0.0000000000000000     
  -8.3999999999999995E-003     0.0000000000000000     
  -8.0999999999999996E-003     0.0000000000000000     
  -7.7999999999999988E-003     0.0000000000000000     
  -7.4999999999999997E-003     0.0000000000000000     
  -7.1999999999999998E-003     0.0000000000000000     
  -6.8999999999999981E-003     0.0000000000000000     
  -6.5999999999999982E-003     0.0000000000000000     
  -6.3000000000000000E-003     0.0000000000000000     
  -6.0000000000000001E-003     0.0000000000000000     
  -5.6999999999999985E-003     0.0000000000000000     
  -5.3999999999999986E-003     0.0000000000000000     
  -5.1000000000000004E-003     0.0000000000000000     
  -4.7999999999999987E-003     0.0000000000000000     
  -4.5000000000000005E-003     0.0000000000000000     
  -4.1999999999999989E-003     0.0000000000000000     
  -3.8999999999999990E-003     0.0000000000000000     
  -3.5999999999999990E-003     0.0000000000000000     
  -3.2999999999999991E-003     0.0000000000000000     
  -2.9999999999999992E-003     0.0000000000000000     
  -2.6999999999999993E-003     0.0000000000000000     
  -2.3999999999999994E-003     0.0000000000000000     
  -2.0999999999999977E-003     0.0000000000000000     
  -1.7999999999999995E-003     0.0000000000000000     
  -1.4999999999999979E-003     0.0000000000000000     
  -1.1999999999999997E-003     0.0000000000000000     
  -8.9999999999999976E-004     0.0000000000000000     
  -5.9999999999999810E-004     0.0000000000000000     
  -2.9999999999999992E-004     0.0000000000000000     
   0.0000000000000000          0.0000000000000000     
   3.0000000000000165E-004     0.0000000000000000     
   5.9999999999999984E-004     0.0000000000000000     
   9.0000000000000149E-004     0.0000000000000000     
   1.2000000000000031E-003     0.0000000000000000     
   1.5000000000000013E-003     0.0000000000000000     
   1.8000000000000030E-003     0.0000000000000000     
   2.1000000000000012E-003     0.0000000000000000     
   2.3999999999999994E-003     0.0000000000000000     
   2.7000000000000010E-003     0.0000000000000000     
   2.9999999999999992E-003     0.0000000000000000     
   3.3000000000000008E-003     0.0000000000000000     
   3.6000000000000025E-003     0.0000000000000000     
   3.9000000000000007E-003     0.0000000000000000     
   4.2000000000000023E-003     0.0000000000000000     
   4.5000000000000005E-003     0.0000000000000000     
   4.7999999999999987E-003     0.0000000000000000     
   5.1000000000000004E-003     0.0000000000000000     
   5.4000000000000020E-003     0.0000000000000000     
   5.7000000000000037E-003     0.0000000000000000     
   5.9999999999999984E-003     0.0000000000000000     
   6.3000000000000000E-003     0.0000000000000000     
   6.6000000000000017E-003     0.0000000000000000     
   6.9000000000000034E-003     0.0000000000000000     
   7.2000000000000015E-003     0.0000000000000000     
   7.5000000000000032E-003     0.0000000000000000     
   7.8000000000000014E-003     0.0000000000000000     
   8.0999999999999996E-003     0.0000000000000000     
   8.4000000000000012E-003     0.0000000000000000     
   8.7000000000000029E-003     4.4247736324154344E-059
   9.0000000000000011E-003     6.5740635132297400E-046
   9.2999999999999992E-003    -5.5340713066067643E-044
   9.6000000000000009E-003    -1.1757137467747833E-037
   9.8999999999999991E-003    -9.4759234930568246E-036
   1.0200000000000001E-002     7.0823413105313875E-035
   1.0500000000000002E-002     1.9682740619144538E-034
   1.0800000000000004E-002    -3.2187197729513793E-033
   1.1099999999999999E-002    -3.3735037401290018E-033
   1.1400000000000000E-002     1.0109874894054525E-031
   1.1700000000000002E-002     1.3174874514299292E-032
   1.2000000000000004E-002    -3.8153881215204418E-030
   1.2300000000000002E-002     1.1845049474728081E-029
   1.2600000000000000E-002     7.0511304333884364E-029
   1.2900000000000002E-002    -6.0311976371946307E-028
   1.3200000000000000E-002     1.0030696266495187E-027
   1.3500000000000002E-002     7.1776768846274870E-027
   1.3800000000000003E-002    -4.5538760983608935E-026
   1.4100000000000001E-002     7.7776032380265813E-026
   1.4400000000000000E-002     2.6183061383250822E-025
   1.4700000000000001E-002    -1.6800906748806357E-024
   1.4999999999999999E-002     2.3248148773017772E-024
   1.5300000000000001E-002     1.1854706899591895E-023
   1.5600000000000003E-002    -7.1880181369632031E-023
   1.5899999999999997E-002     1.5081082631055278E-022
   1.6199999999999999E-002     1.9729258559225357E-022
   1.6500000000000001E-002    -2.9102041301002700E-021
   1.6800000000000002E-002     1.4432677656703725E-020
   1.7100000000000004E-002    -5.6583813729058490E-020
   1.7400000000000006E-002     2.1374672641440077E-019
   1.7700000000000000E-002    -8.3636214862531208E-019
   1.8000000000000002E-002     3.3681782377940104E-018
   1.8300000000000004E-002    -1.3606323940485881E-017
   1.8600000000000005E-002     5.4621306489427136E-017
   1.8900000000000000E-002    -2.1883001894590682E-016
   1.9200000000000002E-002     8.7666648664952417E-016
   1.9500000000000003E-002    -3.4700757779668346E-015
   1.9799999999999998E-002     1.3194794398550178E-014
   2.0100000000000000E-002    -4.6210945101857549E-014
   2.0400000000000001E-002     1.4017354252157959E-013
   2.0700000000000003E-002    -3.2649328561337579E-013
   2.0999999999999998E-002     3.5264243012899522E-013
   2.1299999999999999E-002     1.4194103309384038E-012
   2.1600000000000001E-002    -1.0219338183010436E-011
   2.1900000000000003E-002     3.3351917896357418E-011
   2.2200000000000004E-002    -5.4396540308059645E-011
   2.2500000000000006E-002    -4.0072637995838927E-011
   2.2800000000000001E-002     4.6817949426530010E-010
   2.3100000000000002E-002    -1.0201625793738917E-009
   2.3400000000000004E-002    -1.5617857754014211E-010
   2.3699999999999999E-002     5.3132493742876087E-009
   2.4000000000000000E-002    -7.4334939348377378E-009
   2.4300000000000002E-002    -1.3526162342679886E-008
   2.4599999999999997E-002     4.0352610450543792E-008
   2.4900000000000005E-002     2.8126610736833305E-008
   2.5200000000000000E-002    -1.5194888175174804E-007
   2.5499999999999995E-002    -1.2449211565995899E-007
   2.5800000000000003E-002     3.9926991046742200E-007
   2.6099999999999998E-002     5.5788603266451125E-007
   2.6400000000000007E-002    -6.8749691625448080E-007
   2.6700000000000002E-002    -1.8817114587590652E-006
   2.6999999999999996E-002     5.6073868031541549E-007
   2.7300000000000005E-002     7.5224750498942643E-006
   2.7600000000000000E-002     1.4817681099914253E-005
   2.7900000000000008E-002     1.8923667787933354E-005
   2.8200000000000003E-002     2.4177513447666466E-005
   2.8499999999999998E-002     4.0328616258224861E-005
   2.8800000000000006E-002     7.2394108603560402E-005
   2.9100000000000001E-002     1.1757575082584999E-004
   2.9400000000000003E-002     1.7562621219930250E-004
   2.9700000000000004E-002     2.5943432693437959E-004
   3.0000000000000006E-002     3.9109009675639643E-004
   3.0300000000000001E-002     5.8952611527091829E-004
   3.0600000000000002E-002     8.6911583342289000E-004
   3.0900000000000004E-002     1.2531844577903415E-003
   3.1199999999999999E-002     1.7840820758030136E-003
   3.1500000000000007E-002     2.5162169566951033E-003
   3.1800000000000002E-002     3.5038570323044213E-003
   3.2099999999999997E-002     4.8025467294713926E-003
   3.2400000000000005E-002     6.4808174180438216E-003
   3.2700000000000000E-002     8.6217835809047957E-003
   3.3000000000000002E-002     1.1308551319504416E-002
   3.3300000000000003E-002     1.4609275750382575E-002
   3.3599999999999998E-002     1.8573687636963765E-002
   3.3900000000000000E-002     2.3232241228224294E-002
   3.4200000000000001E-002     2.8583424989249644E-002
   3.4500000000000003E-002     3.4570156301216133E-002
   3.4799999999999998E-002     4.1060844880282138E-002
   3.5099999999999999E-002     4.7842977826769516E-002
   3.5400000000000001E-002     5.4621266292382328E-002
   3.5699999999999996E-002     6.1010846825752765E-002
   3.6000000000000004E-002     6.6535105803097461E-002
   3.6299999999999999E-002     7.0636158669054094E-002
   3.6600000000000008E-002     7.2703933276254698E-002
   3.6900000000000002E-002     7.2122527395246300E-002
   3.7199999999999997E-002     6.8310393419617990E-002
   3.7500000000000006E-002     6.0770640959805444E-002
   3.7800000000000000E-002     4.9153673872376076E-002
   3.8100000000000009E-002     3.3318642647189249E-002
   3.8400000000000004E-002     1.3389890004820512E-002
   3.8699999999999998E-002    -1.0203855325010428E-002
   3.9000000000000007E-002    -3.6720441046686633E-002
   3.9300000000000002E-002    -6.5115359133604570E-002
   3.9600000000000003E-002    -9.4070750937537764E-002
   3.9900000000000005E-002   -0.12205762698450118     
   4.0200000000000000E-002   -0.14743656901753355     
   4.0500000000000001E-002   -0.16858572724041643     
   4.0800000000000003E-002   -0.18402914166347989     
   4.1100000000000005E-002   -0.19255578002873147     
   4.1399999999999999E-002   -0.19333461947613487     
   4.1700000000000008E-002   -0.18601408199008621     
   4.2000000000000003E-002   -0.17078129631802130     
   4.2299999999999997E-002   -0.14838661038165959     
   4.2600000000000006E-002   -0.12010651719176264     
   4.2900000000000001E-002    -8.7648600347862232E-002
   4.3200000000000002E-002    -5.3047285517773622E-002
   4.3500000000000004E-002    -1.8541937765255735E-002
   4.3799999999999999E-002     1.3582496119090050E-002
   4.4100000000000000E-002     4.1179556998515304E-002
   4.4400000000000002E-002     6.2392644971047996E-002
   4.4700000000000004E-002     7.5756554019845518E-002
   4.4999999999999998E-002     8.0292981935685015E-002
   4.5300000000000000E-002     7.5577063070058043E-002
   4.5600000000000002E-002     6.1745750241016958E-002
   4.5899999999999996E-002     3.9473421535014284E-002
   4.6200000000000005E-002     9.9600655468120372E-003
   4.6500000000000000E-002    -2.5164605724942897E-002
   4.6799999999999994E-002    -6.3960422039990708E-002
   4.7100000000000003E-002   -0.10426382239930770     
   4.7399999999999998E-002   -0.14378286298676782     
   4.7700000000000006E-002   -0.18018429769373667     
   4.8000000000000001E-002   -0.21124125234348629     
   4.8300000000000010E-002   -0.23496425804704718     
   4.8600000000000004E-002   -0.24966949852396761     
   4.8899999999999999E-002   -0.25404407719100186     
   4.9200000000000008E-002   -0.24726016005055057     
   4.9500000000000002E-002   -0.22903444622227762     
   4.9800000000000011E-002   -0.19964458902506926     
   5.0100000000000006E-002   -0.15993511173889069     
   5.0400000000000000E-002   -0.11127289783687731     
   5.0700000000000009E-002    -5.5497339151335173E-002
   5.1000000000000004E-002     5.1891131520582110E-003
   5.1299999999999998E-002     6.8358910971127493E-002
   5.1600000000000007E-002    0.13148103254358087     
   5.1900000000000002E-002    0.19209254696067579     
   5.2200000000000010E-002    0.24795506145323909     
   5.2500000000000005E-002    0.29716013965607185     
   5.2800000000000000E-002    0.33822925859449854     
   5.3099999999999994E-002    0.37017871814023706     
   5.3400000000000003E-002    0.39255599984279510     
   5.3699999999999998E-002    0.40541665522969877     
   5.4000000000000006E-002    0.40925811485041824     
   5.4300000000000001E-002    0.40492992368435321     
   5.4599999999999996E-002    0.39355708956858892     
   5.4900000000000004E-002    0.37643097689900862     
   5.5199999999999999E-002    0.35488255735659702     
   5.5499999999999994E-002    0.33019482088505042     
   5.5800000000000002E-002    0.30351944840027018     
   5.6099999999999997E-002    0.27580480938113328     
   5.6400000000000006E-002    0.24777791656246984     
   5.6700000000000000E-002    0.21992565047062340     
   5.6999999999999995E-002    0.19248635517152765     
   5.7300000000000004E-002    0.16547563218057826     
   5.7599999999999998E-002    0.13875352979044217     
   5.7900000000000007E-002    0.11211115606711815     
   5.8200000000000002E-002     8.5309101496681181E-002
   5.8499999999999996E-002     5.8142132376492080E-002
   5.8800000000000005E-002     3.0546520148685329E-002
   5.9100000000000000E-002     2.6555691789912519E-003
   5.9400000000000008E-002    -2.5144051730828287E-002
   5.9700000000000003E-002    -5.2207433864934531E-002
   6.0000000000000012E-002    -7.7680405910889969E-002
   6.0300000000000006E-002   -0.10052636675935751     
   6.0600000000000001E-002   -0.11960523231894211     
   6.0900000000000010E-002   -0.13380825190339579     
   6.1200000000000004E-002   -0.14219914084914947     
   6.1500000000000013E-002   -0.14415387575818189     
   6.1800000000000008E-002   -0.13946483871296392     
   6.2100000000000002E-002   -0.12842351127153565     
   6.2399999999999997E-002   -0.11185905357832296     
   6.2700000000000006E-002    -9.1115907922702702E-002
   6.3000000000000000E-002    -6.7984128365213031E-002
   6.3300000000000009E-002    -4.4560773866973193E-002
   6.3600000000000004E-002    -2.3047001051394192E-002
   6.3899999999999998E-002    -5.5512650407494200E-003
   6.4199999999999993E-002     6.1043155437839241E-003
   6.4500000000000002E-002     1.0569892938960225E-002
   6.4800000000000010E-002     7.1138424567394384E-003
   6.5100000000000005E-002    -4.3117958036599114E-003
   6.5400000000000000E-002    -2.3040125100695651E-002
   6.5700000000000008E-002    -4.7730922978567403E-002
   6.5999999999999989E-002    -7.6528708115927310E-002
   6.6299999999999998E-002   -0.10721423576986652     
   6.6600000000000006E-002   -0.13737153233913546     
   6.6900000000000001E-002   -0.16461715716929656     
   6.7199999999999996E-002   -0.18679342217866135     
   6.7500000000000004E-002   -0.20213348182062105     
   6.7800000000000013E-002   -0.20935564253636446     
   6.8099999999999994E-002   -0.20774370981364162     
   6.8400000000000002E-002   -0.19722746935153454     
   6.8700000000000011E-002   -0.17832460234347747     
   6.8999999999999992E-002   -0.15205633001307875     
   6.9300000000000000E-002   -0.11989068489129902     
   6.9600000000000009E-002    -8.3655949973829330E-002
   6.9900000000000004E-002    -4.5367794085964558E-002
   7.0199999999999999E-002    -7.1213613977348491E-003
   7.0500000000000007E-002     2.8999878976454587E-002
   7.0800000000000016E-002     6.1072515009902809E-002
   7.1099999999999997E-002     8.7431748040350699E-002
   7.1400000000000005E-002    0.10670646638160186     
   7.1700000000000000E-002    0.11787444667723089     
   7.1999999999999995E-002    0.12029071452988588     
   7.2300000000000003E-002    0.11369388122038457     
   7.2600000000000012E-002     9.8140392342022736E-002
   7.2900000000000006E-002     7.3950719706405460E-002
   7.3200000000000001E-002     4.1702000166399820E-002
   7.3499999999999996E-002     2.1222967494479595E-003
   7.3800000000000004E-002    -4.3992343761343866E-002
   7.4099999999999999E-002    -9.5748496897953936E-002
   7.4400000000000008E-002   -0.15219509212466151     
   7.4700000000000003E-002   -0.21232798120420401     
   7.5000000000000011E-002   -0.27505027480052879     
   7.5299999999999992E-002   -0.33909477821495049     
   7.5600000000000001E-002   -0.40292801301168019     
   7.5900000000000009E-002   -0.46475853185737798     
   7.6200000000000004E-002   -0.52250127494294996     
   7.6499999999999999E-002   -0.57376532123157642     
   7.6800000000000007E-002   -0.61589608854561528     
   7.7099999999999988E-002   -0.64606944929645582     
   7.7399999999999997E-002   -0.66151158220499806     
   7.7700000000000005E-002   -0.65973733126204959     
   7.8000000000000014E-002   -0.63870154192520368     
   7.8299999999999995E-002   -0.59697382194114823     
   7.8600000000000003E-002   -0.53400282832355039     
   7.8900000000000012E-002   -0.45030998244068060     
   7.9199999999999993E-002   -0.34751223899851941     
   7.9500000000000001E-002   -0.22822217377055282     
   7.9800000000000010E-002    -9.5985868109330297E-002
   8.0100000000000018E-002     4.4835167859469963E-002
   8.0399999999999999E-002    0.18934463623976508     
   8.0700000000000008E-002    0.33244626553465095     
   8.1000000000000003E-002    0.46915648915393010     
   8.1299999999999997E-002    0.59481970758935765     
   8.1600000000000006E-002    0.70526586074779773     
   8.1900000000000014E-002    0.79701290492276544     
   8.2199999999999995E-002    0.86743066595417873     
   8.2500000000000004E-002    0.91473469995534606     
   8.2799999999999999E-002    0.93786511709174014     
   8.3100000000000007E-002    0.93643204333992247     
   8.3400000000000002E-002    0.91076258893579654     
   8.3700000000000011E-002    0.86185721778284929     
   8.4000000000000005E-002    0.79132287105039079     
   8.4300000000000000E-002    0.70141248504968534     
   8.4599999999999995E-002    0.59509091396711089     
   8.4900000000000003E-002    0.47597222578274823     
   8.5199999999999998E-002    0.34838535677657562     
   8.5500000000000007E-002    0.21739778946131760     
   8.5800000000000001E-002     8.8543122112127601E-002
   8.6100000000000010E-002    -3.2483764272931696E-002
   8.6399999999999991E-002   -0.14015899441634949     
   8.6699999999999999E-002   -0.22947188903471885     
   8.7000000000000008E-002   -0.29637887654552508     
   8.7300000000000003E-002   -0.33835800995882437     
   8.7599999999999997E-002   -0.35474001851763548     
   8.7900000000000006E-002   -0.34688159329982221     
   8.8200000000000014E-002   -0.31818255336190182     
   8.8499999999999995E-002   -0.27387544134666830     
   8.8800000000000004E-002   -0.22067181462045166     
   8.9100000000000013E-002   -0.16615421831037422     
   8.9399999999999993E-002   -0.11795057904407186     
   8.9700000000000002E-002    -8.2941440842366224E-002
   9.0000000000000011E-002    -6.6545573655034232E-002
   9.0299999999999991E-002    -7.2066892726831172E-002
   9.0600000000000000E-002   -0.10018279744348541     
   9.0900000000000009E-002   -0.14870936628722545     
   9.1200000000000017E-002   -0.21276354105654749     
   9.1499999999999998E-002   -0.28520017044725660     
   9.1800000000000007E-002   -0.35719453368613768     
   9.2100000000000001E-002   -0.41903980595651041     
   9.2399999999999996E-002   -0.46112065553759252     
   9.2700000000000005E-002   -0.47489460445493087     
   9.3000000000000013E-002   -0.45373996414068901     
   9.3300000000000008E-002   -0.39360296306678066     
   9.3600000000000003E-002   -0.29345732835943145     
   9.3899999999999997E-002   -0.15555393985006105     
   9.4200000000000006E-002     1.4610494945592150E-002
   9.4500000000000001E-002    0.20871793110688314     
   9.4800000000000009E-002    0.41620288773801278     
   9.5100000000000004E-002    0.62481955821958968     
   9.5399999999999999E-002    0.82137415664196456     
   9.5699999999999993E-002    0.99261210031918023     
   9.6000000000000002E-002     1.1261411665029240     
   9.6300000000000011E-002     1.2110895872790657     
   9.6600000000000005E-002     1.2386924996783339     
   9.6900000000000000E-002     1.2029561798280473     
   9.7200000000000009E-002     1.1010776596576717     
   9.7499999999999989E-002    0.93374626679193251     
   9.7799999999999998E-002    0.70522027613570160     
   9.8100000000000007E-002    0.42315542732770761     
   9.8400000000000015E-002     9.8406173048508891E-002
   9.8699999999999996E-002   -0.25526095974625063     
   9.9000000000000005E-002   -0.62184009763685411     
   9.9300000000000013E-002   -0.98405012583371831     
   9.9599999999999994E-002    -1.3242082240539905     
   9.9900000000000003E-002    -1.6249212804258739     
  0.10020000000000001         -1.8700810208166114     
  0.10049999999999999         -2.0459665755046719     
  0.10080000000000000         -2.1418969116183364     
  0.10110000000000001         -2.1506823979310528     
  0.10140000000000000         -2.0691060527222418     
  0.10170000000000000         -1.8981248882435133     
  0.10200000000000001         -1.6426187367588865     
  0.10230000000000002         -1.3110944922844681     
  0.10260000000000000        -0.91540596873872315     
  0.10290000000000001        -0.47015520108603209     
  0.10320000000000000          8.1131970885984332E-003
  0.10350000000000001         0.50159112790488991     
  0.10380000000000000         0.99188062362054485     
  0.10410000000000001          1.4605919866868662     
  0.10440000000000001          1.8900777724789271     
  0.10470000000000000          2.2641794007572296     
  0.10500000000000000          2.5688103870888384     
  0.10530000000000000          2.7923821584217250     
  0.10560000000000000          2.9261402232687850     
  0.10590000000000001          2.9647242169000250     
  0.10620000000000000          2.9064218171174776     
  0.10650000000000001          2.7530194942463773     
  0.10679999999999999          2.5097743777421080     
  0.10710000000000000          2.1852161303519368     
  0.10740000000000001          1.7905907176037081     
  0.10770000000000000          1.3392486257654486     
  0.10800000000000000         0.84598831670333108     
  0.10830000000000001         0.32633018373684536     
  0.10859999999999999        -0.20425465792339856     
  0.10890000000000000        -0.73098841424124650     
  0.10920000000000001         -1.2402675920150703     
  0.10950000000000001         -1.7200070070792965     
  0.10979999999999999         -2.1597005661469741     
  0.11009999999999999         -2.5502931317327544     
  0.11040000000000001         -2.8839198710705665     
  0.11070000000000001         -3.1536687912140842     
  0.11100000000000000         -3.3532339592285836     
  0.11130000000000000         -3.4764436718623601     
  0.11160000000000002         -3.5170656675862135     
  0.11190000000000001         -3.4690913215160917     
  0.11220000000000001         -3.3271016179130459     
  0.11250000000000000         -3.0866791374927831     
  0.11280000000000000         -2.7452227336879362     
  0.11309999999999999         -2.3031083926483324     
  0.11340000000000001         -1.7647534145251531     
  0.11369999999999998         -1.1394130891369840     
  0.11400000000000000        -0.44184025115085540     
  0.11430000000000000         0.30735852258886537     
  0.11460000000000002          1.0819226184191404     
  0.11489999999999999          1.8506794636597119     
  0.11520000000000001          2.5789992077241055     
  0.11550000000000001          3.2307540459274628     
  0.11580000000000000          3.7704645528968728     
  0.11609999999999999          4.1657985476222210     
  0.11640000000000002          4.3900779455227701     
  0.11670000000000001          4.4246801102991569     
  0.11700000000000001          4.2608007208623047     
  0.11730000000000000          3.9004927994911278     
  0.11760000000000000          3.3571588077662469     
  0.11789999999999999          2.6552032707000794     
  0.11820000000000001          1.8288210143534804     
  0.11850000000000001         0.91995826983465945     
  0.11880000000000000         -2.4146509975784464E-002
  0.11910000000000000        -0.95386508360498345     
  0.11940000000000002         -1.8202484342506784     
  0.11970000000000001         -2.5778626693109574     
  0.12000000000000001         -3.1875330542387443     
  0.12030000000000000         -3.6186930166283982     
  0.12060000000000000         -3.8510602883915657     
  0.12089999999999999         -3.8756739073554907     
  0.12119999999999999         -3.6952558982513715     
  0.12150000000000001         -3.3239089579674470     
  0.12180000000000001         -2.7861625428583463     
  0.12210000000000000         -2.1153876236679805     
  0.12239999999999999         -1.3518578656949702     
  0.12270000000000002        -0.54042743188965703     
  0.12300000000000001         0.27222641733848807     
  0.12330000000000001          1.0403234714218581     
  0.12360000000000000          1.7216809580015349     
  0.12390000000000000          2.2802545484736760     
  0.12419999999999999          2.6881176792141210     
  0.12450000000000001          2.9271501809233262     
  0.12480000000000001          2.9900919695045980     
  0.12509999999999999          2.8807968426477690     
  0.12540000000000001          2.6136493080266097     
  0.12570000000000003          2.2122644868298211     
  0.12600000000000000          1.7076450189806560     
  0.12630000000000002          1.1358288255001057     
  0.12659999999999999         0.53515188447932349     
  0.12690000000000001         -5.6535585159660437E-002
  0.12719999999999998        -0.60442124921273954     
  0.12750000000000000         -1.0791287243408756     
  0.12780000000000002         -1.4583430041660013     
  0.12809999999999999         -1.7275287809482380     
  0.12840000000000001         -1.8803251661709437     
  0.12869999999999998         -1.9184791717443017     
  0.12900000000000000         -1.8507750914257677     
  0.12930000000000003         -1.6915201852976369     
  0.12959999999999999         -1.4589836341746352     
  0.12990000000000002         -1.1740073937655193     
  0.13019999999999998        -0.85851840316711681     
  0.13050000000000000        -0.53404323716417290     
  0.13080000000000003        -0.22076136096684271     
  0.13109999999999999          6.3345189654199954E-002
  0.13140000000000002         0.30309713825362766     
  0.13169999999999998         0.48635450876894920     
  0.13200000000000001         0.60448718930820056     
  0.13229999999999997         0.65286494192520217     
  0.13260000000000000         0.63100070711230016     
  0.13290000000000002         0.54270614215300950     
  0.13319999999999999         0.39625806708544908     
  0.13350000000000001         0.20442840112311161     
  0.13380000000000003         -1.5962555527323608E-002
  0.13410000000000000        -0.24498552437806745     
  0.13440000000000002        -0.46069767026918340     
  0.13469999999999999        -0.64055805524156073     
  0.13500000000000001        -0.76333569867156836     
  0.13529999999999998        -0.81117665513513504     
  0.13560000000000000        -0.77136469091561688     
  0.13590000000000002        -0.63771707577217507     
  0.13619999999999999        -0.41178877554804183     
  0.13650000000000001        -0.10340411068244086     
  0.13680000000000003         0.26982975177593860     
  0.13710000000000000         0.68369140681184426     
  0.13740000000000002          1.1089469968627472     
  0.13769999999999999          1.5135271075424506     
  0.13800000000000001          1.8654576024557723     
  0.13829999999999998          2.1355626043935794     
  0.13860000000000000          2.2996830398208044     
  0.13890000000000002          2.3409070446423814     
  0.13919999999999999          2.2512523648594485     
  0.13950000000000001          2.0323059144205939     
  0.13979999999999998          1.6951205399935891     
  0.14010000000000000          1.2595530517678999     
  0.14040000000000002         0.75278650512826861     
  0.14069999999999999         0.20706890479418991     
  0.14100000000000001        -0.34273229922653631     
  0.14130000000000004        -0.86164770320279527     
  0.14160000000000000         -1.3174562139285506     
  0.14189999999999997         -1.6833346688235811     
  0.14219999999999999         -1.9396670604266768     
  0.14250000000000002         -2.0753449905419736     
  0.14279999999999998         -2.0887755847209744     
  0.14310000000000000         -1.9879319177863553     
  0.14339999999999997         -1.7893009918866416     
  0.14369999999999999         -1.5163671559112399     
  0.14400000000000002         -1.1974727756070844     
  0.14429999999999998        -0.86294439570371417     
  0.14460000000000001        -0.54225251902567639     
  0.14490000000000003        -0.26160107544494327     
  0.14520000000000000         -4.1520321876445443E-002
  0.14550000000000002         0.10532758086085810     
  0.14579999999999999         0.17516669730770257     
  0.14610000000000001         0.17274510744101151     
  0.14640000000000003         0.11047016621571686     
  0.14670000000000000          7.0103587747712120E-003
  0.14699999999999996        -0.11508751021180014     
  0.14729999999999999        -0.23227828719120189     
  0.14760000000000001        -0.32292133414798285     
  0.14789999999999998        -0.36971890662732654     
  0.14820000000000000        -0.36135330474381949     