  -1.4999999999999999E-002     0.0000000000000000     
  -1.4700000000000000E-002     0.0000000000000000     
  -1.4400000000000000E-002     0.0000000000000000     
  -1.4100000000000000E-002     0.0000000000000000     
  -1.3800000000000000E-002     0.0000000000000000     
  -1.3500000000000000E-002     0.0000000000000000     
  -1.3200000000000000E-002     0.0000000000000000     
  -1.2899999999999998E-002     0.0000000000000000     
  -1.2600000000000000E-002     0.0000000000000000     
  -1.2299999999999998E-002     0.0000000000000000     
  -1.2000000000000000E-002     0.0000000000000000     
  -1.1699999999999999E-002     0.0000000000000000     
  -1.1399999999999999E-002     0.0000000000000000     
  -1.1099999999999999E-002     0.0000000000000000     
  -1.0799999999999999E-002     0.0000000000000000     
  -1.0499999999999999E-002     0.0000000000000000     
  -1.0199999999999999E-002     0.0000000000000000     
  -9.8999999999999991E-003     0.0000000000000000     
  -9.5999999999999992E-003     0.0000000000000000     
  -9.2999999999999992E-003     0.0000000000000000     
  -8.9999999999999993E-003     0.0000000000000000     
  -8.6999999999999994E-003     0.0000000000000000     
  -8.3999999999999995E-003     0.0000000000000000     
  -8.0999999999999996E-003     5.0382668319893097E-045
  -7.7999999999999988E-003     3.7700496302838592E-038
  -7.4999999999999997E-003    -6.1888173695036634E-037
  -7.1999999999999998E-003     4.7933055151039166E-036
  -6.8999999999999981E-003    -1.5159202062272435E-035
  -6.5999999999999982E-003     2.1280105062141310E-035
  -6.3000000000000000E-003    -3.5000624502691605E-034
  -6.0000000000000001E-003     3.3968364179129099E-033
  -5.6999999999999985E-003    -1.9593146632839144E-032
  -5.3999999999999986E-003     1.5750527460312077E-032
  -5.1000000000000004E-003     8.3926155319076705E-031
  -4.7999999999999987E-003    -8.8250850045494766E-030
  -4.5000000000000005E-003     5.1984727664612780E-029
  -4.1999999999999989E-003    -2.0731739371320593E-028
  -3.8999999999999990E-003     5.8262968468181703E-028
  -3.5999999999999990E-003    -1.1653659092316541E-027
  -3.2999999999999991E-003     1.8378183354697489E-027
  -2.9999999999999992E-003    -3.8891808222302742E-027
  -2.6999999999999993E-003     1.4275574632450711E-026
  -2.3999999999999994E-003    -4.8644692115033019E-026
  -2.0999999999999977E-003     1.1845661660695671E-025
  -1.7999999999999995E-003    -1.8696690540088078E-025
  -1.4999999999999979E-003     1.2441660360718797E-025
  -1.1999999999999997E-003     1.9886326815081600E-025
  -8.9999999999999976E-004    -4.5269617269916360E-025
  -5.9999999999999810E-004    -1.1453907947581519E-024
  -2.9999999999999992E-004     9.2892772561574592E-024
   0.0000000000000000         -3.2843336218055315E-023
   3.0000000000000165E-004     8.2990111299503091E-023
   5.9999999999999984E-004    -1.5944037303039668E-022
   9.0000000000000149E-004     2.0659445067254465E-022
   1.2000000000000031E-003    -1.4887775006721225E-023
   1.5000000000000013E-003    -9.5039793611253939E-022
   1.8000000000000030E-003     3.7776275672275020E-021
   2.1000000000000012E-003    -1.0309426018174354E-020
   2.3999999999999994E-003     2.3119357729194848E-020
   2.7000000000000010E-003    -4.4957802831879967E-020
   2.9999999999999992E-003     7.7432897772326712E-020
   3.3000000000000008E-003    -1.1940151678034488E-019
   3.6000000000000025E-003     1.6737467234095016E-019
   3.9000000000000007E-003    -2.2078297172618273E-019
   4.2000000000000023E-003     2.7456923060372684E-019
   4.5000000000000005E-003    -1.5559064642152832E-019
   4.7999999999999987E-003    -1.4406324640020623E-018
   5.1000000000000004E-003     1.0906952439118741E-017
   5.4000000000000020E-003    -5.2900241711838291E-017
   5.7000000000000037E-003     2.0825863233937306E-016
   5.9999999999999984E-003    -7.1268518824727219E-016
   6.3000000000000000E-003     2.1966157605842388E-015
   6.6000000000000017E-003    -6.2151757574787502E-015
   6.9000000000000034E-003     1.6050243560864186E-014
   7.2000000000000015E-003    -3.5411103847068340E-014
   7.5000000000000032E-003     4.9167709041285303E-014
   7.8000000000000014E-003     8.0221823963858291E-014
   8.0999999999999996E-003    -9.7446223846283374E-013
   8.4000000000000012E-003     4.4570742439069352E-012
   8.7000000000000029E-003    -1.3051412806906309E-011
   9.0000000000000011E-003     2.0198003677476453E-011
   9.2999999999999992E-003     2.4240684069060772E-011
   9.6000000000000009E-003    -2.4806540636297006E-010
   9.8999999999999991E-003     6.6276056428878228E-010
   1.0200000000000001E-002    -3.3040767856931250E-010
   1.0500000000000002E-002    -3.1834284479052015E-009
   1.0800000000000004E-002     9.0253751179455364E-009
   1.1099999999999999E-002    -6.2943006759360625E-010
   1.1400000000000000E-002    -4.0877343637146226E-008
   1.1700000000000002E-002     4.9051726193406242E-008
   1.2000000000000004E-002     1.1873318502270824E-007
   1.2300000000000002E-002    -2.3689742878928653E-007
   1.2600000000000000E-002    -4.0916402517672758E-007
   1.2900000000000002E-002     6.0197942649307506E-007
   1.3200000000000000E-002     1.4286493810890522E-006
   1.3500000000000002E-002    -8.1659366675215800E-007
   1.3800000000000003E-002    -4.2693272467729505E-006
   1.4100000000000001E-002    -2.3185889804371956E-007
   1.4400000000000000E-002     1.6677934967088054E-005
   1.4700000000000001E-002     3.8929558906768976E-005
   1.4999999999999999E-002     5.5460879164009037E-005
   1.5300000000000001E-002     7.1000529454733627E-005
   1.5600000000000003E-002     1.0775714432520304E-004
   1.5899999999999997E-002     1.8424186213439062E-004
   1.6199999999999999E-002     3.0042028865961843E-004
   1.6500000000000001E-002     4.5458516269608422E-004
   1.6800000000000002E-002     6.7174413842231815E-004
   1.7100000000000004E-002     1.0034235383905852E-003
   1.7400000000000006E-002     1.5009498866148045E-003
   1.7700000000000000E-002     2.2046425205743221E-003
   1.8000000000000002E-002     3.1690591273284764E-003
   1.8300000000000004E-002     4.4900465322221294E-003
   1.8600000000000005E-002     6.2933775153502436E-003
   1.8900000000000000E-002     8.7041254319758059E-003
   1.9200000000000002E-002     1.1843730080840701E-002
   1.9500000000000003E-002     1.5851958757186636E-002
   1.9799999999999998E-002     2.0890106278017594E-002
   2.0100000000000000E-002     2.7102183976425907E-002
   2.0400000000000001E-002     3.4576090070036897E-002
   2.0700000000000003E-002     4.3329072648680814E-002
   2.0999999999999998E-002     5.3300843477801466E-002
   2.1299999999999999E-002     6.4314659892568002E-002
   2.1600000000000001E-002     7.6019700145945820E-002
   2.1900000000000003E-002     8.7849627007243872E-002
   2.2200000000000004E-002     9.9012555557437376E-002
   2.2500000000000006E-002    0.10849907374075748     
   2.2800000000000001E-002    0.11508282350892494     
   2.3100000000000002E-002    0.11734366467487341     
   2.3400000000000004E-002    0.11371605898123877     
   2.3699999999999999E-002    0.10259294608917020     
   2.4000000000000000E-002     8.2508998051861876E-002
   2.4300000000000002E-002     5.2281789182156750E-002
   2.4599999999999997E-002     1.1140117392405146E-002
   2.4900000000000005E-002    -4.1066176291982288E-002
   2.5200000000000000E-002   -0.10371975167950298     
   2.5499999999999995E-002   -0.17529877186871526     
   2.5800000000000003E-002   -0.25328470977068868     
   2.6099999999999998E-002   -0.33422864710074318     
   2.6400000000000007E-002   -0.41390699896050026     
   2.6700000000000002E-002   -0.48744854622727490     
   2.6999999999999996E-002   -0.54963430650588829     
   2.7300000000000005E-002   -0.59528919622772936     
   2.7600000000000000E-002   -0.61978723959762805     
   2.7900000000000008E-002   -0.61941214686799972     
   2.8200000000000003E-002   -0.59175899001188270     
   2.8499999999999998E-002   -0.53602638466889341     
   2.8800000000000006E-002   -0.45329883733666054     
   2.9100000000000001E-002   -0.34660557514485785     
   2.9400000000000003E-002   -0.22083045343731944     
   2.9700000000000004E-002    -8.2368185993687323E-002
   3.0000000000000006E-002     6.1421812308714789E-002
   3.0300000000000001E-002    0.20241320857712186     
   3.0600000000000002E-002    0.33246625889004122     
   3.0900000000000004E-002    0.44407907840858518     
   3.1199999999999999E-002    0.53081050650095185     
   3.1500000000000007E-002    0.58800378160242650     
   3.1800000000000002E-002    0.61289450010477242     
   3.2099999999999997E-002    0.60472055711118911     
   3.2400000000000005E-002    0.56497510854141098     
   3.2700000000000000E-002    0.49705627464063556     
   3.3000000000000002E-002    0.40618178614456879     
   3.3300000000000003E-002    0.29896900996385317     
   3.3599999999999998E-002    0.18284805208164143     
   3.3900000000000000E-002     6.5761737596287215E-002
   3.4200000000000001E-002    -4.4282761469007018E-002
   3.4500000000000003E-002   -0.13963151999823142     
   3.4799999999999998E-002   -0.21345982520850407     
   3.5099999999999999E-002   -0.26014690357366049     
   3.5400000000000001E-002   -0.27552746358361019     
   3.5699999999999996E-002   -0.25707577349742095     
   3.6000000000000004E-002   -0.20410435340576197     
   3.6299999999999999E-002   -0.11810399738174233     
   3.6600000000000008E-002    -2.6525089767589090E-003
   3.6900000000000002E-002    0.13659309534412373     
   3.7199999999999997E-002    0.29215617280490702     
   3.7500000000000006E-002    0.45484510423186403     
   3.7800000000000000E-002    0.61406346588243310     
   3.8100000000000009E-002    0.75876106390278508     
   3.8400000000000004E-002    0.87782926210278922     
   3.8699999999999998E-002    0.96083802313098599     
   3.9000000000000007E-002    0.99913507769171295     
   3.9300000000000002E-002    0.98624932872545013     
   3.9600000000000003E-002    0.91905183064478235     
   3.9900000000000005E-002    0.79813326551224395     
   4.0200000000000000E-002    0.62784805044163661     
   4.0500000000000001E-002    0.41669413841066311     
   4.0800000000000003E-002    0.17664730887930452     
   4.1100000000000005E-002    -7.7016223040081433E-002
   4.1399999999999999E-002   -0.32693607656656015     
   4.1700000000000008E-002   -0.55513783885234624     
   4.2000000000000003E-002   -0.74388547092488022     
   4.2299999999999997E-002   -0.87740844904125881     
   4.2600000000000006E-002   -0.94309258345590485     
   4.2900000000000001E-002   -0.93272918269753868     
   4.3200000000000002E-002   -0.84313357089517582     
   4.3500000000000004E-002   -0.67673720029540518     
   4.3799999999999999E-002   -0.44176235246301027     
   4.4100000000000000E-002   -0.15133982563465531     
   4.4400000000000002E-002    0.17677706322537687     
   4.4700000000000004E-002    0.52178994508678100     
   4.4999999999999998E-002    0.86118216836928740     
   4.5300000000000000E-002     1.1716768094071093     
   4.5600000000000002E-002     1.4316091905367312     
   4.5899999999999996E-002     1.6216541758901915     
   4.6200000000000005E-002     1.7258315228560865     
   4.6500000000000000E-002     1.7329139821538024     
   4.6799999999999994E-002     1.6361897136675054     
   4.7100000000000003E-002     1.4345227722708025     
   4.7399999999999998E-002     1.1318813966703085     
   4.7700000000000006E-002    0.73667770914485609     
   4.8000000000000001E-002    0.26210516727273481     
   4.8300000000000010E-002   -0.27489399708117640     
   4.8600000000000004E-002   -0.85412987399520779     
   4.8899999999999999E-002    -1.4528296460399071     
   4.9200000000000008E-002    -2.0466851100475103     
   4.9500000000000002E-002    -2.6101966852828569     
   4.9800000000000011E-002    -3.1178329621338401     
   5.0100000000000006E-002    -3.5448487161945583     
   5.0400000000000000E-002    -3.8684456490793737     
   5.0700000000000009E-002    -4.0687272547584179     
   5.1000000000000004E-002    -4.1295878823750165     
   5.1299999999999998E-002    -4.0402047596709973     
   5.1600000000000007E-002    -3.7952983460191656     
   5.1900000000000002E-002    -3.3960204415900783     
   5.2200000000000010E-002    -2.8507524127394541     
   5.2500000000000005E-002    -2.1743143575647448     
   5.2800000000000000E-002    -1.3883712519801830     
   5.3099999999999994E-002   -0.52061928673741542     
   5.3400000000000003E-002    0.39697789356505236     
   5.3699999999999998E-002     1.3286233506616318     
   5.4000000000000006E-002     2.2362700710913539     
   5.4300000000000001E-002     3.0822456566484817     
   5.4599999999999996E-002     3.8296792723762332     
   5.4900000000000004E-002     4.4442617716159925     
   5.5199999999999999E-002     4.8970167158433346     
   5.5499999999999994E-002     5.1642548366429883     
   5.5800000000000002E-002     5.2286726684418827     
   5.6099999999999997E-002     5.0816628244569459     
   5.6400000000000006E-002     4.7228567097923086     
   5.6700000000000000E-002     4.1606871892591135     
   5.6999999999999995E-002     3.4132158998164885     
   5.7300000000000004E-002     2.5072432339817183     
   5.7599999999999998E-002     1.4784184892679990     
   5.7900000000000007E-002    0.36993050322299587     
   5.8200000000000002E-002   -0.76950874185860796     
   5.8499999999999996E-002    -1.8868957891398468     
   5.8800000000000005E-002    -2.9280465330737053     
   5.9100000000000000E-002    -3.8405358905332525     
   5.9400000000000008E-002    -4.5763780724273690     
   5.9700000000000003E-002    -5.0963675301672957     
   6.0000000000000012E-002    -5.3725554092499035     
   6.0300000000000006E-002    -5.3896118728622611     
   6.0600000000000001E-002    -5.1479055161410283     
   6.0900000000000010E-002    -4.6642753654687503     
   6.1200000000000004E-002    -3.9701881413442455     
   6.1500000000000013E-002    -3.1107848225959995     
   6.1800000000000008E-002    -2.1419452369943568     
   6.2100000000000002E-002    -1.1260164350453921     
   6.2399999999999997E-002   -0.12804213028609876     
   6.2700000000000006E-002    0.78968370467893767     
   6.3000000000000000E-002     1.5718277868130468     
   6.3300000000000009E-002     2.1738382396937168     
   6.3600000000000004E-002     2.5660801722155213     
   6.3899999999999998E-002     2.7343948594393499     
   6.4199999999999993E-002     2.6811264325623294     
   6.4500000000000002E-002     2.4254253858083930     
   6.4800000000000010E-002     1.9991487307024189     
   6.5100000000000005E-002     1.4448508429256119     
   6.5400000000000000E-002    0.81240161419989354     
   6.5700000000000008E-002    0.15377208924910055     
   6.5999999999999989E-002   -0.48025693221157462     
   6.6299999999999998E-002    -1.0442101191241897     
   6.6600000000000006E-002    -1.5003814861223967     
   6.6900000000000001E-002    -1.8202289334598172     
   6.7199999999999996E-002    -1.9859195867826185     
   6.7500000000000004E-002    -1.9892591189804356     
   6.7800000000000013E-002    -1.8306092106710914     
   6.8099999999999994E-002    -1.5176598138693400     
   6.8400000000000002E-002    -1.0628681790052321     
   6.8700000000000011E-002   -0.48150137893170636     
   6.8999999999999992E-002    0.20943955480576235     
   6.9300000000000000E-002    0.99223267240387691     
   6.9600000000000009E-002     1.8491792697501341     
   6.9900000000000004E-002     2.7617610191675475     
   7.0199999999999999E-002     3.7095036665304439     
   7.0500000000000007E-002     4.6701814752918169     
   7.0800000000000016E-002     5.6175796085695184     
   7.1099999999999997E-002     6.5207220107011770     
   7.1400000000000005E-002     7.3449535892207374     
   7.1700000000000000E-002     8.0520825506877181     
   7.1999999999999995E-002     8.6020941534518851     
   7.2300000000000003E-002     8.9553179323737915     
   7.2600000000000012E-002     9.0752481904397939     
   7.2900000000000006E-002     8.9323706168033095     
   7.3200000000000001E-002     8.5067248094571095     
   7.3499999999999996E-002     7.7898144847143200     
   7.3800000000000004E-002     6.7871871660833634     
   7.4099999999999999E-002     5.5189601356436206     
   7.4400000000000008E-002     4.0182525934201019     
   7.4700000000000003E-002     2.3307312316619324     
   7.5000000000000011E-002    0.51118797471693878     
   7.5299999999999992E-002    -1.3805993249147273     
   7.5600000000000001E-002    -3.2821174385598049     
   7.5900000000000009E-002    -5.1343314261307640     
   7.6200000000000004E-002    -6.8842149722484729     
   7.6499999999999999E-002    -8.4864878615152151     
   7.6800000000000007E-002    -9.9075206786316521     
   7.7099999999999988E-002    -11.125075647399989     
   7.7399999999999997E-002    -12.126277211771972     
   7.7700000000000005E-002    -12.908418844437195     
   7.8000000000000014E-002    -13.474316745767668     
   7.8299999999999995E-002    -13.828647734520894     
   7.8600000000000003E-002    -13.976886854932820     
   7.8900000000000012E-002    -13.920297725701463     
   7.9199999999999993E-002    -13.653693312736067     
   7.9500000000000001E-002    -13.166692872013536     
   7.9800000000000010E-002    -12.442156016278805     
   8.0100000000000018E-002    -11.458695646735528     
   8.0399999999999999E-002    -10.195695233391628     
   8.0700000000000008E-002    -8.6363014447655182     
   8.1000000000000003E-002    -6.7728758268324381     
   8.1299999999999997E-002    -4.6130925963089604     
   8.1600000000000006E-002    -2.1826575658080736     
   8.1900000000000014E-002    0.47057895693158114     
   8.2199999999999995E-002     3.2764800120170432     
   8.2500000000000004E-002     6.1451035671310335     
   8.2799999999999999E-002     8.9679731690420237     
   8.3100000000000007E-002     11.625400791131492     
   8.3400000000000002E-002     13.995530228430514     
   8.3700000000000011E-002     15.959826446422499     
   8.4000000000000005E-002     17.413132553124328     
   8.4300000000000000E-002     18.272539923322725     
   8.4599999999999995E-002     18.482790763173892     
   8.4900000000000003E-002     18.020628772283171     
   8.5199999999999998E-002     16.897896677666616     
   8.5500000000000007E-002     15.160536783030725     
   8.5800000000000001E-002     12.886272586790108     
   8.6100000000000010E-002     10.179894770199066     
   8.6399999999999991E-002     7.1660476050731514     
   8.6699999999999999E-002     3.9843273067207767     
   8.7000000000000008E-002    0.77862394913253208     
   8.7300000000000003E-002    -2.3100567816216961     
   8.7599999999999997E-002    -5.1471120491633027     
   8.7900000000000006E-002    -7.6158671396700894     
   8.8200000000000014E-002    -9.6210426041057744     
   8.8499999999999995E-002    -11.089781067268621     
   8.8800000000000004E-002    -11.978341306013100     
   8.9100000000000013E-002    -12.272631829805185     
   8.9399999999999993E-002    -11.986843311824204     
   8.9700000000000002E-002    -11.163199680037874     
   9.0000000000000011E-002    -9.8694518610985398     
   9.0299999999999991E-002    -8.1958298374456060     
   9.0600000000000000E-002    -6.2496953958481782     
   9.0900000000000009E-002    -4.1484081669548729     
   9.1200000000000017E-002    -2.0148090240315879     
   9.1499999999999998E-002     2.9106711024561392E-002
   9.1800000000000007E-002     1.8725622635702064     
   9.2100000000000001E-002     3.4193398886253692     
   9.2399999999999996E-002     4.5918552054804671     
   9.2700000000000005E-002     5.3414455550948228     
   9.3000000000000013E-002     5.6466418228072106     
   9.3300000000000008E-002     5.5129414638828527     
   9.3600000000000003E-002     4.9765688412975093     
   9.3899999999999997E-002     4.0988461631384503     
   9.4200000000000006E-002     2.9614797093697240     
   9.4500000000000001E-002     1.6612773109747485     
   9.4800000000000009E-002    0.30362131377590995     
   9.5100000000000004E-002    -1.0043508180945520     
   9.5399999999999999E-002    -2.1645961562342553     
   9.5699999999999993E-002    -3.0929470174610203     
   9.6000000000000002E-002    -3.7220465814881218     
   9.6300000000000011E-002    -4.0115324930516012     
   9.6600000000000005E-002    -3.9491862777557345     
   9.6900000000000000E-002    -3.5467078496513658     
   9.7200000000000009E-002    -2.8426111048808891     
   9.7499999999999989E-002    -1.9000816117037354     
   9.7799999999999998E-002   -0.79622530402444813     
   9.8100000000000007E-002    0.38215248067783808     
   9.8400000000000015E-002     1.5431175447470717     
   9.8699999999999996E-002     2.6014095030837097     
   9.9000000000000005E-002     3.4835755901383885     
   9.9300000000000013E-002     4.1325513958487488     
   9.9599999999999994E-002     4.5132872458613074     
   9.9900000000000003E-002     4.6140801264658649     
  0.10020000000000001          4.4474236470318065     
  0.10049999999999999          4.0451714809539503     
  0.10080000000000000          3.4562289970670985     
  0.10110000000000001          2.7439547360478032     
  0.10140000000000000          1.9745150938251872     
  0.10170000000000000          1.2119993637993629     
  0.10200000000000001         0.51651119652463362     
  0.10230000000000002         -6.4374071738873564E-002
  0.10260000000000000        -0.49999874936725297     
  0.10290000000000001        -0.77509437724882646     
  0.10320000000000000        -0.89130215395610246     
  0.10350000000000001        -0.86703663475729764     
  0.10380000000000000        -0.73156119422065591     
  0.10410000000000001        -0.52276906490235331     
  0.10440000000000001        -0.28319149531576077     
  0.10470000000000000         -5.3253376775963042E-002
  0.10500000000000000         0.12979555321649275     
  0.10530000000000000         0.23775472611894330     
  0.10560000000000000         0.25318762004505890     
  0.10590000000000001         0.16689951834944705     
  0.10620000000000000         -1.6314929921095182E-002
  0.10650000000000001        -0.28348999484201798     
  0.10679999999999999        -0.61634549255695914     
  0.10710000000000000        -0.98792946398408654     
  0.10740000000000001         -1.3725025990911104     
  0.10770000000000000         -1.7452763413064898     
  0.10800000000000000         -2.0819045192961836     
  0.10830000000000001         -2.3663557495899723     
  0.10859999999999999         -2.5871799803727669     
  0.10890000000000000         -2.7383998193628734     
  0.10920000000000001         -2.8220582748751455     
  0.10950000000000001         -2.8428688814119685     
  0.10979999999999999         -2.8096543175230075     
  0.11009999999999999         -2.7346292428743748     
  0.11040000000000001         -2.6290701400865770     
  0.11070000000000001         -2.5036803336708404     
  0.11100000000000000         -2.3684083152199218     
  0.11130000000000000         -2.2300063370388084     
  0.11160000000000002         -2.0932868780958946     
  0.11190000000000001         -1.9606881262214577     
  0.11220000000000001         -1.8309716163706158     
  0.11250000000000000         -1.7033889529655029     
  0.11280000000000000         -1.5755199494252283     
  0.11309999999999999         -1.4414345399761708     
  0.11340000000000001         -1.2975193721264822     
  0.11369999999999998         -1.1394374929123201     
  0.11400000000000000        -0.96058041625804669     
  0.11430000000000000        -0.75815083664037941     
  0.11460000000000002        -0.52946654489997391     
  0.11489999999999999        -0.27198444911413966     
  0.11520000000000001          1.2367289952110221E-002
  0.11550000000000001         0.31978360247953819     
  0.11580000000000000         0.64387883366027121     
  0.11609999999999999         0.97545677221923610     
  0.11640000000000002          1.3046580950840596     
  0.11670000000000001          1.6196331012718721     
  0.11700000000000001          1.9094177551067695     
  0.11730000000000000          2.1685837426637540     
  0.11760000000000000          2.3917594936155941     
  0.11789999999999999          2.5781482131570628     
  0.11820000000000001          2.7355192474780874     
  0.11850000000000001          2.8702114312461831     
  0.11880000000000000          2.9910655635941641     
  0.11910000000000000          3.1105397302725324     
  0.11940000000000002          3.2344117668469901     
  0.11970000000000001          3.3656480771237121     
  0.12000000000000001          3.5033691348500695     
  0.12030000000000000          3.6382177259336852     
  0.12060000000000000          3.7596142645356285     
  0.12089999999999999          3.8533938262457541     
  0.12119999999999999          3.9050333818740643     
  0.12150000000000001          3.9068451246789122     
  0.12180000000000001          3.8538718558019300     
  0.12210000000000000          3.7502520450037307     
  0.12239999999999999          3.6092596467570481     
  0.12270000000000002          3.4458387375679025     
  0.12300000000000001          3.2801752647124216     
  0.12330000000000001          3.1325584107181093     
  0.12360000000000000          3.0129950800971264     
  0.12390000000000000          2.9237352290442793     
  0.12419999999999999          2.8568850569927222     
  0.12450000000000001          2.7876440252829422     
  0.12480000000000001          2.6818660640550163     
  0.12509999999999999          2.5004653089189901     
  0.12540000000000001          2.1999337076967018     
  0.12570000000000003          1.7444975069096031     
  0.12600000000000000          1.1106759339215304     
  0.12630000000000002         0.29094932630769960     
  0.12659999999999999        -0.69729891964876134     
  0.12690000000000001         -1.8183874975047489     
  0.12719999999999998         -3.0168657903311953     
  0.12750000000000000         -4.2207276932848190     
  0.12780000000000002         -5.3594333759849766     
  0.12809999999999999         -6.3639489789484776     
  0.12840000000000001         -7.1780749529422545     
  0.12869999999999998         -7.7767973752478321     
  0.12900000000000000         -8.1605840233768312     
  0.12930000000000003         -8.3615908875526586     
  0.12959999999999999         -8.4464468997112725     
  0.12990000000000002         -8.5018706175170387     
  0.13019999999999998         -8.6280216842331665     
  0.13050000000000000         -8.9228767827745621     
  0.13080000000000003         -9.4628957964565643     
  0.13109999999999999         -10.293231389042077     
  0.13140000000000002         -11.409133309630636     
  0.13169999999999998         -12.745828000754720     
  0.13200000000000001         -14.182849233786264     
  0.13229999999999997         -15.541232398915174     
  0.13260000000000000         -16.597272210443425     
  0.13290000000000002         -17.106820420626882     
  0.13319999999999999         -16.823733694929796     
  0.13350000000000001         -15.528412315168850     
  0.13380000000000003         -13.061972236970400     
  0.13410000000000000         -9.3437907889667109     
  0.13440000000000002         -4.3930592350231574     
  0.13469999999999999          1.6581984987153537     
  0.13500000000000001          8.5700716983324625     
  0.13529999999999998          16.002034389929960     
  0.13560000000000000          23.535254404000252     
  0.13590000000000002          30.704453130254890     
  0.13619999999999999          37.032129668925315     
  0.13650000000000001          42.067167473454433     
  0.13680000000000003          45.423719465867393     
  0.13710000000000000          46.811414715810081     
  0.13740000000000002          46.063375484002300     
  0.13769999999999999          43.149568661813106     
  0.13800000000000001          38.176939285252054     
  0.13829999999999998          31.386286298186725     
  0.13860000000000000          23.133084162075665     
  0.13890000000000002          13.858040069481627     
  0.13919999999999999          4.0581117825151418     
  0.13950000000000001         -5.7490505897966386     
  0.13979999999999998         -15.061894961120096     
  0.14010000000000000         -23.422639080888644     
  0.14040000000000002         -30.445879808935651     
  0.14069999999999999         -35.843012422115528     
  0.14100000000000001         -39.425836933403787     
  0.14130000000000004         -41.116853959284853     
  0.14160000000000000         -40.948145105784185     
  0.14189999999999997         -39.047952863799487     
  0.14219999999999999         -35.628755865747728     
  0.14250000000000002         -30.967674693613791     
  0.14279999999999998         -25.386921555952721     
  0.14310000000000000         -19.233229533800039     
  0.14339999999999997         -12.850635670328852     
  0.14369999999999999         -6.5669287823382430     
  0.14400000000000002        -0.67599981056730407     
  0.14429999999999998          4.5820198775933436     
  0.14460000000000001          9.0233667872499748     
  0.14490000000000003          12.526869450996632     
  0.14520000000000000          15.036503322080538     
  0.14550000000000002          16.557448761802128     
  0.14579999999999999          17.147063558395505     
  0.14610000000000001          16.904254227264207     
  0.14640000000000003          15.961829450369269     
  0.14670000000000000          14.470448784181594     
  0.14699999999999996          12.586863856217361     
  0.14729999999999999          10.467581199155608     
  0.14760000000000001          8.2551274337358134     
  0.14789999999999998          6.0733786494451394     
  0.14820000000000000          4.0240365779077276     