  -1.4999999999999999E-002     0.0000000000000000     
  -1.4700000000000000E-002     0.0000000000000000     
  -1.4400000000000000E-002     0.0000000000000000     
  -1.4100000000000000E-002     0.0000000000000000     
  -1.3800000000000000E-002     0.0000000000000000     
  -1.3500000000000000E-002    -1.9033859062022049E-038
  -1.3200000000000000E-002    -1.3790401746091648E-035
  -1.2899999999999998E-002     1.0870113098774006E-033
  -1.2600000000000000E-002    -4.8715115795279363E-033
  -1.2299999999999998E-002    -1.2252650900438329E-031
  -1.2000000000000000E-002     4.4807766954327199E-031
  -1.1699999999999999E-002    -2.5271697511827078E-029
  -1.1399999999999999E-002     5.5938242267163034E-028
  -1.1099999999999999E-002    -7.5996171959110955E-028
  -1.0799999999999999E-002    -9.9454011856696038E-026
  -1.0499999999999999E-002     1.5669561549909370E-024
  -1.0199999999999999E-002    -1.1721123012878133E-023
  -9.8999999999999991E-003     4.0065728557310870E-023
  -9.5999999999999992E-003     7.3366694856675508E-023
  -9.2999999999999992E-003    -1.6678685729861321E-021
  -8.9999999999999993E-003     1.0581178878231316E-020
  -8.6999999999999994E-003    -4.4245887988282507E-020
  -8.3999999999999995E-003     1.4028997571359433E-019
  -8.0999999999999996E-003    -3.5052007976117304E-019
  -7.7999999999999988E-003     6.8641720287867969E-019
  -7.4999999999999997E-003    -1.0198846433198430E-018
  -7.1999999999999998E-003     1.0959412517917086E-018
  -6.8999999999999981E-003    -1.0110731150825056E-018
  -6.5999999999999982E-003     1.9240391227567938E-018
  -6.3000000000000000E-003    -1.2416950052174750E-018
  -6.0000000000000001E-003    -3.4829456835695107E-017
  -5.6999999999999985E-003     2.1632647226284554E-016
  -5.3999999999999986E-003    -6.5584560557083178E-016
  -5.1000000000000004E-003     9.7446051806486165E-016
  -4.7999999999999987E-003     6.9901285225806047E-016
  -4.5000000000000005E-003    -8.1863753883665439E-015
  -4.1999999999999989E-003     2.4185374194383921E-014
  -3.8999999999999990E-003    -4.0499539706349720E-014
  -3.5999999999999990E-003     2.5837263283219443E-014
  -3.2999999999999991E-003     6.8332256761015827E-014
  -2.9999999999999992E-003    -2.5581652800895725E-013
  -2.6999999999999993E-003     4.2336818986214511E-013
  -2.3999999999999994E-003    -2.8955049411869450E-013
  -2.0999999999999977E-003    -4.2719910847240406E-013
  -1.7999999999999995E-003     1.5881565976628983E-012
  -1.4999999999999979E-003    -2.2869111851238941E-012
  -1.1999999999999997E-003     1.2237630630237109E-012
  -8.9999999999999976E-004     1.9206481864560485E-012
  -5.9999999999999810E-004    -5.2387306429923232E-012
  -2.9999999999999992E-004     5.7634347012968690E-012
   0.0000000000000000         -3.3278699678409998E-012
   3.0000000000000165E-004     2.2059128842135273E-012
   5.9999999999999984E-004    -4.9567156915707297E-012
   9.0000000000000149E-004     3.9810550767703252E-012
   1.2000000000000031E-003     1.2663390411643190E-011
   1.5000000000000013E-003    -4.0060958717181307E-011
   1.8000000000000030E-003     5.2282558805498130E-011
   2.1000000000000012E-003    -3.0945153502162396E-011
   2.3999999999999994E-003    -3.3618058134086636E-011
   2.7000000000000010E-003     1.6849850653814281E-010
   2.9999999999999992E-003    -1.9633850715026963E-010
   3.3000000000000008E-003    -7.0278158070190694E-010
   3.6000000000000025E-003     2.7936212771634831E-009
   3.9000000000000007E-003    -9.4168185457029073E-010
   4.2000000000000023E-003    -1.5861243372856505E-008
   4.5000000000000005E-003     3.7468983820591981E-008
   4.7999999999999987E-003     1.3623497304547520E-008
   5.1000000000000004E-003    -1.9834812736875517E-007
   5.4000000000000020E-003     1.9628997541563878E-007
   5.7000000000000037E-003     6.0482137351461364E-007
   5.9999999999999984E-003    -1.1700560480827931E-006
   6.3000000000000000E-003    -1.8413524070975660E-006
   6.6000000000000017E-003     3.5860735974017466E-006
   6.9000000000000034E-003     6.1542637733374472E-006
   7.2000000000000015E-003    -6.9813237415802811E-006
   7.5000000000000032E-003    -1.8965867633410273E-005
   7.8000000000000014E-003     8.1958371028808487E-006
   8.0999999999999996E-003     7.2703592838203047E-005
   8.4000000000000012E-003     1.2101662451065849E-004
   8.7000000000000029E-003     1.3087188864560059E-004
   9.0000000000000011E-003     1.6645683662573103E-004
   9.2999999999999992E-003     3.0617910296167387E-004
   9.6000000000000009E-003     5.4567834052147144E-004
   9.8999999999999991E-003     8.3430165944075002E-004
   1.0200000000000001E-002     1.2053566467719655E-003
   1.0500000000000002E-002     1.7974164837451473E-003
   1.0800000000000004E-002     2.7290654206077324E-003
   1.1099999999999999E-002     4.0471580611131609E-003
   1.1400000000000000E-002     5.8504477555037845E-003
   1.1700000000000002E-002     8.3691964226126486E-003
   1.2000000000000004E-002     1.1861727944489404E-002
   1.2300000000000002E-002     1.6536401542224289E-002
   1.2600000000000000E-002     2.2645286513152511E-002
   1.2900000000000002E-002     3.0558656438942268E-002
   1.3200000000000000E-002     4.0657210309394301E-002
   1.3500000000000002E-002     5.3210585688587761E-002
   1.3800000000000003E-002     6.8422602201149249E-002
   1.4100000000000001E-002     8.6476340996657519E-002
   1.4400000000000000E-002    0.10739077465453228     
   1.4700000000000001E-002    0.13082867141133414     
   1.4999999999999999E-002    0.15607300260465584     
   1.5300000000000001E-002    0.18209611853687604     
   1.5600000000000003E-002    0.20743904618451103     
   1.5899999999999997E-002    0.22999239638873384     
   1.6199999999999999E-002    0.24703815906583143     
   1.6500000000000001E-002    0.25549950710295982     
   1.6800000000000002E-002    0.25203585851719690     
   1.7100000000000004E-002    0.23299210314657842     
   1.7400000000000006E-002    0.19465817657730650     
   1.7700000000000000E-002    0.13392402149795743     
   1.8000000000000002E-002     4.8686445226499231E-002
   1.8300000000000004E-002    -6.2069816773441339E-002
   1.8600000000000005E-002   -0.19790702220964546     
   1.8900000000000000E-002   -0.35628895781998693     
   1.9200000000000002E-002   -0.53235285572908841     
   1.9500000000000003E-002   -0.71913308953667598     
   1.9799999999999998E-002   -0.90774621400578714     
   2.0100000000000000E-002    -1.0875010603451905     
   2.0400000000000001E-002    -1.2464397335255928     
   2.0700000000000003E-002    -1.3723412217169750     
   2.0999999999999998E-002    -1.4537205431585667     
   2.1299999999999999E-002    -1.4806457648982767     
   2.1600000000000001E-002    -1.4454933977262068     
   2.1900000000000003E-002    -1.3438818676575472     
   2.2200000000000004E-002    -1.1754554015148859     
   2.2500000000000006E-002   -0.94415722012568026     
   2.2800000000000001E-002   -0.65790182668025798     
   2.3100000000000002E-002   -0.32824427550798774     
   2.3400000000000004E-002     2.9986479526284880E-002
   2.3699999999999999E-002    0.39969504435324066     
   2.4000000000000000E-002    0.76307204564689013     
   2.4300000000000002E-002     1.1024354660123530     
   2.4599999999999997E-002     1.4008480375404209     
   2.4900000000000005E-002     1.6435127835310248     
   2.5200000000000000E-002     1.8185881705094209     
   2.5499999999999995E-002     1.9174921112828018     
   2.5800000000000003E-002     1.9350367922933245     
   2.6099999999999998E-002     1.8694519298517247     
   2.6400000000000007E-002     1.7226912885173158     
   2.6700000000000002E-002     1.5000516286665744     
   2.6999999999999996E-002     1.2099414160538668     
   2.7300000000000005E-002    0.86387269567797464     
   2.7600000000000000E-002    0.47608779046348504     
   2.7900000000000008E-002     6.3498259921458550E-002
   2.8200000000000003E-002   -0.35435572231998408     
   2.8499999999999998E-002   -0.75602143429290602     
   2.8800000000000006E-002    -1.1188304267701321     
   2.9100000000000001E-002    -1.4195537141115335     
   2.9400000000000003E-002    -1.6357699461616333     
   2.9700000000000004E-002    -1.7473255444434086     
   3.0000000000000006E-002    -1.7376899647172808     
   3.0300000000000001E-002    -1.5955576901119053     
   3.0600000000000002E-002    -1.3161392699925962     
   3.0900000000000004E-002   -0.90219463745906414     
   3.1199999999999999E-002   -0.36469843385272982     
   3.1500000000000007E-002    0.27744358644005274     
   3.1800000000000002E-002    0.99796969024361859     
   3.2099999999999997E-002     1.7648798526686580     
   3.2400000000000005E-002     2.5419380620009209     
   3.2700000000000000E-002     3.2906786411325322     
   3.3000000000000002E-002     3.9730613095951761     
   3.3300000000000003E-002     4.5535787785855675     
   3.3599999999999998E-002     5.0011420930264574     
   3.3900000000000000E-002     5.2903023905215454     
   3.4200000000000001E-002     5.4028773989880357     
   3.4500000000000003E-002     5.3284603778904902     
   3.4799999999999998E-002     5.0641247537350695     
   3.5099999999999999E-002     4.6143216124572337     
   3.5400000000000001E-002     3.9905069852067321     
   3.5699999999999996E-002     3.2105586865394611     
   3.6000000000000004E-002     2.2981115073978740     
   3.6299999999999999E-002     1.2814207832665401     
   3.6600000000000008E-002    0.19305007870782787     
   3.6900000000000002E-002   -0.93095135646088245     
   3.7199999999999997E-002    -2.0526878335221488     
   3.7500000000000006E-002    -3.1336143917684800     
   3.7800000000000000E-002    -4.1361447008514745     
   3.8100000000000009E-002    -5.0262240435988321     
   3.8400000000000004E-002    -5.7757522796912797     
   3.8699999999999998E-002    -6.3648436310171306     
   3.9000000000000007E-002    -6.7843459350561597     
   3.9300000000000002E-002    -7.0369493498580606     
   3.9600000000000003E-002    -7.1379806551871310     
   3.9900000000000005E-002    -7.1147931153707251     
   4.0200000000000000E-002    -7.0040219196033524     
   4.0500000000000001E-002    -6.8485071761813243     
   4.0800000000000003E-002    -6.6921721883412699     
   4.1100000000000005E-002    -6.5740695121370374     
   4.1399999999999999E-002    -6.5231221082514006     
   4.1700000000000008E-002    -6.5528270588707782     
   4.2000000000000003E-002    -6.6571677690794964     
   4.2299999999999997E-002    -6.8091677170435485     
   4.2600000000000006E-002    -6.9611933276628442     
   4.2900000000000001E-002    -7.0483253478142851     
   4.3200000000000002E-002    -6.9946567152836332     
   4.3500000000000004E-002    -6.7203001427904736     
   4.3799999999999999E-002    -6.1508168512684893     
   4.4100000000000000E-002    -5.2272621131513359     
   4.4400000000000002E-002    -3.9138540267459785     
   4.4700000000000004E-002    -2.2053540564053442     
   4.4999999999999998E-002   -0.13060971861551962     
   4.5300000000000000E-002     2.2464809497936704     
   4.5600000000000002E-002     4.8294462417028026     
   4.5899999999999996E-002     7.4962617727827583     
   4.6200000000000005E-002     10.107893486634028     
   4.6500000000000000E-002     12.518087033607827     
   4.6799999999999994E-002     14.585875639114208     
   4.7100000000000003E-002     16.186757110681128     
   4.7399999999999998E-002     17.221573478915204     
   4.7700000000000006E-002     17.624743007448735     
   4.8000000000000001E-002     17.368310513054713     
   4.8300000000000010E-002     16.463314890166018     
   4.8600000000000004E-002     14.958894697800883     
   4.8899999999999999E-002     12.937018078832482     
   4.9200000000000008E-002     10.506080970025575     
   4.9500000000000002E-002     7.7940211782677302     
   4.9800000000000011E-002     4.9384749734489137     
   5.0100000000000006E-002     2.0786856768650210     
   5.0400000000000000E-002   -0.65225012711822927     
   5.0700000000000009E-002    -3.1353464463740410     
   5.1000000000000004E-002    -5.2705059399200564     
   5.1299999999999998E-002    -6.9806056725643293     
   5.1600000000000007E-002    -8.2148489339787414     
   5.1900000000000002E-002    -8.9495734424169395     
   5.2200000000000010E-002    -9.1876606501032825     
   5.2500000000000005E-002    -8.9571245485631721     
   5.2800000000000000E-002    -8.3077665840702917     
   5.3099999999999994E-002    -7.3087616274593401     
   5.3400000000000003E-002    -6.0437109534494393     
   5.3699999999999998E-002    -4.6042056104882638     
   5.4000000000000006E-002    -3.0857298547795384     
   5.4300000000000001E-002    -1.5825222210281833     
   5.4599999999999996E-002   -0.18121048316333299     
   5.4900000000000004E-002     1.0433931753556447     
   5.5199999999999999E-002     2.0321332825250726     
   5.5499999999999994E-002     2.7443288416275968     
   5.5800000000000002E-002     3.1592883433700685     
   5.6099999999999997E-002     3.2770919614730118     
   5.6400000000000006E-002     3.1169532734630589     
   5.6700000000000000E-002     2.7146677638560135     
   5.6999999999999995E-002     2.1195263771108870     
   5.7300000000000004E-002     1.3898187038238590     
   5.7599999999999998E-002    0.58789155433934692     
   5.7900000000000007E-002   -0.22455726761166273     
   5.8200000000000002E-002   -0.99155651446017923     
   5.8499999999999996E-002    -1.6663455779592444     
   5.8800000000000005E-002    -2.2139815060678232     
   5.9100000000000000E-002    -2.6146863615263412     
   5.9400000000000008E-002    -2.8635664558886074     
   5.9700000000000003E-002    -2.9687908730472112     
   6.0000000000000012E-002    -2.9507216332763009     
   6.0300000000000006E-002    -2.8389676196272222     
   6.0600000000000001E-002    -2.6686916304675172     
   6.0900000000000010E-002    -2.4761927018995240     
   6.1200000000000004E-002    -2.2956587219041604     
   6.1500000000000013E-002    -2.1568134786500561     
   6.1800000000000008E-002    -2.0815500053925451     
   6.2100000000000002E-002    -2.0834696504202421     
   6.2399999999999997E-002    -2.1676280950270774     
   6.2700000000000006E-002    -2.3307847065141520     
   6.3000000000000000E-002    -2.5637987046745585     
   6.3300000000000009E-002    -2.8531331159133377     
   6.3600000000000004E-002    -3.1825093500329951     
   6.3899999999999998E-002    -3.5342789826332477     
   6.4199999999999993E-002    -3.8908501253506285     
   6.4500000000000002E-002    -4.2356618394779382     
   6.4800000000000010E-002    -4.5519654007873331     
   6.5100000000000005E-002    -4.8231860577841683     
   6.5400000000000000E-002    -5.0329589993322710     
   6.5700000000000008E-002    -5.1650606138649042     
   6.5999999999999989E-002    -5.2035935884314126     
   6.6299999999999998E-002    -5.1341399622166648     
   6.6600000000000006E-002    -4.9462909860341400     
   6.6900000000000001E-002    -4.6351783958229280     
   6.7199999999999996E-002    -4.2024742054613338     
   6.7500000000000004E-002    -3.6575611708583002     
   6.7800000000000013E-002    -3.0178438831542973     
   6.8099999999999994E-002    -2.3058335474065039     
   6.8400000000000002E-002    -1.5449858325164063     
   6.8700000000000011E-002   -0.75534720305922209     
   6.8999999999999992E-002     5.2005745298792955E-002
   6.9300000000000000E-002    0.88095742303367719     
   6.9600000000000009E-002     1.7540089955204754     
   6.9900000000000004E-002     2.7132288529592477     
   7.0199999999999999E-002     3.8183691036572767     
   7.0500000000000007E-002     5.1406740046579884     
   7.0800000000000016E-002     6.7530213586788541     
   7.1099999999999997E-002     8.7164039614612694     
   7.1400000000000005E-002     11.065507813182954     
   7.1700000000000000E-002     13.794223503803954     
   7.1999999999999995E-002     16.843570945229775     
   7.2300000000000003E-002     20.093922324442829     
   7.2600000000000012E-002     23.364054486690108     
   7.2900000000000006E-002     26.416450237978154     
   7.3200000000000001E-002     28.971737352575474     
   7.3499999999999996E-002     30.729678792966872     
   7.3800000000000004E-002     31.394820433651446     
   7.4099999999999999E-002     30.707969614213582     
   7.4400000000000008E-002     28.474395422002797     
   7.4700000000000003E-002     24.590736817258108     
   7.5000000000000011E-002     19.066260316029414     
   7.5299999999999992E-002     12.032993616627833     
   7.5600000000000001E-002     3.7473185542331873     
   7.5900000000000009E-002    -5.4205146966424849     
   7.6200000000000004E-002    -15.008528607944772     
   7.6499999999999999E-002    -24.493872723638354     
   7.6800000000000007E-002    -33.330542986028952     
   7.7099999999999988E-002    -40.989991246977866     
   7.7399999999999997E-002    -47.003132221193056     
   7.7700000000000005E-002    -50.996994785812959     
   7.8000000000000014E-002    -52.722106367761327     
   7.8299999999999995E-002    -52.072192026206281     
   7.8600000000000003E-002    -49.092222600595093     
   7.8900000000000012E-002    -43.973744335769453     
   7.9199999999999993E-002    -37.037083365240001     
   7.9500000000000001E-002    -28.703673726805086     
   7.9800000000000010E-002    -19.466670739402709     
   8.0100000000000018E-002    -9.8513397223129449     
   8.0399999999999999E-002   -0.37627349140018218     
   8.0700000000000008E-002     8.4795032519333891     
   8.1000000000000003E-002     16.307211729931158     
   8.1299999999999997E-002     22.789355574022387     
   8.1600000000000006E-002     27.714144419707129     
   8.1900000000000014E-002     30.979597228743096     
   8.2199999999999995E-002     32.588937336243895     
   8.2500000000000004E-002     32.637695148286213     
   8.2799999999999999E-002     31.299799925524795     
   8.3100000000000007E-002     28.806905966289449     
   8.3400000000000002E-002     25.424258671130129     
   8.3700000000000011E-002     21.432986549964227     
   8.4000000000000005E-002     17.108975063977830     
   8.4300000000000000E-002     12.707453416977691     
   8.4599999999999995E-002     8.4522168341419075     
   8.4900000000000003E-002     4.5250673497164211     
   8.5199999999999998E-002     1.0634624096411076     
   8.5500000000000007E-002    -1.8414411796447268     
   8.5800000000000001E-002    -4.1427434764757649     
   8.6100000000000010E-002    -5.8331527256124032     
   8.6399999999999991E-002    -6.9393406311320138     
   8.6699999999999999E-002    -7.5149844726647501     
   8.7000000000000008E-002    -7.6337855886604622     
   8.7300000000000003E-002    -7.3813822880999673     
   8.7599999999999997E-002    -6.8492200580934162     
   8.7900000000000006E-002    -6.1255716965383060     
   8.8200000000000014E-002    -5.2933826400838520     
   8.8499999999999995E-002    -4.4255196561449477     
   8.8800000000000004E-002    -3.5785369516703991     
   8.9100000000000013E-002    -2.7956090520891062     
   8.9399999999999993E-002    -2.1046589204687054     
   8.9700000000000002E-002    -1.5196279222068125     
   9.0000000000000011E-002    -1.0441507739807738     
   9.0299999999999991E-002   -0.67119919954285479     
   9.0600000000000000E-002   -0.39033144595084424     
   9.0900000000000009E-002   -0.18818192088425456     
   9.1200000000000017E-002    -4.9605603818670518E-002
   9.1499999999999998E-002     3.6570978519679220E-002
   9.1800000000000007E-002     8.1221877030695278E-002
   9.2100000000000001E-002     9.2039947771013375E-002
   9.2399999999999996E-002     7.5060946324290612E-002
   9.2700000000000005E-002     3.5809744725668238E-002
   9.3000000000000013E-002    -2.1462185222836924E-002
   9.3300000000000008E-002    -9.1066002876916685E-002
   9.3600000000000003E-002   -0.16705062616110553     
   9.3899999999999997E-002   -0.24239919909435148     
   9.4200000000000006E-002   -0.31063700112379455     
   9.4500000000000001E-002   -0.36476619615720318     
   9.4800000000000009E-002   -0.39939281695200979     
   9.5100000000000004E-002   -0.41273061192208682     
   9.5399999999999999E-002   -0.40410747455794288     
   9.5699999999999993E-002   -0.37627278089170779     
   9.6000000000000002E-002   -0.33308476671412424     
   9.6300000000000011E-002   -0.28000929065187630     
   9.6600000000000005E-002   -0.22469199944014634     
   9.6900000000000000E-002   -0.17112652442228715     
   9.7200000000000009E-002   -0.12331105471377007     
   9.7499999999999989E-002    -8.4264070654544332E-002
   9.7799999999999998E-002    -5.3376494253653803E-002
   9.8100000000000007E-002    -2.9338522053726744E-002
   9.8400000000000015E-002    -8.7968770096123090E-003
   9.8699999999999996E-002     1.1173278367358243E-002
   9.9000000000000005E-002     3.2576934421795267E-002
   9.9300000000000013E-002     5.6841557298734288E-002
   9.9599999999999994E-002     8.3284510191459687E-002
   9.9900000000000003E-002    0.10983472328048924     
  0.10020000000000001         0.13405570145770287     
  0.10049999999999999         0.15219338937430510     
  0.10080000000000000         0.15987981085538686     
  0.10110000000000001         0.15599940757955078     
  0.10140000000000000         0.14020574777442024     
  0.10170000000000000         0.11263512206483786     
  0.10200000000000001          7.7236458866497271E-002
  0.10230000000000002          3.8087941647891532E-002
  0.10260000000000000          4.8590444156006163E-004
  0.10290000000000001         -3.0689752488419625E-002
  0.10320000000000000         -5.2253239608376058E-002
  0.10350000000000001         -6.0906459292876469E-002
  0.10380000000000000         -5.7339177743529202E-002
  0.10410000000000001         -4.3658696253933635E-002
  0.10440000000000001         -2.2557026775818168E-002
  0.10470000000000000          1.3203807240306578E-003
  0.10500000000000000          2.2936436636320608E-002
  0.10530000000000000          3.8216469640984546E-002
  0.10560000000000000          4.5012626128256482E-002
  0.10590000000000001          4.2012146295207400E-002
  0.10620000000000000          3.0323438780802653E-002
  0.10650000000000001          1.2428432188111772E-002
  0.10679999999999999         -7.4608109828480287E-003
  0.10710000000000000         -2.4124437203038064E-002
  0.10740000000000001         -3.5336640233321129E-002
  0.10770000000000000         -3.7186894395230874E-002
  0.10800000000000000         -2.7866939568649482E-002
  0.10830000000000001         -9.4191572377563659E-003
  0.10859999999999999          1.6395284894266778E-002
  0.10890000000000000          4.4951514521316689E-002
  0.10920000000000001          7.1903349947671363E-002
  0.10950000000000001          9.2365168343077828E-002
  0.10979999999999999         0.10136816899055134     
  0.11009999999999999          9.8513681568033057E-002
  0.11040000000000001          8.3716299337295505E-002
  0.11070000000000001          5.8724494390842763E-002
  0.11100000000000000          2.8921717857556997E-002
  0.11130000000000000          5.6875349386495411E-004
  0.11160000000000002         -2.0341879955726637E-002
  0.11190000000000001         -2.8651790570383445E-002
  0.11220000000000001         -2.0029293298209828E-002
  0.11250000000000000          6.3950445141823242E-003
  0.11280000000000000          4.9241942221693896E-002
  0.11309999999999999         0.10349558442103007     
  0.11340000000000001         0.16107260364251111     
  0.11369999999999998         0.21415761277508705     
  0.11400000000000000         0.25327482955329544     
  0.11430000000000000         0.27178803551183578     
  0.11460000000000002         0.26479893123271997     
  0.11489999999999999         0.23004046025193992     
  0.11520000000000001         0.17210325692123868     
  0.11550000000000001          9.7646692778577598E-002
  0.11580000000000000          1.6236393446354191E-002
  0.11609999999999999         -5.9815779444877523E-002
  0.11640000000000002        -0.11811629011343461     
  0.11670000000000001        -0.14762364845487391     
  0.11700000000000001        -0.14167311586727241     
  0.11730000000000000         -9.8634978711269083E-002
  0.11760000000000000         -2.1424491694285591E-002
  0.11789999999999999          8.1730031684224047E-002
  0.11820000000000001         0.19632567216487676     
  0.11850000000000001         0.30575844170204081     
  0.11880000000000000         0.39372911640505676     
  0.11910000000000000         0.44313497461937135     
  0.11940000000000002         0.44218748778992045     
  0.11970000000000001         0.38603775125066875     
  0.12000000000000001         0.27698853448394128     
  0.12030000000000000         0.12560920438473427     
  0.12060000000000000         -5.1725500423793952E-002
  0.12089999999999999        -0.23054096983406391     
  0.12119999999999999        -0.38415160772301526     
  0.12150000000000001        -0.48852973382352716     
  0.12180000000000001        -0.52149840902657529     
  0.12210000000000000        -0.46857475304837987     
  0.12239999999999999        -0.32632460350207271     
  0.12270000000000002        -0.10272807771993972     
  0.12300000000000001         0.18349349342549276     
  0.12330000000000001         0.50276984069817421     
  0.12360000000000000         0.81862007845956697     
  0.12390000000000000          1.0919306074601316     
  0.12419999999999999          1.2841406920143015     
  0.12450000000000001          1.3643548032179247     
  0.12480000000000001          1.3100731981513536     
  0.12509999999999999          1.1133115432524243     
  0.12540000000000001         0.78201686495427492     
  0.12570000000000003         0.33561963586110888     
  0.12600000000000000        -0.19053943078628735     
  0.12630000000000002        -0.75243098805349540     
  0.12659999999999999         -1.3022013908949357     
  0.12690000000000001         -1.7899730313894830     
  0.12719999999999998         -2.1730394075137065     
  0.12750000000000000         -2.4165289267356393     
  0.12780000000000002         -2.4977855754780460     
  0.12809999999999999         -2.4100551333316336     
  0.12840000000000001         -2.1594619723192734     
  0.12869999999999998         -1.7668631210980401     
  0.12900000000000000         -1.2643438377174285     
  0.12930000000000003        -0.69081394103015259     
  0.12959999999999999         -8.9428834890279751E-002
  0.12990000000000002         0.49591786055042797     
  0.13019999999999998          1.0256373142939688     
  0.13050000000000000          1.4672335835585235     
  0.13080000000000003          1.7952758261684592     
  0.13109999999999999          1.9958506668466236     
  0.13140000000000002          2.0640818415208981     
  0.13169999999999998          2.0043223079198178     
  0.13200000000000001          1.8298078157436344     
  0.13229999999999997          1.5592023719526564     
  0.13260000000000000          1.2169650594384316     
  0.13290000000000002         0.82842317311434810     
  0.13319999999999999         0.41923429486715358     
  0.13350000000000001          1.5748307807562006E-002
  0.13380000000000003        -0.35980882857503704     
  0.13410000000000000        -0.68901181342206841     
  0.13440000000000002        -0.95704281986415762     
  0.13469999999999999         -1.1539301591889568     
  0.13500000000000001         -1.2750525663262779     
  0.13529999999999998         -1.3205482995010438     
  0.13560000000000000         -1.2945661287062176     
  0.13590000000000002         -1.2059248470739801     
  0.13619999999999999         -1.0650953452239560     
  0.13650000000000001        -0.88549616717109902     
  0.13680000000000003        -0.68170565845213249     
  0.13710000000000000        -0.46794962951513919     
  0.13740000000000002        -0.25855218633455457     
  0.13769999999999999         -6.4033323189913893E-002
  0.13800000000000001         0.10648855101861146     
  0.13829999999999998         0.24616109070187697     
  0.13860000000000000         0.35243522025943680     
  0.13890000000000002         0.42477179272401056     
  0.13919999999999999         0.46588573346990603     
  0.13950000000000001         0.48051620090654945     
  0.13979999999999998         0.47382455035695548     
  0.14010000000000000         0.45161373668291988     
  0.14040000000000002         0.41998360922863553     
  0.14069999999999999         0.38400356884091075     
  0.14100000000000001         0.34685837901144811     
  0.14130000000000004         0.31137394367077809     
  0.14160000000000000         0.27807899142373504     
  0.14189999999999997         0.24743481359660147     
  0.14219999999999999         0.21955066860832861     
  0.14250000000000002         0.19240114532507036     
  0.14279999999999998         0.16639043945027326     
  0.14310000000000000         0.14098807671709176     
  0.14339999999999997         0.11655262849875869     
  0.14369999999999999          9.4867604548935433E-002
  0.14400000000000002          7.5595039595824268E-002
  0.14429999999999998          6.0948841923192221E-002
  0.14460000000000001          5.2067277473595956E-002
  0.14490000000000003          4.8629766666222575E-002
  0.14520000000000000          5.0906263733791639E-002
  0.14550000000000002          5.7673015368962174E-002
  0.14579999999999999          6.7369776649532809E-002
  0.14610000000000001          7.7810481051404118E-002
  0.14640000000000003          8.7157666916679213E-002
  0.14670000000000000          9.3693847264542801E-002
  0.14699999999999996          9.5906969009423498E-002
  0.14729999999999999          9.3578258412088389E-002
  0.14760000000000001          8.7126900857038461E-002
  0.14789999999999998          7.8163000214502246E-002
  0.14820000000000000          6.7403459324507697E-002