  -1.4999999999999999E-002     0.0000000000000000     
  -1.4700000000000000E-002     0.0000000000000000     
  -1.4400000000000000E-002     0.0000000000000000     
  -1.4100000000000000E-002     0.0000000000000000     
  -1.3800000000000000E-002     0.0000000000000000     
  -1.3500000000000000E-002     0.0000000000000000     
  -1.3200000000000000E-002     0.0000000000000000     
  -1.2899999999999998E-002     0.0000000000000000     
  -1.2600000000000000E-002     0.0000000000000000     
  -1.2299999999999998E-002     0.0000000000000000     
  -1.2000000000000000E-002     0.0000000000000000     
  -1.1699999999999999E-002     0.0000000000000000     
  -1.1399999999999999E-002     0.0000000000000000     
  -1.1099999999999999E-002     0.0000000000000000     
  -1.0799999999999999E-002     0.0000000000000000     
  -1.0499999999999999E-002     0.0000000000000000     
  -1.0199999999999999E-002     0.0000000000000000     
  -9.8999999999999991E-003     0.0000000000000000     
  -9.5999999999999992E-003     0.0000000000000000     
  -9.2999999999999992E-003     0.0000000000000000     
  -8.9999999999999993E-003     0.0000000000000000     
  -8.6999999999999994E-003     0.0000000000000000     
  -8.3999999999999995E-003     0.0000000000000000     
  -8.0999999999999996E-003     0.0000000000000000     
  -7.7999999999999988E-003     0.0000000000000000     
  -7.4999999999999997E-003     0.0000000000000000     
  -7.1999999999999998E-003     0.0000000000000000     
  -6.8999999999999981E-003     0.0000000000000000     
  -6.5999999999999982E-003     0.0000000000000000     
  -6.3000000000000000E-003     0.0000000000000000     
  -6.0000000000000001E-003     0.0000000000000000     
  -5.6999999999999985E-003     0.0000000000000000     
  -5.3999999999999986E-003     0.0000000000000000     
  -5.1000000000000004E-003     0.0000000000000000     
  -4.7999999999999987E-003     0.0000000000000000     
  -4.5000000000000005E-003     0.0000000000000000     
  -4.1999999999999989E-003     0.0000000000000000     
  -3.8999999999999990E-003     0.0000000000000000     
  -3.5999999999999990E-003     0.0000000000000000     
  -3.2999999999999991E-003     0.0000000000000000     
  -2.9999999999999992E-003     0.0000000000000000     
  -2.6999999999999993E-003     0.0000000000000000     
  -2.3999999999999994E-003     0.0000000000000000     
  -2.0999999999999977E-003     0.0000000000000000     
  -1.7999999999999995E-003     0.0000000000000000     
  -1.4999999999999979E-003     0.0000000000000000     
  -1.1999999999999997E-003     0.0000000000000000     
  -8.9999999999999976E-004     0.0000000000000000     
  -5.9999999999999810E-004     0.0000000000000000     
  -2.9999999999999992E-004     0.0000000000000000     
   0.0000000000000000          0.0000000000000000     
   3.0000000000000165E-004     0.0000000000000000     
   5.9999999999999984E-004     0.0000000000000000     
   9.0000000000000149E-004     0.0000000000000000     
   1.2000000000000031E-003     0.0000000000000000     
   1.5000000000000013E-003     0.0000000000000000     
   1.8000000000000030E-003     0.0000000000000000     
   2.1000000000000012E-003     0.0000000000000000     
   2.3999999999999994E-003     0.0000000000000000     
   2.7000000000000010E-003     0.0000000000000000     
   2.9999999999999992E-003     0.0000000000000000     
   3.3000000000000008E-003     0.0000000000000000     
   3.6000000000000025E-003     0.0000000000000000     
   3.9000000000000007E-003     0.0000000000000000     
   4.2000000000000023E-003     0.0000000000000000     
   4.5000000000000005E-003     0.0000000000000000     
   4.7999999999999987E-003     0.0000000000000000     
   5.1000000000000004E-003     0.0000000000000000     
   5.4000000000000020E-003     0.0000000000000000     
   5.7000000000000037E-003     0.0000000000000000     
   5.9999999999999984E-003     0.0000000000000000     
   6.3000000000000000E-003     0.0000000000000000     
   6.6000000000000017E-003     0.0000000000000000     
   6.9000000000000034E-003     0.0000000000000000     
   7.2000000000000015E-003     0.0000000000000000     
   7.5000000000000032E-003     0.0000000000000000     
   7.8000000000000014E-003     0.0000000000000000     
   8.0999999999999996E-003     0.0000000000000000     
   8.4000000000000012E-003     0.0000000000000000     
   8.7000000000000029E-003     0.0000000000000000     
   9.0000000000000011E-003     1.4816668788961516E-043
   9.2999999999999992E-003    -1.3008611925438940E-041
   9.6000000000000009E-003    -1.3634957869964368E-038
   9.8999999999999991E-003    -7.4321741728515938E-037
   1.0200000000000001E-002     1.3248641428973487E-036
   1.0500000000000002E-002     1.2714525347048954E-034
   1.0800000000000004E-002    -5.1607717327163354E-034
   1.1099999999999999E-002    -7.0979337101501235E-033
   1.1400000000000000E-002     3.1794403966015939E-032
   1.1700000000000002E-002     2.1971090636664508E-031
   1.2000000000000004E-002    -1.7916831275985122E-030
   1.2300000000000002E-002    -1.6151239688909767E-030
   1.2600000000000000E-002     6.1601062029486953E-029
   1.2900000000000002E-002    -2.1502801586242415E-028
   1.3200000000000000E-002    -5.0824332622233426E-028
   1.3500000000000002E-002     6.6873360435148670E-027
   1.3800000000000003E-002    -2.1029074810799763E-026
   1.4100000000000001E-002    -9.8952764020229990E-027
   1.4400000000000000E-002     3.2856148360018097E-025
   1.4700000000000001E-002    -1.3105173588524226E-024
   1.4999999999999999E-002     2.2776993048039039E-024
   1.5300000000000001E-002     1.2261828439129286E-024
   1.5600000000000003E-002    -1.6298613037586310E-023
   1.5899999999999997E-002     3.4751228661613376E-023
   1.6199999999999999E-002    -2.6536185857468329E-023
   1.6500000000000001E-002     2.3962101611703357E-022
   1.6800000000000002E-002    -3.0417921546424690E-021
   1.7100000000000004E-002     2.0338814777695913E-020
   1.7400000000000006E-002    -9.9340102748281482E-020
   1.7700000000000000E-002     4.1019296318964420E-019
   1.8000000000000002E-002    -1.5560021741375206E-018
   1.8300000000000004E-002     5.7311453909116090E-018
   1.8600000000000005E-002    -2.1290431739960534E-017
   1.8900000000000000E-002     8.1666933015419888E-017
   1.9200000000000002E-002    -3.2598718342814733E-016
   1.9500000000000003E-002     1.3400005918262057E-015
   1.9799999999999998E-002    -5.5204930924493785E-015
   2.0100000000000000E-002     2.1945909964753488E-014
   2.0400000000000001E-002    -8.0474262979089323E-014
   2.0700000000000003E-002     2.5665130919954827E-013
   2.0999999999999998E-002    -6.3903294223097089E-013
   2.1299999999999999E-002     8.3359523412350961E-013
   2.1600000000000001E-002     2.2655537042023399E-012
   2.1900000000000003E-002    -1.9828740932080851E-011
   2.2200000000000004E-002     7.1820196987457403E-011
   2.2500000000000006E-002    -1.3875886715977474E-010
   2.2800000000000001E-002    -1.6151492365384578E-011
   2.3100000000000002E-002     1.0023603285705734E-009
   2.3400000000000004E-002    -2.8320769800498238E-009
   2.3699999999999999E-002     1.4664736325764096E-009
   2.4000000000000000E-002     1.1610509898993192E-008
   2.4300000000000002E-002    -2.7914332563558473E-008
   2.4599999999999997E-002    -9.8660780660367405E-009
   2.4900000000000005E-002     1.2192973805949494E-007
   2.5200000000000000E-002    -6.2311403654996245E-008
   2.5499999999999995E-002    -3.8550334444081126E-007
   2.5800000000000003E-002     2.3847571955207393E-007
   2.6099999999999998E-002     1.1323987089637987E-006
   2.6400000000000007E-002    -2.0275404187753199E-007
   2.6700000000000002E-002    -3.2652759706524773E-006
   2.6999999999999996E-002    -2.2223164506515941E-006
   2.7300000000000005E-002     9.3874046619688693E-006
   2.7600000000000000E-002     3.2267158326680421E-005
   2.7900000000000008E-002     6.2323163621852225E-005
   2.8200000000000003E-002     9.8631026281539904E-005
   2.8499999999999998E-002     1.4851842268705565E-004
   2.8800000000000006E-002     2.2680318037531476E-004
   2.9100000000000001E-002     3.5353596204769773E-004
   2.9400000000000003E-002     5.5253101977875197E-004
   2.9700000000000004E-002     8.5319854982334777E-004
   3.0000000000000006E-002     1.2961797826721044E-003
   3.0300000000000001E-002     1.9391394463581808E-003
   3.0600000000000002E-002     2.8613529518284474E-003
   3.0900000000000004E-002     4.1676039148150750E-003
   3.1199999999999999E-002     5.9908942426768639E-003
   3.1500000000000007E-002     8.4945418516917046E-003
   3.1800000000000002E-002     1.1873656713016640E-002
   3.2099999999999997E-002     1.6355000225885815E-002
   3.2400000000000005E-002     2.2193588235626130E-002
   3.2700000000000000E-002     2.9660973079150318E-002
   3.3000000000000002E-002     3.9024172714973528E-002
   3.3300000000000003E-002     5.0519613007406906E-002
   3.3599999999999998E-002     6.4316980275822638E-002
   3.3900000000000000E-002     8.0473720060831408E-002
   3.4200000000000001E-002     9.8874693970439437E-002
   3.4500000000000003E-002    0.11917030552974947     
   3.4799999999999998E-002    0.14071329310408959     
   3.5099999999999999E-002    0.16249781029099369     
   3.5400000000000001E-002    0.18312453159546388     
   3.5699999999999996E-002    0.20077352208639349     
   3.6000000000000004E-002    0.21322315782948623     
   3.6299999999999999E-002    0.21791226854745452     
   3.6600000000000008E-002    0.21205735024150346     
   3.6900000000000002E-002    0.19283281060131041     
   3.7199999999999997E-002    0.15758643041641185     
   3.7500000000000006E-002    0.10413017386079182     
   3.7800000000000000E-002     3.1045756941310891E-002
   3.8100000000000009E-002    -6.2012640752518555E-002
   3.8400000000000004E-002   -0.17402729370158321     
   3.8699999999999998E-002   -0.30240087625665513     
   3.9000000000000007E-002   -0.44284819003747211     
   3.9300000000000002E-002   -0.58939961941922192     
   3.9600000000000003E-002   -0.73459946126762066     
   3.9900000000000005E-002   -0.86981020646018514     
   4.0200000000000000E-002   -0.98572310864128476     
   4.0500000000000001E-002    -1.0730003422371484     
   4.0800000000000003E-002    -1.1229525870351367     
   4.1100000000000005E-002    -1.1283238929016659     
   4.1399999999999999E-002    -1.0839606240897062     
   4.1700000000000008E-002   -0.98741035273218092     
   4.2000000000000003E-002   -0.83932689021827411     
   4.2299999999999997E-002   -0.64362954376215609     
   4.2600000000000006E-002   -0.40741910710577323     
   4.2900000000000001E-002   -0.14065289405077547     
   4.3200000000000002E-002    0.14454463372079843     
   4.3500000000000004E-002    0.43455226086124937     
   4.3799999999999999E-002    0.71528386825194878     
   4.4100000000000000E-002    0.97313613865801152     
   4.4400000000000002E-002     1.1958693718434046     
   4.4700000000000004E-002     1.3734391006565470     
   4.4999999999999998E-002     1.4986728177449911     
   4.5300000000000000E-002     1.5675183331147726     
   4.5600000000000002E-002     1.5792333344944665     
   4.5899999999999996E-002     1.5362559515546477     
   4.6200000000000005E-002     1.4437536081219506     
   4.6500000000000000E-002     1.3091477644720499     
   4.6799999999999994E-002     1.1414549919326493     
   4.7100000000000003E-002    0.95048428415325992     
   4.7399999999999998E-002    0.74621219210312739     
   4.7700000000000006E-002    0.53814174609250875     
   4.8000000000000001E-002    0.33470731249469132     
   4.8300000000000010E-002    0.14300427566691096     
   4.8600000000000004E-002    -3.1422455031152846E-002
   4.8899999999999999E-002   -0.18484549426740066     
   4.9200000000000008E-002   -0.31500132710083639     
   4.9500000000000002E-002   -0.42114384665004817     
   4.9800000000000011E-002   -0.50383564644850021     
   5.0100000000000006E-002   -0.56441084438608724     
   5.0400000000000000E-002   -0.60499516287704636     
   5.0700000000000009E-002   -0.62804934551794478     
   5.1000000000000004E-002   -0.63612590167696004     
   5.1299999999999998E-002   -0.63181041477931565     
   5.1600000000000007E-002   -0.61743528871899944     
   5.1900000000000002E-002   -0.59503055369119751     
   5.2200000000000010E-002   -0.56636710192501982     
   5.2500000000000005E-002   -0.53282918518620104     
   5.2800000000000000E-002   -0.49546301294552664     
   5.3099999999999994E-002   -0.45512242411767023     
   5.3400000000000003E-002   -0.41235880693090243     
   5.3699999999999998E-002   -0.36757208635916311     
   5.4000000000000006E-002   -0.32117327353013653     
   5.4300000000000001E-002   -0.27343477164903340     
   5.4599999999999996E-002   -0.22476134142759294     
   5.4900000000000004E-002   -0.17575425803976341     
   5.5199999999999999E-002   -0.12710206749662617     
   5.5499999999999994E-002    -7.9921583518038589E-002
   5.5800000000000002E-002    -3.5680536165770077E-002
   5.6099999999999997E-002     3.8545518735480363E-003
   5.6400000000000006E-002     3.6362048522052173E-002
   5.6700000000000000E-002     5.9243477544768122E-002
   5.6999999999999995E-002     6.9682580703192346E-002
   5.7300000000000004E-002     6.4691796931178033E-002
   5.7599999999999998E-002     4.1628707052259392E-002
   5.7900000000000007E-002    -1.6720155474124216E-003
   5.8200000000000002E-002    -6.6521740888462313E-002
   5.8499999999999996E-002   -0.15276507782353865     
   5.8800000000000005E-002   -0.25868384431225333     
   5.9100000000000000E-002   -0.38062474456036410     
   5.9400000000000008E-002   -0.51274260442750363     
   5.9700000000000003E-002   -0.64728016185784332     
   6.0000000000000012E-002   -0.77463776954754415     
   6.0300000000000006E-002   -0.88387325175733100     
   6.0600000000000001E-002   -0.96353390014008333     
   6.0900000000000010E-002    -1.0023866148156042     
   6.1200000000000004E-002   -0.99050050703823356     
   6.1500000000000013E-002   -0.92029721535503040     
   6.1800000000000008E-002   -0.78732012478842550     
   6.2100000000000002E-002   -0.59110188154714027     
   6.2399999999999997E-002   -0.33565027657061253     
   6.2700000000000006E-002    -2.9353745354591343E-002
   6.3000000000000000E-002    0.31515550606856979     
   6.3300000000000009E-002    0.68168688172720071     
   6.3600000000000004E-002     1.0516581324673178     
   6.3899999999999998E-002     1.4051574171605536     
   6.4199999999999993E-002     1.7225610431639773     
   6.4500000000000002E-002     1.9859670726245833     
   6.4800000000000010E-002     2.1802942671901100     
   6.5100000000000005E-002     2.2946698456584711     
   6.5400000000000000E-002     2.3229572498456825     
   6.5700000000000008E-002     2.2639917742793272     
   6.5999999999999989E-002     2.1218631549399576     
   6.6299999999999998E-002     1.9050983057659536     
   6.6600000000000006E-002     1.6259599067516721     
   6.6900000000000001E-002     1.2996198222337094     
   6.7199999999999996E-002    0.94262830437400091     
   6.7500000000000004E-002    0.57195210970981147     
   6.7800000000000013E-002    0.20385871260596453     
   6.8099999999999994E-002   -0.14721854482097169     
   6.8400000000000002E-002   -0.46909678321109488     
   6.8700000000000011E-002   -0.75250185305173600     
   6.8999999999999992E-002   -0.99122716854122395     
   6.9300000000000000E-002    -1.1819287581223488     
   6.9600000000000009E-002    -1.3239875670270675     
   6.9900000000000004E-002    -1.4190739802257069     
   7.0199999999999999E-002    -1.4705398499397040     
   7.0500000000000007E-002    -1.4829627546471735     
   7.0800000000000016E-002    -1.4616619090048799     
   7.1099999999999997E-002    -1.4122777689692532     
   7.1400000000000005E-002    -1.3403442457367261     
   7.1700000000000000E-002    -1.2512322025025282     
   7.1999999999999995E-002    -1.1499164031644713     
   7.2300000000000003E-002    -1.0409075091746969     
   7.2600000000000012E-002   -0.92847079601407456     
   7.2900000000000006E-002   -0.81642264345709581     
   7.3200000000000001E-002   -0.70827731004348204     
   7.3499999999999996E-002   -0.60739726001714978     
   7.3800000000000004E-002   -0.51665536224364494     
   7.4099999999999999E-002   -0.43854966215637514     
   7.4400000000000008E-002   -0.37511119250971175     
   7.4700000000000003E-002   -0.32753600303555069     
   7.5000000000000011E-002   -0.29615804866141426     
   7.5299999999999992E-002   -0.28030263544943762     
   7.5600000000000001E-002   -0.27780381471749832     
   7.5900000000000009E-002   -0.28531902084697081     
   7.6200000000000004E-002   -0.29822257177688893     
   7.6499999999999999E-002   -0.31036651097826073     
   7.6800000000000007E-002   -0.31497384866458877     
   7.7099999999999988E-002   -0.30449812033018597     
   7.7399999999999997E-002   -0.27109714775564631     
   7.7700000000000005E-002   -0.20786249046990862     
   7.8000000000000014E-002   -0.10867723468728857     
   7.8299999999999995E-002     3.0730602498122553E-002
   7.8600000000000003E-002    0.21173326254350672     
   7.8900000000000012E-002    0.43318762821864448     
   7.9199999999999993E-002    0.69020769613598520     
   7.9500000000000001E-002    0.97422381446546602     
   7.9800000000000010E-002     1.2737897243025824     
   8.0100000000000018E-002     1.5739328756242998     
   8.0399999999999999E-002     1.8576216043854645     
   8.0700000000000008E-002     2.1069771678003768     
   8.1000000000000003E-002     2.3035270494594982     
   8.1299999999999997E-002     2.4305662123797096     
   8.1600000000000006E-002     2.4741759405753130     
   8.1900000000000014E-002     2.4239607513061627     
   8.2199999999999995E-002     2.2748989626197265     
   8.2500000000000004E-002     2.0275038916563148     
   8.2799999999999999E-002     1.6879351658130468     
   8.3100000000000007E-002     1.2684572039770470     
   8.3400000000000002E-002    0.78620991885676939     
   8.3700000000000011E-002    0.26232155285553371     
   8.4000000000000005E-002   -0.27903078990878344     
   8.4300000000000000E-002   -0.81269494851337620     
   8.4599999999999995E-002    -1.3140181919537237     
   8.4900000000000003E-002    -1.7600029849400531     
   8.5199999999999998E-002    -2.1313380309052490     
   8.5500000000000007E-002    -2.4131350926360016     
   8.5800000000000001E-002    -2.5955222111787344     
   8.6100000000000010E-002    -2.6744468545064590     
   8.6399999999999991E-002    -2.6513185151466221     
   8.6699999999999999E-002    -2.5324660851689069     
   8.7000000000000008E-002    -2.3290370168006933     
   8.7300000000000003E-002    -2.0555891764458027     
   8.7599999999999997E-002    -1.7291951276277373     
   8.7900000000000006E-002    -1.3687599325220299     
   8.8200000000000014E-002   -0.99333387955101937     
   8.8499999999999995E-002   -0.62152380492996495     
   8.8800000000000004E-002   -0.27083305092621690     
   8.9100000000000013E-002     4.3855690401190833E-002
   8.9399999999999993E-002    0.31032126949194128     
   8.9700000000000002E-002    0.51967644694620896     
   9.0000000000000011E-002    0.66748094691174842     
   9.0299999999999991E-002    0.75328265374276948     
   9.0600000000000000E-002    0.78117443938720699     
   9.0900000000000009E-002    0.76008722684447017     
   9.1200000000000017E-002    0.70270664630538493     
   9.1499999999999998E-002    0.62526307319756935     
   9.1800000000000007E-002    0.54666578500946772     
   9.2100000000000001E-002    0.48632624361916721     
   9.2399999999999996E-002    0.46320295690721996     
   9.2700000000000005E-002    0.49370879618184360     
   9.3000000000000013E-002    0.58920800537658657     
   9.3300000000000008E-002    0.75526061429293978     
   9.3600000000000003E-002    0.98982683460992393     
   9.3899999999999997E-002     1.2822070894854840     
   9.4200000000000006E-002     1.6140851674115619     
   9.4500000000000001E-002     1.9596027269681620     
   9.4800000000000009E-002     2.2872482367230589     
   9.5100000000000004E-002     2.5630752219599628     
   9.5399999999999999E-002     2.7527119221135701     
   9.5699999999999993E-002     2.8252443497860740     
   9.6000000000000002E-002     2.7566550973102246     
   9.6300000000000011E-002     2.5317354276981172     
   9.6600000000000005E-002     2.1469570224099481     
   9.6900000000000000E-002     1.6112548530708828     
   9.7200000000000009E-002    0.94550370557661045     
   9.7499999999999989E-002    0.18207689987192432     
   9.7799999999999998E-002   -0.63798596094549032     
   9.8100000000000007E-002    -1.4683132245014261     
   9.8400000000000015E-002    -2.2602730392102575     
   9.8699999999999996E-002    -2.9674534182224370     
   9.9000000000000005E-002    -3.5493644122111565     
   9.9300000000000013E-002    -3.9740945021847729     
   9.9599999999999994E-002    -4.2211021017137398     
   9.9900000000000003E-002    -4.2823579722004075     
  0.10020000000000001         -4.1620528358167999     
  0.10049999999999999         -3.8761486665830027     
  0.10080000000000000         -3.4501403435850628     
  0.10110000000000001         -2.9160581621170873     
  0.10140000000000000         -2.3101321602590041     
  0.10170000000000000         -1.6689182729651635     
  0.10200000000000001         -1.0264705817661974     
  0.10230000000000002        -0.41260729476364544     
  0.10260000000000000         0.14972569926842666     
  0.10290000000000001         0.64490440644868952     
  0.10320000000000000          1.0644040401828099     
  0.10350000000000001          1.4066750175874634     
  0.10380000000000000          1.6754337543772613     
  0.10410000000000001          1.8778722069030191     
  0.10440000000000001          2.0232523783959993     
  0.10470000000000000          2.1206238093563812     
  0.10500000000000000          2.1774061756250478     
  0.10530000000000000          2.1987198589790240     
  0.10560000000000000          2.1862222956173873     
  0.10590000000000001          2.1385836190808050     
  0.10620000000000000          2.0521562298252931     
  0.10650000000000001          1.9215432856943631     
  0.10679999999999999          1.7414947151215621     
  0.10710000000000000          1.5081129443742087     
  0.10740000000000001          1.2200894106004028     
  0.10770000000000000         0.88025362476862667     
  0.10800000000000000         0.49593975549698743     
  0.10830000000000001          7.9237032749907857E-002
  0.10859999999999999        -0.35326952920786930     
  0.10890000000000000        -0.78161469621389146     
  0.10920000000000001         -1.1838685084960934     
  0.10950000000000001         -1.5377564008461400     
  0.10979999999999999         -1.8225917402677123     
  0.11009999999999999         -2.0213135459152296     
  0.11040000000000001         -2.1219353007774053     
  0.11070000000000001         -2.1186436499135466     
  0.11100000000000000         -2.0126424154358653     
  0.11130000000000000         -1.8120207393186800     
  0.11160000000000002         -1.5309238338463078     
  0.11190000000000001         -1.1885768727558021     
  0.11220000000000001        -0.80755299057225505     
  0.11250000000000000        -0.41164714551352383     
  0.11280000000000000         -2.4322901610877051E-002
  0.11309999999999999         0.33342596607575692     
  0.11340000000000001         0.64451327578309048     
  0.11369999999999998         0.89662267081698088     
  0.11400000000000000          1.0830341825632657     
  0.11430000000000000          1.2021533990464195     
  0.11460000000000002          1.2571439190908626     
  0.11489999999999999          1.2552971205971046     
  0.11520000000000001          1.2059842919587855     
  0.11550000000000001          1.1199949711021548     
  0.11580000000000000          1.0084169967048875     
  0.11609999999999999         0.88072267006728722     
  0.11640000000000002         0.74486938571028261     
  0.11670000000000001         0.60670175552893912     
  0.11700000000000001         0.46963094126805860     
  0.11730000000000000         0.33578834663298529     
  0.11760000000000000         0.20606025668482952     
  0.11789999999999999          8.1019678827138356E-002
  0.11820000000000001         -3.7832058362018868E-002
  0.11850000000000001        -0.14819854168477850     
  0.11880000000000000        -0.24602927789935247     
  0.11910000000000000        -0.32531806490229404     
  0.11940000000000002        -0.37925114121071568     
  0.11970000000000001        -0.40014295913607978     
  0.12000000000000001        -0.38051955674229732     
  0.12030000000000000        -0.31495821241329458     
  0.12060000000000000        -0.20035047667325015     
  0.12089999999999999         -3.7281145822817302E-002
  0.12119999999999999         0.16890019498551689     
  0.12150000000000001         0.40869452833382719     
  0.12180000000000001         0.66783452359268225     
  0.12210000000000000         0.92808542589109688     
  0.12239999999999999          1.1692343337431979     
  0.12270000000000002          1.3694671484511296     
  0.12300000000000001          1.5076921353971213     
  0.12330000000000001          1.5656546496745358     
  0.12360000000000000          1.5285428117920534     
  0.12390000000000000          1.3874447297303611     
  0.12419999999999999          1.1400671483610321     
  0.12450000000000001         0.79075242932561951     
  0.12480000000000001         0.35162750331376169     
  0.12509999999999999        -0.15872328565417071     
  0.12540000000000001        -0.71592876577927145     
  0.12570000000000003         -1.2903128150553451     
  0.12600000000000000         -1.8495944488910590     
  0.12630000000000002         -2.3599155837319552     
  0.12659999999999999         -2.7877565330926837     
  0.12690000000000001         -3.1027148156977522     
  0.12719999999999998         -3.2786041034319098     
  0.12750000000000000         -3.2957359270439612     
  0.12780000000000002         -3.1427548371731917     
  0.12809999999999999         -2.8172562529051843     
  0.12840000000000001         -2.3271856442175576     
  0.12869999999999998         -1.6909730557259759     
  0.12900000000000000        -0.93692533410718304     
  0.12930000000000003        -0.10235215165155767     
  0.12959999999999999         0.76818217407976563     
  0.12990000000000002          1.6254088360621104     
  0.13019999999999998          2.4180880452580498     
  0.13050000000000000          3.0963314598288099     
  0.13080000000000003          3.6150143485485020     
  0.13109999999999999          3.9370546164804363     
  0.13140000000000002          4.0361922772398877     
  0.13169999999999998          3.8994972073260064     
  0.13200000000000001          3.5288073485848916     
  0.13229999999999997          2.9410411219883423     
  0.13260000000000000          2.1678102924032951     
  0.13290000000000002          1.2535764326560537     
  0.13319999999999999         0.25291120967099900     
  0.13350000000000001        -0.77296774570479365     
  0.13380000000000003         -1.7603677894676837     
  0.13410000000000000         -2.6475553064110890     
  0.13440000000000002         -3.3790482964686612     
  0.13469999999999999         -3.9097557297409669     
  0.13500000000000001         -4.2080716925952677     
  0.13529999999999998         -4.2580272870765130     
  0.13560000000000000         -4.0608351243784835     
  0.13590000000000002         -3.6342189110161844     
  0.13619999999999999         -3.0110848502799423     
  0.13650000000000001         -2.2373755493766470     
  0.13680000000000003         -1.3679662907498713     
  0.13710000000000000        -0.46297818008607461     
  0.13740000000000002         0.41682030691831073     
  0.13769999999999999          1.2147714884149499     
  0.13800000000000001          1.8818483441264262     
  0.13829999999999998          2.3804199632237215     
  0.13860000000000000          2.6867133453710537     
  0.13890000000000002          2.7919047817144760     
  0.13919999999999999          2.7024497525918076     
  0.13950000000000001          2.4389907099523755     
  0.13979999999999998          2.0340826867033064     
  0.14010000000000000          1.5292954840466044     
  0.14040000000000002         0.97151878675707626     
  0.14069999999999999         0.40866468110651677     
  0.14100000000000001        -0.11395632775413034     
  0.14130000000000004        -0.55752695573186783     
  0.14160000000000000        -0.89289811377329875     
  0.14189999999999997         -1.1021645226193755     
  0.14219999999999999         -1.1802305418012078     
  0.14250000000000002         -1.1344656392830124     
  0.14279999999999998        -0.98292003829043684     
  0.14310000000000000        -0.75283762417252509     
  0.14339999999999997        -0.47705189364114209     
  0.14369999999999999        -0.19023149609658513     
  0.14400000000000002          7.4055124907882394E-002
  0.14429999999999998         0.28749854568629801     
  0.14460000000000001         0.42957450838472855     
  0.14490000000000003         0.48924063109179161     
  0.14520000000000000         0.46641682660273870     
  0.14550000000000002         0.37114901505039777     
  0.14579999999999999         0.22235156776528442     
  0.14610000000000001          4.5796303586061751E-002
  0.14640000000000003        -0.12945081784101692     
  0.14670000000000000        -0.27413782883653603     
  0.14699999999999996        -0.36223623546580763     
  0.14729999999999999        -0.37445080100472505     
  0.14760000000000001        -0.30012137352520440     
  0.14789999999999998        -0.13875763759603099     
  0.14820000000000000          9.9307319818037615E-002