  -1.4999999999999999E-002     0.0000000000000000     
  -1.4700000000000000E-002     0.0000000000000000     
  -1.4400000000000000E-002     0.0000000000000000     
  -1.4100000000000000E-002     0.0000000000000000     
  -1.3800000000000000E-002     0.0000000000000000     
  -1.3500000000000000E-002     0.0000000000000000     
  -1.3200000000000000E-002     0.0000000000000000     
  -1.2899999999999998E-002     0.0000000000000000     
  -1.2600000000000000E-002     0.0000000000000000     
  -1.2299999999999998E-002     0.0000000000000000     
  -1.2000000000000000E-002     0.0000000000000000     
  -1.1699999999999999E-002     0.0000000000000000     
  -1.1399999999999999E-002     0.0000000000000000     
  -1.1099999999999999E-002     0.0000000000000000     
  -1.0799999999999999E-002     0.0000000000000000     
  -1.0499999999999999E-002     0.0000000000000000     
  -1.0199999999999999E-002     0.0000000000000000     
  -9.8999999999999991E-003     0.0000000000000000     
  -9.5999999999999992E-003     0.0000000000000000     
  -9.2999999999999992E-003     0.0000000000000000     
  -8.9999999999999993E-003     0.0000000000000000     
  -8.6999999999999994E-003     0.0000000000000000     
  -8.3999999999999995E-003     0.0000000000000000     
  -8.0999999999999996E-003     0.0000000000000000     
  -7.7999999999999988E-003     0.0000000000000000     
  -7.4999999999999997E-003     0.0000000000000000     
  -7.1999999999999998E-003     0.0000000000000000     
  -6.8999999999999981E-003     0.0000000000000000     
  -6.5999999999999982E-003     0.0000000000000000     
  -6.3000000000000000E-003     0.0000000000000000     
  -6.0000000000000001E-003     0.0000000000000000     
  -5.6999999999999985E-003     0.0000000000000000     
  -5.3999999999999986E-003     0.0000000000000000     
  -5.1000000000000004E-003     0.0000000000000000     
  -4.7999999999999987E-003     0.0000000000000000     
  -4.5000000000000005E-003     0.0000000000000000     
  -4.1999999999999989E-003     0.0000000000000000     
  -3.8999999999999990E-003     0.0000000000000000     
  -3.5999999999999990E-003     0.0000000000000000     
  -3.2999999999999991E-003     0.0000000000000000     
  -2.9999999999999992E-003     0.0000000000000000     
  -2.6999999999999993E-003     0.0000000000000000     
  -2.3999999999999994E-003     0.0000000000000000     
  -2.0999999999999977E-003     0.0000000000000000     
  -1.7999999999999995E-003     0.0000000000000000     
  -1.4999999999999979E-003     0.0000000000000000     
  -1.1999999999999997E-003     0.0000000000000000     
  -8.9999999999999976E-004     0.0000000000000000     
  -5.9999999999999810E-004     0.0000000000000000     
  -2.9999999999999992E-004     2.5632495585441138E-042
   0.0000000000000000         -2.0898697936856478E-041
   3.0000000000000165E-004     5.0339486733076208E-039
   5.9999999999999984E-004    -5.3196509562425558E-038
   9.0000000000000149E-004    -3.6725079376563317E-037
   1.2000000000000031E-003     8.6444226557881386E-037
   1.5000000000000013E-003     4.6685654879437711E-037
   1.8000000000000030E-003    -1.9099881595170374E-035
   2.1000000000000012E-003     3.7585749963516345E-035
   2.3999999999999994E-003     9.5635847236534395E-035
   2.7000000000000010E-003    -5.0602403489621419E-034
   2.9999999999999992E-003    -3.9993371053297751E-035
   3.3000000000000008E-003     1.5965315778714900E-033
   3.6000000000000025E-003     1.4663371321703353E-032
   3.9000000000000007E-003    -7.0984420676311932E-032
   4.2000000000000023E-003    -2.8042771934244177E-031
   4.5000000000000005E-003     4.1816437866811889E-030
   4.7999999999999987E-003    -1.6807235937960098E-029
   5.1000000000000004E-003    -1.1499819440174630E-029
   5.4000000000000020E-003     4.7059231352247715E-028
   5.7000000000000037E-003    -2.5352179957608125E-027
   5.9999999999999984E-003     5.9174941941965708E-027
   6.3000000000000000E-003     8.2401379900841425E-027
   6.6000000000000017E-003    -1.3163575436557375E-025
   6.9000000000000034E-003     5.9831679927105978E-025
   7.2000000000000015E-003    -1.5926276268848632E-024
   7.5000000000000032E-003     1.8744311120843382E-024
   7.8000000000000014E-003     5.3801058318929686E-024
   8.0999999999999996E-003    -3.9472882368064040E-023
   8.4000000000000012E-003     1.3099645651405982E-022
   8.7000000000000029E-003    -2.6955175770048063E-022
   9.0000000000000011E-003     1.9437293528326228E-022
   9.2999999999999992E-003     1.1431718888441266E-021
   9.6000000000000009E-003    -6.5481763278374388E-021
   9.8999999999999991E-003     2.1656520949836764E-020
   1.0200000000000001E-002    -5.5442619358383333E-020
   1.0500000000000002E-002     1.2451415471035526E-019
   1.0800000000000004E-002    -3.0329311094759337E-019
   1.1099999999999999E-002     1.0454353081725356E-018
   1.1400000000000000E-002    -4.7509056584961746E-018
   1.1700000000000002E-002     2.2347286674164140E-017
   1.2000000000000004E-002    -9.8385831247184376E-017
   1.2300000000000002E-002     3.9889769273408126E-016
   1.2600000000000000E-002    -1.4837941213468432E-015
   1.2900000000000002E-002     4.9593925033196772E-015
   1.3200000000000000E-002    -1.3967092861893852E-014
   1.3500000000000002E-002     2.6737789157914011E-014
   1.3800000000000003E-002     1.2163065294757921E-014
   1.4100000000000001E-002    -4.1897552676726021E-013
   1.4400000000000000E-002     2.3129331751284664E-012
   1.4700000000000001E-002    -7.9864535389540961E-012
   1.4999999999999999E-002     1.6942704263530048E-011
   1.5300000000000001E-002    -6.6315580831209420E-012
   1.5600000000000003E-002    -1.0000728221136348E-010
   1.5899999999999997E-002     3.7287141975755108E-010
   1.6199999999999999E-002    -4.5276481324425325E-010
   1.6500000000000001E-002    -9.6577858539637559E-010
   1.6800000000000002E-002     4.2713696777608532E-009
   1.7100000000000004E-002    -2.3994163637218362E-009
   1.7400000000000006E-002    -1.5630614145005875E-008
   1.7700000000000000E-002     2.3889729162080483E-008
   1.8000000000000002E-002     4.5752893141355811E-008
   1.8300000000000004E-002    -1.0396567176106571E-007
   1.8600000000000005E-002    -1.7932829779042803E-007
   1.8900000000000000E-002     2.4915154806627914E-007
   1.9200000000000002E-002     6.3726771821787955E-007
   1.9500000000000003E-002    -2.6584084288661897E-007
   1.9799999999999998E-002    -1.7993317165743668E-006
   2.0100000000000000E-002    -4.2120712899963547E-007
   2.0400000000000001E-002     6.3327366223881829E-006
   2.0700000000000003E-002     1.5751154684819036E-005
   2.0999999999999998E-002     2.3279996217482712E-005
   2.1299999999999999E-002     3.0679105991363217E-005
   2.1600000000000001E-002     4.7353122393122484E-005
   2.1900000000000003E-002     8.1648511154345564E-005
   2.2200000000000004E-002     1.3436820158017654E-004
   2.2500000000000006E-002     2.0537206167496629E-004
   2.2800000000000001E-002     3.0572326021845316E-004
   2.3100000000000002E-002     4.5882707026748733E-004
   2.3400000000000004E-002     6.8979309406097208E-004
   2.3699999999999999E-002     1.0204678552318183E-003
   2.4000000000000000E-002     1.4794485378511958E-003
   2.4300000000000002E-002     2.1138879441277543E-003
   2.4599999999999997E-002     2.9874455431383503E-003
   2.4900000000000005E-002     4.1692679232024606E-003
   2.5200000000000000E-002     5.7314533132670105E-003
   2.5499999999999995E-002     7.7576724351982318E-003
   2.5800000000000003E-002     1.0346485662037525E-002
   2.6099999999999998E-002     1.3599436864486683E-002
   2.6400000000000007E-002     1.7603856007721623E-002
   2.6700000000000002E-002     2.2423119290009411E-002
   2.6999999999999996E-002     2.8090786365174727E-002
   2.7300000000000005E-002     3.4597998447197367E-002
   2.7600000000000000E-002     4.1868270894726486E-002
   2.7900000000000008E-002     4.9729718581060671E-002
   2.8200000000000003E-002     5.7900198774559361E-002
   2.8499999999999998E-002     6.5984135951132103E-002
   2.8800000000000006E-002     7.3469325260191509E-002
   2.9100000000000001E-002     7.9723047330352043E-002
   2.9400000000000003E-002     8.4000590826866645E-002
   2.9700000000000004E-002     8.5479606527922677E-002
   3.0000000000000006E-002     8.3324498406526545E-002
   3.0300000000000001E-002     7.6750400951573788E-002
   3.0600000000000002E-002     6.5095224637525276E-002
   3.0900000000000004E-002     4.7887814685125894E-002
   3.1199999999999999E-002     2.4937280069497986E-002
   3.1500000000000007E-002    -3.5721786248514844E-003
   3.1800000000000002E-002    -3.7025457336273923E-002
   3.2099999999999997E-002    -7.4353881628042212E-002
   3.2400000000000005E-002   -0.11405745765953684     
   3.2700000000000000E-002   -0.15425674915874740     
   3.3000000000000002E-002   -0.19275587845764444     
   3.3300000000000003E-002   -0.22718390774969599     
   3.3599999999999998E-002   -0.25519059939691185     
   3.3900000000000000E-002   -0.27463095530138659     
   3.4200000000000001E-002   -0.28374835127830422     
   3.4500000000000003E-002   -0.28134263160894674     
   3.4799999999999998E-002   -0.26692700640655109     
   3.5099999999999999E-002   -0.24083764817630249     
   3.5400000000000001E-002   -0.20425235936841266     
   3.5699999999999996E-002   -0.15913226164657623     
   3.6000000000000004E-002   -0.10813031291589467     
   3.6299999999999999E-002    -5.4432265083882048E-002
   3.6600000000000008E-002    -1.5251674642861790E-003
   3.6900000000000002E-002     4.7045941131003924E-002
   3.7199999999999997E-002     8.7937661647479265E-002
   3.7500000000000006E-002    0.11824039986259949     
   3.7800000000000000E-002    0.13567555169680959     
   3.8100000000000009E-002    0.13877761617997189     
   3.8400000000000004E-002    0.12693553640283478     
   3.8699999999999998E-002    0.10047618705067052     
   3.9000000000000007E-002     6.0664878089309718E-002
   3.9300000000000002E-002     9.5421881562219625E-003
   3.9600000000000003E-002    -5.0140644106555485E-002
   3.9900000000000005E-002   -0.11506528023994150     
   4.0200000000000000E-002   -0.18153271123730666     
   4.0500000000000001E-002   -0.24560162423741588     
   4.0800000000000003E-002   -0.30335021314758981     
   4.1100000000000005E-002   -0.35104172074756923     
   4.1399999999999999E-002   -0.38524125710463025     
   4.1700000000000008E-002   -0.40305103018947874     
   4.2000000000000003E-002   -0.40224911860050411     
   4.2299999999999997E-002   -0.38138182937149051     
   4.2600000000000006E-002   -0.33994561814265489     
   4.2900000000000001E-002   -0.27835432178403813     
   4.3200000000000002E-002   -0.19798913078143066     
   4.3500000000000004E-002   -0.10117435533187100     
   4.3799999999999999E-002     8.9934308533676510E-003
   4.4100000000000000E-002    0.12871369369612654     
   4.4400000000000002E-002    0.25376754711055133     
   4.4700000000000004E-002    0.37977760377390729     
   4.4999999999999998E-002    0.50236328267531516     
   4.5300000000000000E-002    0.61743696118436220     
   4.5600000000000002E-002    0.72142848127816528     
   4.5899999999999996E-002    0.81143826896325832     
   4.6200000000000005E-002    0.88530153818776147     
   4.6500000000000000E-002    0.94158574126096806     
   4.6799999999999994E-002    0.97957977836022114     
   4.7100000000000003E-002    0.99916329317524144     
   4.7399999999999998E-002     1.0006590941910485     
   4.7700000000000006E-002    0.98462844674167771     
   4.8000000000000001E-002    0.95172656770141373     
   4.8300000000000010E-002    0.90264037042136280     
   4.8600000000000004E-002    0.83792700315830126     
   4.8899999999999999E-002    0.75798770482630573     
   4.9200000000000008E-002    0.66321526732730485     
   4.9500000000000002E-002    0.55409865278714021     
   4.9800000000000011E-002    0.43143597175482240     
   5.0100000000000006E-002    0.29642628392299974     
   5.0400000000000000E-002    0.15083157262635266     
   5.0700000000000009E-002    -2.6686305536023549E-003
   5.1000000000000004E-002   -0.16050381823316037     
   5.1299999999999998E-002   -0.31829236762791874     
   5.1600000000000007E-002   -0.47088878669828116     
   5.1900000000000002E-002   -0.61263748215904534     
   5.2200000000000010E-002   -0.73758312393932113     
   5.2500000000000005E-002   -0.83986005263890096     
   5.2800000000000000E-002   -0.91435181838953894     
   5.3099999999999994E-002   -0.95691156680716594     
   5.3400000000000003E-002   -0.96473155101486108     
   5.3699999999999998E-002   -0.93675682610040401     
   5.4000000000000006E-002   -0.87374596554476591     
   5.4300000000000001E-002   -0.77847226480070619     
   5.4599999999999996E-002   -0.65559846177975967     
   5.4900000000000004E-002   -0.51130188963619472     
   5.5199999999999999E-002   -0.35311073560234119     
   5.5499999999999994E-002   -0.18936244931393378     
   5.5800000000000002E-002    -2.8659326866720292E-002
   5.6099999999999997E-002    0.12044590505900837     
   5.6400000000000006E-002    0.25006925364100557     
   5.6700000000000000E-002    0.35348067622449753     
   5.6999999999999995E-002    0.42529632046054433     
   5.7300000000000004E-002    0.46184535005914740     
   5.7599999999999998E-002    0.46126692656376234     
   5.7900000000000007E-002    0.42357496827046476     
   5.8200000000000002E-002    0.35076102908032014     
   5.8499999999999996E-002    0.24655074547991473     
   5.8800000000000005E-002    0.11628634620798781     
   5.9100000000000000E-002    -3.3326160353812383E-002
   5.9400000000000008E-002   -0.19464301265588316     
   5.9700000000000003E-002   -0.35935463850336974     
   6.0000000000000012E-002   -0.51892972476626609     
   6.0300000000000006E-002   -0.66524189439445380     
   6.0600000000000001E-002   -0.79098980358829485     
   6.0900000000000010E-002   -0.89013351423183207     
   6.1200000000000004E-002   -0.95832254710807607     
   6.1500000000000013E-002   -0.99332302622706714     
   6.1800000000000008E-002   -0.99518341826159484     
   6.2100000000000002E-002   -0.96606173990280930     
   6.2399999999999997E-002   -0.91013754444210537     
   6.2700000000000006E-002   -0.83327183134829574     
   6.3000000000000000E-002   -0.74247259959966083     
   6.3300000000000009E-002   -0.64519313089174224     
   6.3600000000000004E-002   -0.54860342066270096     
   6.3899999999999998E-002   -0.45890160024054194     
   6.4199999999999993E-002   -0.38060363085340720     
   6.4500000000000002E-002   -0.31621668068298592     
   6.4800000000000010E-002   -0.26606294214059889     
   6.5100000000000005E-002   -0.22807064555901269     
   6.5400000000000000E-002   -0.19796851547204350     
   6.5700000000000008E-002   -0.16970702667992724     
   6.5999999999999989E-002   -0.13613727850566940     
   6.6299999999999998E-002    -8.9823228634310068E-002
   6.6600000000000006E-002    -2.3684064703638708E-002
   6.6900000000000001E-002     6.8262547821351299E-002
   6.7199999999999996E-002    0.19026669744569921     
   6.7500000000000004E-002    0.34418664189806442     
   6.7800000000000013E-002    0.52887220901100795     
   6.8099999999999994E-002    0.74022986973825333     
   6.8400000000000002E-002    0.97123596424382264     
   6.8700000000000011E-002     1.2119820132211463     
   6.8999999999999992E-002     1.4501374462643239     
   6.9300000000000000E-002     1.6714793159010304     
   6.9600000000000009E-002     1.8608145172810850     
   6.9900000000000004E-002     2.0029255566371793     
   7.0199999999999999E-002     2.0834719150018723     
   7.0500000000000007E-002     2.0901008146578501     
   7.0800000000000016E-002     2.0135946230044035     
   7.1099999999999997E-002     1.8487195690321423     
   7.1400000000000005E-002     1.5950033649175388     
   7.1700000000000000E-002     1.2571301649664397     
   7.1999999999999995E-002    0.84528745141923300     
   7.2300000000000003E-002    0.37484821678671509     
   7.2600000000000012E-002   -0.13448939645946320     
   7.2900000000000006E-002   -0.65959047995944498     
   7.3200000000000001E-002    -1.1751654173957862     
   7.3499999999999996E-002    -1.6553264317798826     
   7.3800000000000004E-002    -2.0752188067218165     
   7.4099999999999999E-002    -2.4126682110308426     
   7.4400000000000008E-002    -2.6495293021134976     
   7.4700000000000003E-002    -2.7727022137596542     
   7.5000000000000011E-002    -2.7749072000026977     
   7.5299999999999992E-002    -2.6549295995124509     
   7.5600000000000001E-002    -2.4175700802109046     
   7.5900000000000009E-002    -2.0732936951195633     
   7.6200000000000004E-002    -1.6372693390124931     
   7.6499999999999999E-002    -1.1285309666065841     
   7.6800000000000007E-002   -0.56902564451593685     
   7.7099999999999988E-002     1.7545388939485859E-002
   7.7399999999999997E-002    0.60678048878682822     
   7.7700000000000005E-002     1.1746444686555439     
   7.8000000000000014E-002     1.6983729800079137     
   7.8299999999999995E-002     2.1572960850356102     
   7.8600000000000003E-002     2.5336451098900907     
   7.8900000000000012E-002     2.8132026916308011     
   7.9199999999999993E-002     2.9858336986225420     
   7.9500000000000001E-002     3.0461060530755888     
   7.9800000000000010E-002     2.9933697070409817     
   8.0100000000000018E-002     2.8316261396958127     
   8.0399999999999999E-002     2.5694831581381639     
   8.0700000000000008E-002     2.2196078262824441     
   8.1000000000000003E-002     1.7978984558148210     
   8.1299999999999997E-002     1.3224566319174864     
   8.1600000000000006E-002    0.81253512548985496     
   8.1900000000000014E-002    0.28760116173705780     
   8.2199999999999995E-002   -0.23374219223347806     
   8.2500000000000004E-002   -0.73465282771618434     
   8.2799999999999999E-002    -1.2004112926400734     
   8.3100000000000007E-002    -1.6186546465418150     
   8.3400000000000002E-002    -1.9792881489553369     
   8.3700000000000011E-002    -2.2743665896519598     
   8.4000000000000005E-002    -2.4978417523222070     
   8.4300000000000000E-002    -2.6450784175519200     
   8.4599999999999995E-002    -2.7125670406835494     
   8.4900000000000003E-002    -2.6980756036852012     
   8.5199999999999998E-002    -2.6008733857377901     
   8.5500000000000007E-002    -2.4220290860067766     
   8.5800000000000001E-002    -2.1651602975226196     
   8.6100000000000010E-002    -1.8368614971245885     
   8.6399999999999991E-002    -1.4469134730585358     
   8.6699999999999999E-002    -1.0085928584469026     
   8.7000000000000008E-002   -0.53858140981558877     
   8.7300000000000003E-002    -5.6248203212519152E-002
   8.7599999999999997E-002    0.41765776904501539     
   8.7900000000000006E-002    0.86239410125572724     
   8.8200000000000014E-002     1.2585207275291708     
   8.8499999999999995E-002     1.5896176664831128     
   8.8800000000000004E-002     1.8437529961090346     
   8.9100000000000013E-002     2.0143640663145175     
   8.9399999999999993E-002     2.1006927526262249     
   8.9700000000000002E-002     2.1075141524051864     
   9.0000000000000011E-002     2.0441589317334801     
   9.0299999999999991E-002     1.9235346883298510     
   9.0600000000000000E-002     1.7605478598968551     
   9.0900000000000009E-002     1.5698044348037490     
   9.1200000000000017E-002     1.3641539504957487     
   9.1499999999999998E-002     1.1538311841367139     
   9.1800000000000007E-002    0.94542645060429242     
   9.2100000000000001E-002    0.74130999668176245     
   9.2399999999999996E-002    0.54003600111928940     
   9.2700000000000005E-002    0.33751928972052481     
   9.3000000000000013E-002    0.12839802173937798     
   9.3300000000000008E-002    -9.2917369818952197E-002
   9.3600000000000003E-002   -0.33089954024009205     
   9.3899999999999997E-002   -0.58725583183011476     
   9.4200000000000006E-002   -0.86007533048149232     
   9.4500000000000001E-002    -1.1434238451177328     
   9.4800000000000009E-002    -1.4273915666192933     
   9.5100000000000004E-002    -1.6986649944148213     
   9.5399999999999999E-002    -1.9412959868571420     
   9.5699999999999993E-002    -2.1378422622573341     
   9.6000000000000002E-002    -2.2710204061123078     
   9.6300000000000011E-002    -2.3253872131768882     
   9.6600000000000005E-002    -2.2886020646512284     
   9.6900000000000000E-002    -2.1527443124826222     
   9.7200000000000009E-002    -1.9156411154547222     
   9.7499999999999989E-002    -1.5814848998302273     
   9.7799999999999998E-002    -1.1610643816305735     
   9.8100000000000007E-002   -0.67156023307152268     
   9.8400000000000015E-002   -0.13590192527357120     
   9.8699999999999996E-002    0.41843457388708472     
   9.9000000000000005E-002    0.96153300974858968     
   9.9300000000000013E-002     1.4628253329752543     
   9.9599999999999994E-002     1.8929752806973892     
   9.9900000000000003E-002     2.2268689654005804     
  0.10020000000000001          2.4456553397038316     
  0.10049999999999999          2.5379170791507248     
  0.10080000000000000          2.5010078739048116     
  0.10110000000000001          2.3413234212300282     
  0.10140000000000000          2.0737509357811232     
  0.10170000000000000          1.7204230625643300     
  0.10200000000000001          1.3082565383862130     
  0.10230000000000002         0.86654557655072173     
  0.10260000000000000         0.42447370194986322     
  0.10290000000000001          8.1438489206107009E-003
  0.10320000000000000        -0.36150182985398288     
  0.10350000000000001        -0.67037033844236893     
  0.10380000000000000        -0.91206824795345320     
  0.10410000000000001         -1.0871994148720989     
  0.10440000000000001         -1.2025653588929441     
  0.10470000000000000         -1.2697702060041756     
  0.10500000000000000         -1.3026211930894873     
  0.10530000000000000         -1.3150295119630724     
  0.10560000000000000         -1.3189408295537917     
  0.10590000000000001         -1.3227198464668080     
  0.10620000000000000         -1.3309457447930386     
  0.10650000000000001         -1.3438541612527724     
  0.10679999999999999         -1.3577987648276826     
  0.10710000000000000         -1.3671394537068071     
  0.10740000000000001         -1.3657978427182664     
  0.10770000000000000         -1.3488968253425817     
  0.10800000000000000         -1.3140321824826822     
  0.10830000000000001         -1.2618748047401556     
  0.10859999999999999         -1.1968343262756989     
  0.10890000000000000         -1.1264470312984893     
  0.10920000000000001         -1.0595474915364740     
  0.10950000000000001         -1.0049340335396455     
  0.10979999999999999        -0.96946825435240536     
  0.11009999999999999        -0.95581351841795792     
  0.11040000000000001        -0.96123801778942042     
  0.11070000000000001        -0.97693939070952029     
  0.11100000000000000        -0.98790315306718623     
  0.11130000000000000        -0.97412692033629567     
  0.11160000000000002        -0.91234371354467170     
  0.11190000000000001        -0.77847234231059304     
  0.11220000000000001        -0.55091784706162605     
  0.11250000000000000        -0.21271785902105494     
  0.11280000000000000         0.24574524102816481     
  0.11309999999999999         0.82445084679738190     
  0.11340000000000001          1.5137449765531328     
  0.11369999999999998          2.2936344461457701     
  0.11400000000000000          3.1344337067404782     
  0.11430000000000000          3.9998069128704614     
  0.11460000000000002          4.8483681789395021     
  0.11489999999999999          5.6362011477905458     
  0.11520000000000001          6.3204851062105973     
  0.11550000000000001          6.8620340624254794     
  0.11580000000000000          7.2280795953149486     
  0.11609999999999999          7.3936066211141451     
  0.11640000000000002          7.3420907991938975     
  0.11670000000000001          7.0674192785628609     
  0.11700000000000001          6.5732926682484898     
  0.11730000000000000          5.8718889681714206     
  0.11760000000000000          4.9838653583388091     
  0.11789999999999999          3.9366207321037532     
  0.11820000000000001          2.7621004215975669     
  0.11850000000000001          1.4955153992963433     
  0.11880000000000000         0.17306928085670420     
  0.11910000000000000         -1.1700811977799210     
  0.11940000000000002         -2.5013973228748578     
  0.11970000000000001         -3.7929800297769436     
  0.12000000000000001         -5.0218907616189714     
  0.12030000000000000         -6.1706977233895248     
  0.12060000000000000         -7.2282872190958098     
  0.12089999999999999         -8.1876902904703783     
  0.12119999999999999         -9.0447753635793191     
  0.12150000000000001         -9.7969716410574321     
  0.12180000000000001         -10.440062897511197     
  0.12210000000000000         -10.966154293361884     
  0.12239999999999999         -11.362192485464057     
  0.12270000000000002         -11.607875515259465     
  0.12300000000000001         -11.675934692446063     
  0.12330000000000001         -11.533218443580658     
  0.12360000000000000         -11.142674365645885     
  0.12390000000000000         -10.466876288439217     
  0.12419999999999999         -9.4722306533137353     
  0.12450000000000001         -8.1340233908680446     
  0.12480000000000001         -6.4422243405997239     
  0.12509999999999999         -4.4046452412921138     
  0.12540000000000001         -2.0502866512483902     
  0.12570000000000003         0.56755013300222068     
  0.12600000000000000          3.3727365266825080     
  0.12630000000000002          6.2684928379612517     
  0.12659999999999999          9.1413864203388666     
  0.12690000000000001          11.868504644448013     
  0.12719999999999998          14.324238227797970     
  0.12750000000000000          16.388183056458480     
  0.12780000000000002          17.954779860478361     
  0.12809999999999999          18.940089471730964     
  0.12840000000000001          19.287213353120883     
  0.12869999999999998          18.970402380312546     
  0.12900000000000000          17.996360827906862     
  0.12930000000000003          16.404039083978930     
  0.12959999999999999          14.261142021310526     
  0.12990000000000002          11.658508461636300     
  0.13019999999999998          8.7055966925596060     
  0.13050000000000000          5.5230208810280095     
  0.13080000000000003          2.2353209773933123     
  0.13109999999999999         -1.0334935213850240     
  0.13140000000000002         -4.1653993201534716     
  0.13169999999999998         -7.0530466125896201     
  0.13200000000000001         -9.6013513148250773     
  0.13229999999999997         -11.730274833697301     
  0.13260000000000000         -13.375464745083820     
  0.13290000000000002         -14.489114592180849     
  0.13319999999999999         -15.041610372707417     
  0.13350000000000001         -15.021811257940044     
  0.13380000000000003         -14.437940108803481     
  0.13410000000000000         -13.319446709267098     
  0.13440000000000002         -11.717251793954770     
  0.13469999999999999         -9.7034173849913241     
  0.13500000000000001         -7.3701308416048015     
  0.13529999999999998         -4.8271129919474909     
  0.13560000000000000         -2.1978938598492928     
  0.13590000000000002         0.38587610912643311     
  0.13619999999999999          2.7922800315540952     
  0.13650000000000001          4.8958714454098624     
  0.13680000000000003          6.5856707156772556     
  0.13710000000000000          7.7734407838193409     
  0.13740000000000002          8.3994739853145894     
  0.13769999999999999          8.4375752418183616     
  0.13800000000000001          7.8979052216219152     
  0.13829999999999998          6.8261504479046407     
  0.13860000000000000          5.3014965375546623     
  0.13890000000000002          3.4319792454725686     
  0.13919999999999999          1.3469881148745644     
  0.13950000000000001        -0.81089242696753683     
  0.13979999999999998         -2.8958782653713664     
  0.14010000000000000         -4.7683813462961879     
  0.14040000000000002         -6.3035167225893787     
  0.14069999999999999         -7.4006146632660226     
  0.14100000000000001         -7.9894559164881613     
  0.14130000000000004         -8.0338332896275464     
  0.14160000000000000         -7.5346667549417656     
  0.14189999999999997         -6.5296849147142737     
  0.14219999999999999         -5.0899494257284958     
  0.14250000000000002         -3.3148493655326270     
  0.14279999999999998         -1.3251737149830571     
  0.14310000000000000         0.74509977953182793     
  0.14339999999999997          2.7589545377837394     
  0.14369999999999999          4.5863534395704626     
  0.14400000000000002          6.1120394412527617     
  0.14429999999999998          7.2435559434508292     
  0.14460000000000001          7.9185867507132546     
  0.14490000000000003          8.1080828896388226     
  0.14520000000000000          7.8171263292343625     
  0.14550000000000002          7.0842670819347209     
  0.14579999999999999          5.9775883924223923     
  0.14610000000000001          4.5889078532623664     
  0.14640000000000003          3.0266386741087330     
  0.14670000000000000          1.4066792902550933     
  0.14699999999999996        -0.15640717158396844     
  0.14729999999999999         -1.5570412774191928     
  0.14760000000000001         -2.7069445047467768     
  0.14789999999999998         -3.5411597456883928     
  0.14820000000000000         -4.0213554432424541     