  -1.4999999999999999E-002     0.0000000000000000     
  -1.4700000000000000E-002     0.0000000000000000     
  -1.4400000000000000E-002     0.0000000000000000     
  -1.4100000000000000E-002     0.0000000000000000     
  -1.3800000000000000E-002     0.0000000000000000     
  -1.3500000000000000E-002     0.0000000000000000     
  -1.3200000000000000E-002     0.0000000000000000     
  -1.2899999999999998E-002     0.0000000000000000     
  -1.2600000000000000E-002     0.0000000000000000     
  -1.2299999999999998E-002     0.0000000000000000     
  -1.2000000000000000E-002     0.0000000000000000     
  -1.1699999999999999E-002     0.0000000000000000     
  -1.1399999999999999E-002     0.0000000000000000     
  -1.1099999999999999E-002     0.0000000000000000     
  -1.0799999999999999E-002     0.0000000000000000     
  -1.0499999999999999E-002     0.0000000000000000     
  -1.0199999999999999E-002     0.0000000000000000     
  -9.8999999999999991E-003     0.0000000000000000     
  -9.5999999999999992E-003     0.0000000000000000     
  -9.2999999999999992E-003     0.0000000000000000     
  -8.9999999999999993E-003     0.0000000000000000     
  -8.6999999999999994E-003     0.0000000000000000     
  -8.3999999999999995E-003     0.0000000000000000     
  -8.0999999999999996E-003     0.0000000000000000     
  -7.7999999999999988E-003     0.0000000000000000     
  -7.4999999999999997E-003     0.0000000000000000     
  -7.1999999999999998E-003     0.0000000000000000     
  -6.8999999999999981E-003     0.0000000000000000     
  -6.5999999999999982E-003     0.0000000000000000     
  -6.3000000000000000E-003     0.0000000000000000     
  -6.0000000000000001E-003     0.0000000000000000     
  -5.6999999999999985E-003     0.0000000000000000     
  -5.3999999999999986E-003     0.0000000000000000     
  -5.1000000000000004E-003     0.0000000000000000     
  -4.7999999999999987E-003     0.0000000000000000     
  -4.5000000000000005E-003     0.0000000000000000     
  -4.1999999999999989E-003     0.0000000000000000     
  -3.8999999999999990E-003     0.0000000000000000     
  -3.5999999999999990E-003     0.0000000000000000     
  -3.2999999999999991E-003     0.0000000000000000     
  -2.9999999999999992E-003     0.0000000000000000     
  -2.6999999999999993E-003     0.0000000000000000     
  -2.3999999999999994E-003     0.0000000000000000     
  -2.0999999999999977E-003     0.0000000000000000     
  -1.7999999999999995E-003     0.0000000000000000     
  -1.4999999999999979E-003     0.0000000000000000     
  -1.1999999999999997E-003     0.0000000000000000     
  -8.9999999999999976E-004     0.0000000000000000     
  -5.9999999999999810E-004     0.0000000000000000     
  -2.9999999999999992E-004     0.0000000000000000     
   0.0000000000000000          0.0000000000000000     
   3.0000000000000165E-004     0.0000000000000000     
   5.9999999999999984E-004     0.0000000000000000     
   9.0000000000000149E-004     0.0000000000000000     
   1.2000000000000031E-003     0.0000000000000000     
   1.5000000000000013E-003     0.0000000000000000     
   1.8000000000000030E-003    -1.9473397213839169E-043
   2.1000000000000012E-003     7.1895976839121867E-041
   2.3999999999999994E-003     1.6688925747822165E-038
   2.7000000000000010E-003     8.5512247525307106E-038
   2.9999999999999992E-003     5.3697561707653756E-037
   3.3000000000000008E-003    -8.9660834520200267E-037
   3.6000000000000025E-003     3.7619369030305415E-036
   3.9000000000000007E-003     7.2668038538416547E-036
   4.2000000000000023E-003    -3.1078282537017169E-034
   4.5000000000000005E-003     1.4829493144176376E-033
   4.7999999999999987E-003     6.3517623728482429E-033
   5.1000000000000004E-003    -8.7416508596937684E-032
   5.4000000000000020E-003     3.3147353827198165E-031
   5.7000000000000037E-003     2.4888026525512470E-031
   5.9999999999999984E-003    -8.6582760831174779E-030
   6.3000000000000000E-003     4.3550299780050514E-029
   6.6000000000000017E-003    -8.9350679445782100E-029
   6.9000000000000034E-003    -1.8676539877571539E-028
   7.2000000000000015E-003     2.1398178012577549E-027
   7.5000000000000032E-003    -8.1145996896996829E-027
   7.8000000000000014E-003     1.4989462449916160E-026
   8.0999999999999996E-003     4.4147289402197643E-027
   8.4000000000000012E-003    -8.3212845871212473E-026
   8.7000000000000029E-003    -4.3733938914926526E-026
   9.0000000000000011E-003     1.8932877504008968E-024
   9.2999999999999992E-003    -8.3911520418441896E-024
   9.6000000000000009E-003     1.3287326387611152E-023
   9.8999999999999991E-003     4.8770303606259313E-023
   1.0200000000000001E-002    -4.3467795639325376E-022
   1.0500000000000002E-002     1.8284486711107541E-021
   1.0800000000000004E-002    -5.7573871978776443E-021
   1.1099999999999999E-002     1.6445308841242493E-020
   1.1400000000000000E-002    -5.2038259304109977E-020
   1.1700000000000002E-002     1.9987622876024290E-019
   1.2000000000000004E-002    -8.4428555184881992E-019
   1.2300000000000002E-002     3.5267862719233164E-018
   1.2600000000000000E-002    -1.4194616430817443E-017
   1.2900000000000002E-002     5.6263726702207336E-017
   1.3200000000000000E-002    -2.2705253797522455E-016
   1.3500000000000002E-002     9.4885396575065746E-016
   1.3800000000000003E-002    -4.0510373967357899E-015
   1.4100000000000001E-002     1.7014715425165942E-014
   1.4400000000000000E-002    -6.7012777607444943E-014
   1.4700000000000001E-002     2.3430678884022197E-013
   1.4999999999999999E-002    -6.7138341025749222E-013
   1.5300000000000001E-002     1.2910166273425841E-012
   1.5600000000000003E-002     1.1729315119883613E-013
   1.5899999999999997E-002    -1.3573583882572512E-011
   1.6199999999999999E-002     6.2384811535089943E-011
   1.6500000000000001E-002    -1.4947300117728365E-010
   1.6800000000000002E-002     8.7029264085929704E-011
   1.7100000000000004E-002     7.5303648590044428E-010
   1.7400000000000006E-002    -2.7621275118632873E-009
   1.7700000000000000E-002     2.6263219350337106E-009
   1.8000000000000002E-002     9.0205937173426701E-009
   1.8300000000000004E-002    -2.8863992084293917E-008
   1.8600000000000005E-002     1.6507181839129349E-009
   1.8900000000000000E-002     1.1429081308139151E-007
   1.9200000000000002E-002    -9.4994388649801552E-008
   1.9500000000000003E-002    -3.5567333106370955E-007
   1.9799999999999998E-002     3.1758607500232985E-007
   2.0100000000000000E-002     1.0906716240418066E-006
   2.0400000000000001E-002    -4.1022708694601648E-007
   2.0700000000000003E-002    -3.4152199817583527E-006
   2.0999999999999998E-002    -1.6555242668641610E-006
   2.1299999999999999E-002     1.2302125912477673E-005
   2.1600000000000001E-002     4.0532070886266933E-005
   2.1900000000000003E-002     7.9976426735030079E-005
   2.2200000000000004E-002     1.2986762136847120E-004
   2.2500000000000006E-002     1.9772886124306424E-004
   2.2800000000000001E-002     3.0085530757642363E-004
   2.3100000000000002E-002     4.6507987170642869E-004
   2.3400000000000004E-002     7.2237827379216936E-004
   2.3699999999999999E-002     1.1122575333862611E-003
   2.4000000000000000E-002     1.6881113207021896E-003
   2.4300000000000002E-002     2.5240419836054300E-003
   2.4599999999999997E-002     3.7211756578270014E-003
   2.4900000000000005E-002     5.4135306430226279E-003
   2.5200000000000000E-002     7.7714913273930885E-003
   2.5499999999999995E-002     1.1003525541618108E-002
   2.5800000000000003E-002     1.5357211428432587E-002
   2.6099999999999998E-002     2.1118608571524540E-002
   2.6400000000000007E-002     2.8606260077937859E-002
   2.6700000000000002E-002     3.8153201390909636E-002
   2.6999999999999996E-002     5.0079863673525314E-002
   2.7300000000000005E-002     6.4659883600398801E-002
   2.7600000000000000E-002     8.2069539747009451E-002
   2.7900000000000008E-002    0.10232433947491910     
   2.8200000000000003E-002    0.12520136728023748     
   2.8499999999999998E-002    0.15015972382928700     
   2.8800000000000006E-002    0.17625965247617309     
   2.9100000000000001E-002    0.20208128050190169     
   2.9400000000000003E-002    0.22568242269681371     
   2.9700000000000004E-002    0.24457657194912535     
   3.0000000000000006E-002    0.25576601185319237     
   3.0300000000000001E-002    0.25584515171920874     
   3.0600000000000002E-002    0.24114901407576878     
   3.0900000000000004E-002    0.20803243122023621     
   3.1199999999999999E-002    0.15315688132566682     
   3.1500000000000007E-002     7.3893858268341717E-002
   3.1800000000000002E-002    -3.1237256550141528E-002
   3.2099999999999997E-002   -0.16219703715874545     
   3.2400000000000005E-002   -0.31700840898254451     
   3.2700000000000000E-002   -0.49151658147705213     
   3.3000000000000002E-002   -0.67925480133887939     
   3.3300000000000003E-002   -0.87147625689170694     
   3.3599999999999998E-002    -1.0574900813690724     
   3.3900000000000000E-002    -1.2251309261065109     
   3.4200000000000001E-002    -1.3615004069307772     
   3.4500000000000003E-002    -1.4539109261298884     
   3.4799999999999998E-002    -1.4908651249601519     
   3.5099999999999999E-002    -1.4631286964809256     
   3.5400000000000001E-002    -1.3646825763558645     
   3.5699999999999996E-002    -1.1935293107013227     
   3.6000000000000004E-002   -0.95218562701739140     
   3.6299999999999999E-002   -0.64783903826243916     
   3.6600000000000008E-002   -0.29220374943925104     
   3.6900000000000002E-002     9.9193420488248557E-002
   3.7199999999999997E-002    0.50787735819979674     
   3.7500000000000006E-002    0.91369000401630318     
   3.7800000000000000E-002     1.2962194931556978     
   3.8100000000000009E-002     1.6361550516733085     
   3.8400000000000004E-002     1.9166883818354390     
   3.8699999999999998E-002     2.1246979744223427     
   3.9000000000000007E-002     2.2514458934075128     
   3.9300000000000002E-002     2.2931580953187027     
   3.9600000000000003E-002     2.2510102419586708     
   3.9900000000000005E-002     2.1307852751153198     
   4.0200000000000000E-002     1.9422622927603568     
   4.0500000000000001E-002     1.6982381102113173     
   4.0800000000000003E-002     1.4134488169857615     
   4.1100000000000005E-002     1.1034749173706266     
   4.1399999999999999E-002    0.78362861392129146     
   4.1700000000000008E-002    0.46800512185634491     
   4.2000000000000003E-002    0.16878137674161531     
   4.2299999999999997E-002   -0.10427908463281420     
   4.2600000000000006E-002   -0.34418450586992433     
   4.2900000000000001E-002   -0.54659330282265772     
   4.3200000000000002E-002   -0.70974180039424728     
   4.3500000000000004E-002   -0.83410171171808711     
   4.3799999999999999E-002   -0.92182857748285851     
   4.4100000000000000E-002   -0.97643379260099761     
   4.4400000000000002E-002    -1.0021844923857213     
   4.4700000000000004E-002    -1.0037307189245226     
   4.4999999999999998E-002   -0.98579366672818525     
   4.5300000000000000E-002   -0.95274812361865391     
   4.5600000000000002E-002   -0.90854720491110541     
   4.5899999999999996E-002   -0.85665132886903994     
   4.6200000000000005E-002   -0.79984608641678578     
   4.6500000000000000E-002   -0.74045149745653072     
   4.6799999999999994E-002   -0.68025856325064193     
   4.7100000000000003E-002   -0.62064078370121467     
   4.7399999999999998E-002   -0.56275725147982225     
   4.7700000000000006E-002   -0.50747646611361519     
   4.8000000000000001E-002   -0.45562488436541249     
   4.8300000000000010E-002   -0.40799421472753628     
   4.8600000000000004E-002   -0.36536478564864489     
   4.8899999999999999E-002   -0.32868548066334008     
   4.9200000000000008E-002   -0.29892278614157419     
   4.9500000000000002E-002   -0.27714727588285848     
   4.9800000000000011E-002   -0.26446641104677099     
   5.0100000000000006E-002   -0.26184754830103141     
   5.0400000000000000E-002   -0.27005952663226457     
   5.0700000000000009E-002   -0.28937178095260319     
   5.1000000000000004E-002   -0.31936930402623231     
   5.1299999999999998E-002   -0.35869076989033272     
   5.1600000000000007E-002   -0.40475990110500859     
   5.1900000000000002E-002   -0.45368113615887906     
   5.2200000000000010E-002   -0.50011106948851913     
   5.2500000000000005E-002   -0.53737476547567786     
   5.2800000000000000E-002   -0.55771947240881503     
   5.3099999999999994E-002   -0.55277639016897118     
   5.3400000000000003E-002   -0.51425758710836600     
   5.3699999999999998E-002   -0.43461190111571479     
   5.4000000000000006E-002   -0.30811258495338562     
   5.4300000000000001E-002   -0.13154044706815227     
   5.4599999999999996E-002     9.4937338255770443E-002
   5.4900000000000004E-002    0.36709418118231618     
   5.5199999999999999E-002    0.67664356512387069     
   5.5499999999999994E-002     1.0110261629884216     
   5.5800000000000002E-002     1.3541151448639770     
   5.6099999999999997E-002     1.6871678663394198     
   5.6400000000000006E-002     1.9898315996117590     
   5.6700000000000000E-002     2.2418173413854952     
   5.6999999999999995E-002     2.4244227017483873     
   5.7300000000000004E-002     2.5220083285755477     
   5.7599999999999998E-002     2.5235092278679985     
   5.7900000000000007E-002     2.4233028539947710     
   5.8200000000000002E-002     2.2219054051868352     
   5.8499999999999996E-002     1.9259876393725217     
   5.8800000000000005E-002     1.5479877532121404     
   5.9100000000000000E-002     1.1053026311517866     
   5.9400000000000008E-002    0.61889141195560637     
   5.9700000000000003E-002    0.11202958351441497     
   6.0000000000000012E-002   -0.39152444062037373     
   6.0300000000000006E-002   -0.86901822779270965     
   6.0600000000000001E-002    -1.3000117450972466     
   6.0900000000000010E-002    -1.6678788993984686     
   6.1200000000000004E-002    -1.9602200018902147     
   6.1500000000000013E-002    -2.1696374653012773     
   6.1800000000000008E-002    -2.2938774310574934     
   6.2100000000000002E-002    -2.3351905023707129     
   6.2399999999999997E-002    -2.3003163070912596     
   6.2700000000000006E-002    -2.1996140409694616     
   6.3000000000000000E-002    -2.0459785705928746     
   6.3300000000000009E-002    -1.8542412169023699     
   6.3600000000000004E-002    -1.6400675502352102     
   6.3899999999999998E-002    -1.4187869947729457     
   6.4199999999999993E-002    -1.2049303569666918     
   6.4500000000000002E-002    -1.0110247290835757     
   6.4800000000000010E-002   -0.84673896131588133     
   6.5100000000000005E-002   -0.71875120494807754     
   6.5400000000000000E-002   -0.62959648106590849     
   6.5700000000000008E-002   -0.57746269868627098     
   6.5999999999999989E-002   -0.55652735970483325     
   6.6299999999999998E-002   -0.55637256898567555     
   6.6600000000000006E-002   -0.56297369289569843     
   6.6900000000000001E-002   -0.55965748321308995     
   6.7199999999999996E-002   -0.52778493402161963     
   6.7500000000000004E-002   -0.44907149840799521     
   6.7800000000000013E-002   -0.30693390074298454     
   6.8099999999999994E-002    -8.8453880971448615E-002
   6.8400000000000002E-002    0.21336848550111553     
   6.8700000000000011E-002    0.59875759883916069     
   6.8999999999999992E-002     1.0594626297500247     
   6.9300000000000000E-002     1.5786291128790606     
   6.9600000000000009E-002     2.1314774860558341     
   6.9900000000000004E-002     2.6859722606715044     
   7.0199999999999999E-002     3.2053274401473444     
   7.0500000000000007E-002     3.6507402381818483     
   7.0800000000000016E-002     3.9842930095029327     
   7.1099999999999997E-002     4.1725463330009491     
   7.1400000000000005E-002     4.1895339594933922     
   7.1700000000000000E-002     4.0194495484660813     
   7.1999999999999995E-002     3.6586035973820463     
   7.2300000000000003E-002     3.1162304682900337     
   7.2600000000000012E-002     2.4142010859405687     
   7.2900000000000006E-002     1.5857251317567296     
   7.3200000000000001E-002    0.67295223654360892     
   7.3499999999999996E-002   -0.27632067826035123     
   7.3800000000000004E-002    -1.2120807985186275     
   7.4099999999999999E-002    -2.0859804229985461     
   7.4400000000000008E-002    -2.8552621865782855     
   7.4700000000000003E-002    -3.4851526032089231     
   7.5000000000000011E-002    -3.9514139987731909     
   7.5299999999999992E-002    -4.2417242494595806     
   7.5600000000000001E-002    -4.3551945703700374     
   7.5900000000000009E-002    -4.3017973234698808     
   7.6200000000000004E-002    -4.1005395172521535     
   7.6499999999999999E-002    -3.7764696726531488     
   7.6800000000000007E-002    -3.3583156860911458     
   7.7099999999999988E-002    -2.8753178894463125     
   7.7399999999999997E-002    -2.3541603937279589     
   7.7700000000000005E-002    -1.8175300329307928     
   7.8000000000000014E-002    -1.2822583796067530     
   7.8299999999999995E-002   -0.75882409817191854     
   7.8600000000000003E-002   -0.25251776179040025     
   7.8900000000000012E-002    0.23643687341674949     
   7.9199999999999993E-002    0.71042010984251558     
   7.9500000000000001E-002     1.1720532197972977     
   7.9800000000000010E-002     1.6230698370623386     
   8.0100000000000018E-002     2.0613893447968827     
   8.0399999999999999E-002     2.4801837295300970     
   8.0700000000000008E-002     2.8678878631309037     
   8.1000000000000003E-002     3.2073317150471778     
   8.1299999999999997E-002     3.4780120331815518     
   8.1600000000000006E-002     3.6578652417225559     
   8.1900000000000014E-002     3.7249271598970379     
   8.2199999999999995E-002     3.6612556722337155     
   8.2500000000000004E-002     3.4548077092562783     
   8.2799999999999999E-002     3.1014369683173673     
   8.3100000000000007E-002     2.6074466734331834     
   8.3400000000000002E-002     1.9890367889107297     
   8.3700000000000011E-002     1.2722116951934930     
   8.4000000000000005E-002    0.49187793558862702     
   8.4300000000000000E-002   -0.31152861388255271     
   8.4599999999999995E-002    -1.0944390926073782     
   8.4900000000000003E-002    -1.8136159275069381     
   8.5199999999999998E-002    -2.4300661729728978     
   8.5500000000000007E-002    -2.9114896733576967     
   8.5800000000000001E-002    -3.2350065678551876     
   8.6100000000000010E-002    -3.3888371804478266     
   8.6399999999999991E-002    -3.3724129109506396     
   8.6699999999999999E-002    -3.1961101168930983     
   8.7000000000000008E-002    -2.8799618722159916     
   8.7300000000000003E-002    -2.4511562335498231     
   8.7599999999999997E-002    -1.9419402048577816     
   8.7900000000000006E-002    -1.3868706371301094     
   8.8200000000000014E-002   -0.81971146428651187     
   8.8499999999999995E-002   -0.27198649913715167     
   8.8800000000000004E-002    0.22902309610082591     
   8.9100000000000013E-002    0.66159812483790548     
   8.9399999999999993E-002     1.0093941396618551     
   8.9700000000000002E-002     1.2619463091312269     
   9.0000000000000011E-002     1.4142302378217808     
   9.0299999999999991E-002     1.4658237121282642     
   9.0600000000000000E-002     1.4205038283122775     
   9.0900000000000009E-002     1.2856514117931406     
   9.1200000000000017E-002     1.0718159241034451     
   9.1499999999999998E-002    0.79255832633982093     
   9.1800000000000007E-002    0.46426757983777411     
   9.2100000000000001E-002    0.10596160195879645     
   9.2399999999999996E-002   -0.26081929996248199     
   9.2700000000000005E-002   -0.61274841806286307     
   9.3000000000000013E-002   -0.92573636086671651     
   9.3300000000000008E-002    -1.1757542457481007     
   9.3600000000000003E-002    -1.3407952358187243     
   9.3899999999999997E-002    -1.4028718303431353     
   9.4200000000000006E-002    -1.3492712756913419     
   9.4500000000000001E-002    -1.1749096177050387     
   9.4800000000000009E-002   -0.88353587897243746     
   9.5100000000000004E-002   -0.48815558727920616     
   9.5399999999999999E-002    -1.1579703253268250E-002
   9.5699999999999993E-002    0.51517727822296266     
   9.6000000000000002E-002     1.0544606092812181     
   9.6300000000000011E-002     1.5641635572331507     
   9.6600000000000005E-002     2.0016887511177814     
   9.6900000000000000E-002     2.3268687648304933     
   9.7200000000000009E-002     2.5054440083822733     
   9.7499999999999989E-002     2.5127115486085212     
   9.7799999999999998E-002     2.3355000603810354     
   9.8100000000000007E-002     1.9741723022336193     
   9.8400000000000015E-002     1.4433601118337154     
   9.8699999999999996E-002    0.77093189205509782     
   9.9000000000000005E-002    -3.1327309342816523E-003
   9.9300000000000013E-002   -0.82945882114499936     
   9.9599999999999994E-002    -1.6529822262159062     
   9.9900000000000003E-002    -2.4163668670703116     
  0.10020000000000001         -3.0643243519599443     
  0.10049999999999999         -3.5480630767254620     
  0.10080000000000000         -3.8284277907707107     
  0.10110000000000001         -3.8793528071212284     
  0.10140000000000000         -3.6901463893322708     
  0.10170000000000000         -3.2660710612696660     
  0.10200000000000001         -2.6289537745792502     
  0.10230000000000002         -1.8157228806249730     
  0.10260000000000000        -0.87586831749172345     
  0.10290000000000001         0.13126744778880611     
  0.10320000000000000          1.1410587877678955     
  0.10350000000000001          2.0879997430976029     
  0.10380000000000000          2.9101650285392555     
  0.10410000000000001          3.5544273826600126     
  0.10440000000000001          3.9798667065507090     
  0.10470000000000000          4.1607894905514025     
  0.10500000000000000          4.0893790666545513     
  0.10530000000000000          3.7756181314835286     
  0.10560000000000000          3.2467973317737684     
  0.10590000000000001          2.5454786066275208     
  0.10620000000000000          1.7258746972672347     
  0.10650000000000001         0.84979703192941258     
  0.10679999999999999         -1.8397262417592930E-002
  0.10710000000000000        -0.81681326845308699     
  0.10740000000000001         -1.4907442216049276     
  0.10770000000000000         -1.9967247537179711     
  0.10800000000000000         -2.3055482308986930     
  0.10830000000000001         -2.4041409545947801     
  0.10859999999999999         -2.2958148379823333     
  0.10890000000000000         -1.9995454173834131     
  0.10920000000000001         -1.5474866682607218     
  0.10950000000000001        -0.98169975813336818     
  0.10979999999999999        -0.35066428188414989     
  0.11009999999999999         0.29551786051281415     
  0.11040000000000001         0.90889778453360592     
  0.11070000000000001          1.4470842084109370     
  0.11100000000000000          1.8767692647861969     
  0.11130000000000000          2.1751847722570088     
  0.11160000000000002          2.3312202952817191     
  0.11190000000000001          2.3455008530617611     
  0.11220000000000001          2.2288601020957377     
  0.11250000000000000          2.0008643284585244     
  0.11280000000000000          1.6871424525132552     
  0.11309999999999999          1.3165717055216051     
  0.11340000000000001         0.91876218117745068     
  0.11369999999999998         0.52119013379506363     
  0.11400000000000000         0.14751995478811364     
  0.11430000000000000        -0.18414118166012905     
  0.11460000000000002        -0.46191547396127541     
  0.11489999999999999        -0.68033142185276285     
  0.11520000000000001        -0.83973464045436219     
  0.11550000000000001        -0.94491185713868098     
  0.11580000000000000         -1.0041490641537845     
  0.11609999999999999         -1.0270545351750506     
  0.11640000000000002         -1.0232769703295377     
  0.11670000000000001         -1.0017126697345420     
  0.11700000000000001        -0.96857699617047088     
  0.11730000000000000        -0.92801161235100915     
  0.11760000000000000        -0.88189119213402023     
  0.11789999999999999        -0.82965701690391913     
  0.11820000000000001        -0.77063060859915278     
  0.11850000000000001        -0.70395378983580237     
  0.11880000000000000        -0.62999035601611297     
  0.11910000000000000        -0.55188701063230527     
  0.11940000000000002        -0.47467006056799566     
  0.11970000000000001        -0.40670502275291276     
  0.12000000000000001        -0.35913501869908920     
  0.12030000000000000        -0.34369101080747610     
  0.12060000000000000        -0.37314880493712094     
  0.12089999999999999        -0.45909764554317034     
  0.12119999999999999        -0.61015846324820688     
  0.12150000000000001        -0.83186248265904394     
  0.12180000000000001         -1.1246098095616461     
  0.12210000000000000         -1.4835395327052598     
  0.12239999999999999         -1.8990706003455218     
  0.12270000000000002         -2.3561986898869756     
  0.12300000000000001         -2.8360285604727355     
  0.12330000000000001         -3.3171351418582637     
  0.12360000000000000         -3.7753745613937113     
  0.12390000000000000         -4.1862163051491255     
  0.12419999999999999         -4.5258975413538556     
  0.12450000000000001         -4.7708339490014993     
  0.12480000000000001         -4.9003115830006649     
  0.12509999999999999         -4.8962803338081606     
  0.12540000000000001         -4.7431197164546868     
  0.12570000000000003         -4.4305209652152504     
  0.12600000000000000         -3.9520976168087953     
  0.12630000000000002         -3.3066691128487662     
  0.12659999999999999         -2.5003721044026919     
  0.12690000000000001         -1.5446579450279885     
  0.12719999999999998        -0.45868677432361915     
  0.12750000000000000         0.73128998591601846     
  0.12780000000000002          1.9938606187326822     
  0.12809999999999999          3.2914225623980964     
  0.12840000000000001          4.5833595224346020     
  0.12869999999999998          5.8281204906546860     
  0.12900000000000000          6.9843725857278702     
  0.12930000000000003          8.0148760596899162     
  0.12959999999999999          8.8877614494035519     
  0.12990000000000002          9.5776560176782546     
  0.13019999999999998          10.067604904604996     
  0.13050000000000000          10.348832250782534     
  0.13080000000000003          10.419569250715009     
  0.13109999999999999          10.284514668650218     
  0.13140000000000002          9.9528102635009645     
  0.13169999999999998          9.4358484158850029     
  0.13200000000000001          8.7462291672782371     
  0.13229999999999997          7.8962915595079224     
  0.13260000000000000          6.8966012608477918     
  0.13290000000000002          5.7576964972081388     
  0.13319999999999999          4.4896590440616055     
  0.13350000000000001          3.1030527772136547     
  0.13380000000000003          1.6125603504323549     
  0.13410000000000000          3.6836318848264715E-002
  0.13440000000000002         -1.5993393413782953     
  0.13469999999999999         -3.2631399395917287     
  0.13500000000000001         -4.9157243670887327     
  0.13529999999999998         -6.5107709618310716     
  0.13560000000000000         -7.9972148901258926     
  0.13590000000000002         -9.3225935992999140     
  0.13619999999999999         -10.433442921284556     
  0.13650000000000001         -11.281357258523343     
  0.13680000000000003         -11.825051000148520     
  0.13710000000000000         -12.032587940407526     
  0.13740000000000002         -11.885630247783393     
  0.13769999999999999         -11.379720815920887     
  0.13800000000000001         -10.525008139019803     
  0.13829999999999998         -9.3473689285364578     
  0.13860000000000000         -7.8864717604012533     
  0.13890000000000002         -6.1944229760196787     
  0.13919999999999999         -4.3340001406083708     
  0.13950000000000001         -2.3754421305435809     
  0.13979999999999998        -0.39358813058330266     
  0.14010000000000000          1.5345298968215093     
  0.14040000000000002          3.3338735356547406     
  0.14069999999999999          4.9341597704685913     
  0.14100000000000001          6.2720442791186990     
  0.14130000000000004          7.2957182574879109     
  0.14160000000000000          7.9655410937994429     
  0.14189999999999997          8.2563781552012490     
  0.14219999999999999          8.1602906039290790     
  0.14250000000000002          7.6854167524509158     
  0.14279999999999998          6.8570640013047148     
  0.14310000000000000          5.7173671591821700     
  0.14339999999999997          4.3219877445621027     
  0.14369999999999999          2.7392265554072983     
  0.14400000000000002          1.0468061176701666     
  0.14429999999999998        -0.67317110092458887     
  0.14460000000000001         -2.3362400388764764     
  0.14490000000000003         -3.8607165138484598     
  0.14520000000000000         -5.1726502648759158     
  0.14550000000000002         -6.2071769833767609     
  0.14579999999999999         -6.9139812150760758     
  0.14610000000000001         -7.2598712648822712     
  0.14640000000000003         -7.2281535035908924     
  0.14670000000000000         -6.8226361405491263     
  0.14699999999999996         -6.0663768833252494     
  0.14729999999999999         -4.9992943914395394     
  0.14760000000000001         -3.6791081992790478     
  0.14789999999999998         -2.1758091284155494     
  0.14820000000000000        -0.56903013758291987     