  -1.4999999999999999E-002     0.0000000000000000     
  -1.4700000000000000E-002     6.9697033985830027E-016
  -1.4400000000000000E-002     5.1595183777281974E-013
  -1.4100000000000000E-002     1.0693275814781608E-011
  -1.3800000000000000E-002    -8.9567464910450691E-011
  -1.3500000000000000E-002    -7.0545793259208909E-010
  -1.3200000000000000E-002     2.5117160023888584E-009
  -1.2899999999999998E-002     8.6016883572469035E-009
  -1.2600000000000000E-002    -1.9786965767384794E-008
  -1.2299999999999998E-002    -3.6202890947657763E-008
  -1.2000000000000000E-002     3.6301712905463931E-008
  -1.1699999999999999E-002     8.2209903927634298E-008
  -1.1399999999999999E-002     1.0552012251791769E-007
  -1.1099999999999999E-002    -1.4505565424667070E-007
  -1.0799999999999999E-002    -4.2841140485367021E-007
  -1.0499999999999999E-002     9.9699013416978669E-008
  -1.0199999999999999E-002     2.5762232929703125E-007
  -9.8999999999999991E-003     7.9651319292420902E-008
  -9.5999999999999992E-003     1.0502026876031836E-006
  -9.2999999999999992E-003     4.8748600598710419E-007
  -8.9999999999999993E-003    -2.2923616552816137E-006
  -8.6999999999999994E-003    -1.9189804239964055E-006
  -8.3999999999999995E-003     1.2830714837169268E-006
  -8.0999999999999996E-003     1.2024992658716673E-006
  -7.7999999999999988E-003     1.2444857375061407E-007
  -7.4999999999999997E-003     1.6765401117520658E-006
  -7.1999999999999998E-003     1.6284298072487164E-006
  -6.8999999999999981E-003     1.9942974885409897E-006
  -6.5999999999999982E-003     4.3593267543739568E-006
  -6.3000000000000000E-003    -9.4387035209915122E-006
  -6.0000000000000001E-003    -4.0777799444261773E-005
  -5.6999999999999985E-003    -2.7856405900524450E-005
  -5.3999999999999986E-003     1.0336564737339866E-004
  -5.1000000000000004E-003     3.6197729639234110E-004
  -4.7999999999999987E-003     7.0731162524645408E-004
  -4.5000000000000005E-003     1.1125155572712492E-003
  -4.1999999999999989E-003     1.6097344116380340E-003
  -3.8999999999999990E-003     2.3319879592422709E-003
  -3.5999999999999990E-003     3.5114673714445946E-003
  -3.2999999999999991E-003     5.4006896375113286E-003
  -2.9999999999999992E-003     8.2864148785979867E-003
  -2.6999999999999993E-003     1.2579235905852748E-002
  -2.3999999999999994E-003     1.8777971706719958E-002
  -2.0999999999999977E-003     2.7486263996991785E-002
  -1.7999999999999995E-003     3.9607377314942488E-002
  -1.4999999999999979E-003     5.6342026580777395E-002
  -1.1999999999999997E-003     7.8950417144223919E-002
  -8.9999999999999976E-004    0.10881337698971491     
  -5.9999999999999810E-004    0.14765325196055645     
  -2.9999999999999992E-004    0.19718773655336125     
   0.0000000000000000         0.25867746353720827     
   3.0000000000000165E-004    0.33314000450920345     
   5.9999999999999984E-004    0.42114901407505634     
   9.0000000000000149E-004    0.52171266913015768     
   1.2000000000000031E-003    0.63190048553079481     
   1.5000000000000013E-003    0.74708277920271127     
   1.8000000000000030E-003    0.86001509710061230     
   2.1000000000000012E-003    0.95973969407218351     
   2.3999999999999994E-003     1.0318931424464868     
   2.7000000000000010E-003     1.0591550843448416     
   2.9999999999999992E-003     1.0208560748123399     
   3.3000000000000008E-003    0.89352519177195056     
   3.6000000000000025E-003    0.65332688770400416     
   3.9000000000000007E-003    0.27802059594917949     
   4.2000000000000023E-003   -0.25154309523416618     
   4.5000000000000005E-003   -0.94812647204654010     
   4.7999999999999987E-003    -1.8142176483777150     
   5.1000000000000004E-003    -2.8393569301250645     
   5.4000000000000020E-003    -3.9979242291924959     
   5.7000000000000037E-003    -5.2470774680506604     
   5.9999999999999984E-003    -6.5259014381146274     
   6.3000000000000000E-003    -7.7568498426415884     
   6.6000000000000017E-003    -8.8489168700805010     
   6.9000000000000034E-003    -9.7021728622083216     
   7.2000000000000015E-003    -10.214263232558157     
   7.5000000000000032E-003    -10.288292478508827     
   7.8000000000000014E-003    -9.8416442755852351     
   8.0999999999999996E-003    -8.8147452620793185     
   8.4000000000000012E-003    -7.1780183186679603     
   8.7000000000000029E-003    -4.9376257925554778     
   9.0000000000000011E-003    -2.1393134623796226     
   9.2999999999999992E-003     1.1315300165760598     
   9.6000000000000009E-003     4.7543333248472663     
   9.8999999999999991E-003     8.5791075262946741     
   1.0200000000000001E-002     12.435067628081619     
   1.0500000000000002E-002     16.143088969777885     
   1.0800000000000004E-002     19.527682078352250     
   1.1099999999999999E-002     22.427739044548801     
   1.1400000000000000E-002     24.706860168959103     
   1.1700000000000002E-002     26.261182675183957     
   1.2000000000000004E-002     27.023240904459215     
   1.2300000000000002E-002     26.961672672775411     
   1.2600000000000000E-002     26.078875170631527     
   1.2900000000000002E-002     24.405230324493406     
   1.3200000000000000E-002     21.990148604006258     
   1.3500000000000002E-002     18.894737996225128     
   1.3800000000000003E-002     15.184483815089187     
   1.4100000000000001E-002     10.922559119240500     
   1.4400000000000000E-002     6.1687589093636168     
   1.4700000000000001E-002    0.98065093894312838     
   1.4999999999999999E-002    -4.5813220706635249     
   1.5300000000000001E-002    -10.445957275340175     
   1.5600000000000003E-002    -16.522373798435094     
   1.5899999999999997E-002    -22.688400201406978     
   1.6199999999999999E-002    -28.784725234476557     
   1.6500000000000001E-002    -34.610411181063689     
   1.6800000000000002E-002    -39.921900395285540     
   1.7100000000000004E-002    -44.444467419682582     
   1.7400000000000006E-002    -47.885987523666621     
   1.7700000000000000E-002    -49.955095955841152     
   1.8000000000000002E-002    -50.389272465558214     
   1.8300000000000004E-002    -48.982309441599902     
   1.8600000000000005E-002    -45.609897129321951     
   1.8900000000000000E-002    -40.251826391658298     
   1.9200000000000002E-002    -33.007374515128660     
   1.9500000000000003E-002    -24.104248528119591     
   1.9799999999999998E-002    -13.891098508203520     
   2.0100000000000000E-002    -2.8187619966560646     
   2.0400000000000001E-002     8.5813559204192558     
   2.0700000000000003E-002     19.734869767460857     
   2.0999999999999998E-002     30.067387075014238     
   2.1299999999999999E-002     39.043536920170091     
   2.1600000000000001E-002     46.207218393951898     
   2.1900000000000003E-002     51.215904263307529     
   2.2200000000000004E-002     53.862864974329753     
   2.2500000000000006E-002     54.091208469147880     
   2.2800000000000001E-002     51.992981975974430     
   2.3100000000000002E-002     47.797201386096326     
   2.3400000000000004E-002     41.848029472993041     
   2.3699999999999999E-002     34.572422300912635     
   2.4000000000000000E-002     26.448623528870208     
   2.4300000000000002E-002     17.966757311576309     
   2.4599999999999997E-002     9.5923458806108126     
   2.4900000000000005E-002     1.7421606769711264     
   2.5200000000000000E-002    -5.2433468051482661     
   2.5499999999999995E-002    -11.115517650106378     
   2.5800000000000003E-002    -15.720858239061034     
   2.6099999999999998E-002    -19.000841591067601     
   2.6400000000000007E-002    -20.983989920492228     
   2.6700000000000002E-002    -21.770474721065550     
   2.6999999999999996E-002    -21.515606605822779     
   2.7300000000000005E-002    -20.410231738020858     
   2.7600000000000000E-002    -18.661938577954185     
   2.7900000000000008E-002    -16.479768394081223     
   2.8200000000000003E-002    -14.057591928575711     
   2.8499999999999998E-002    -11.566424160359187     
   2.8800000000000006E-002    -9.1473405312436284     
   2.9100000000000001E-002    -6.9054569945919422     
   2.9400000000000003E-002    -4.9144228220676993     
   2.9700000000000004E-002    -3.2171185066047787     
   3.0000000000000006E-002    -1.8277221749968531     
   3.0300000000000001E-002   -0.74120074923926893     
   3.0600000000000002E-002     6.4966347494614052E-002
   3.0900000000000004E-002    0.62434490367709650     
   3.1199999999999999E-002    0.97549228779875774     
   3.1500000000000007E-002     1.1600498329090285     
   3.1800000000000002E-002     1.2180954139686564     
   3.2099999999999997E-002     1.1868577093906807     
   3.2400000000000005E-002     1.0998383724798662     
   3.2700000000000000E-002    0.98359170429753140     
   3.3000000000000002E-002    0.85921736876786592     
   3.3300000000000003E-002    0.74343610078916766     
   3.3599999999999998E-002    0.64541117044854301     
   3.3900000000000000E-002    0.57029440158796274     
   3.4200000000000001E-002    0.51994048892352018     
   3.4500000000000003E-002    0.49139319801243264     
   3.4799999999999998E-002    0.48098620559129879     
   3.5099999999999999E-002    0.48381494886623921     
   3.5400000000000001E-002    0.49349292164289704     
   3.5699999999999996E-002    0.50576128692068756     
   3.6000000000000004E-002    0.51634004747913953     
   3.6299999999999999E-002    0.52342475985582548     
   3.6600000000000008E-002    0.52714079446162909     
   3.6900000000000002E-002    0.52640731695493859     
   3.7199999999999997E-002    0.52291608522099486     
   3.7500000000000006E-002    0.51925982892209044     
   3.7800000000000000E-002    0.51599522430399669     
   3.8100000000000009E-002    0.51434656236035092     
   3.8400000000000004E-002    0.51460955764189009     
   3.8699999999999998E-002    0.51519746340721539     
   3.9000000000000007E-002    0.51586483568795938     
   3.9300000000000002E-002    0.51483297331847466     
   3.9600000000000003E-002    0.51027558558983999     
   3.9900000000000005E-002    0.50159999908146624     
   4.0200000000000000E-002    0.48781244998233431     
   4.0500000000000001E-002    0.47024865151466111     
   4.0800000000000003E-002    0.45034522835710283     
   4.1100000000000005E-002    0.42850434890689404     
   4.1399999999999999E-002    0.40760755611976041     
   4.1700000000000008E-002    0.38920622489767537     
   4.2000000000000003E-002    0.37292690982523286     
   4.2299999999999997E-002    0.35929929522002269     
   4.2600000000000006E-002    0.34691015605898801     
   4.2900000000000001E-002    0.33390290033936537     
   4.3200000000000002E-002    0.31849802033872976     
   4.3500000000000004E-002    0.29729497342866573     
   4.3799999999999999E-002    0.26814358973537494     
   4.4100000000000000E-002    0.23060350433813148     
   4.4400000000000002E-002    0.18421457943139177     
   4.4700000000000004E-002    0.13018356654504262     
   4.4999999999999998E-002     7.0514411202488469E-002
   4.5300000000000000E-002     8.3974202172122508E-003
   4.5600000000000002E-002    -5.0771088392661798E-002
   4.5899999999999996E-002   -0.10402667831269390     
   4.6200000000000005E-002   -0.14811367447267357     
   4.6500000000000000E-002   -0.17855465857765895     
   4.6799999999999994E-002   -0.19330938434855560     
   4.7100000000000003E-002   -0.19149684985371784     
   4.7399999999999998E-002   -0.17296648201070053     
   4.7700000000000006E-002   -0.13947854428721568     
   4.8000000000000001E-002    -9.3146240836114363E-002
   4.8300000000000010E-002    -3.7270474063319806E-002
   4.8600000000000004E-002     2.3591974799926786E-002
   4.8899999999999999E-002     8.5411241092988768E-002
   4.9200000000000008E-002    0.14314854898636203     
   4.9500000000000002E-002    0.19155684423893460     
   4.9800000000000011E-002    0.22696606343300471     
   5.0100000000000006E-002    0.24506798389586282     
   5.0400000000000000E-002    0.24276047166308803     
   5.0700000000000009E-002    0.21945361655754297     
   5.1000000000000004E-002    0.17473380859118065     
   5.1299999999999998E-002    0.11153536881549897     
   5.1600000000000007E-002     3.3676296576447218E-002
   5.1900000000000002E-002    -5.4503229453991595E-002
   5.2200000000000010E-002   -0.14498968270024032     
   5.2500000000000005E-002   -0.23025249434467493     
   5.2800000000000000E-002   -0.30296216348904315     
   5.3099999999999994E-002   -0.35560677215836117     
   5.3400000000000003E-002   -0.38341940402595354     
   5.3699999999999998E-002   -0.38260405005262482     
   5.4000000000000006E-002   -0.35212103340395912     
   5.4300000000000001E-002   -0.29478451799868322     
   5.4599999999999996E-002   -0.21491143310452349     
   5.4900000000000004E-002   -0.11941649852512495     
   5.5199999999999999E-002    -1.7991622723775282E-002
   5.5499999999999994E-002     7.9929153001372433E-002
   5.5800000000000002E-002    0.16474183825402297     
   5.6099999999999997E-002    0.22815176288110420     
   5.6400000000000006E-002    0.26481142126419044     
   5.6700000000000000E-002    0.27086578334640077     
   5.6999999999999995E-002    0.24689074344970546     
   5.7300000000000004E-002    0.19735985884047730     
   5.7599999999999998E-002    0.12799893642295218     
   5.7900000000000007E-002     4.7692406380327929E-002
   5.8200000000000002E-002    -3.3234466502214843E-002
   5.8499999999999996E-002   -0.10623124916596616     
   5.8800000000000005E-002   -0.16319993892806228     
   5.9100000000000000E-002   -0.19902821912390839     
   5.9400000000000008E-002   -0.21172507513187350     
   5.9700000000000003E-002   -0.20283372398793115     
   6.0000000000000012E-002   -0.17854314120694920     
   6.0300000000000006E-002   -0.14578445240808480     
   6.0600000000000001E-002   -0.11196311775486695     
   6.0900000000000010E-002    -8.6347620078057463E-002
   6.1200000000000004E-002    -7.4845871065032710E-002
   6.1500000000000013E-002    -7.9616975697201067E-002
   6.1800000000000008E-002   -0.10012334345071047     
   6.2100000000000002E-002   -0.13034604261232591     
   6.2399999999999997E-002   -0.16143691278573394     
   6.2700000000000006E-002   -0.18250673413764792     
   6.3000000000000000E-002   -0.18163130735982785     
   6.3300000000000009E-002   -0.14919212819382827     
   6.3600000000000004E-002    -7.9675065601611195E-002
   6.3899999999999998E-002     2.7017362038585055E-002
   6.4199999999999993E-002    0.16370079842537261     
   6.4500000000000002E-002    0.31732350023934747     
   6.4800000000000010E-002    0.46863538711188413     
   6.5100000000000005E-002    0.59397806020360866     
   6.5400000000000000E-002    0.67021936076776556     
   6.5700000000000008E-002    0.67647517361503873     
   6.5999999999999989E-002    0.59665106507934340     
   6.6299999999999998E-002    0.42531302564673334     
   6.6600000000000006E-002    0.16659388777044151     
   6.6900000000000001E-002   -0.16397173490686273     
   6.7199999999999996E-002   -0.53867907142379856     
   6.7500000000000004E-002   -0.92288677708707501     
   6.7800000000000013E-002    -1.2756279535906820     
   6.8099999999999994E-002    -1.5553316490419289     
   6.8400000000000002E-002    -1.7255750022424543     
   6.8700000000000011E-002    -1.7566444635317746     
   6.8999999999999992E-002    -1.6322664926412682     
   6.9300000000000000E-002    -1.3513841464016703     
   6.9600000000000009E-002   -0.92782787763926300     
   6.9900000000000004E-002   -0.39145048826490769     
   7.0199999999999999E-002    0.21639398403560894     
   7.0500000000000007E-002    0.84534571957036420     
   7.0800000000000016E-002     1.4412428158985569     
   7.1099999999999997E-002     1.9533843099754806     
   7.1400000000000005E-002     2.3374452163866746     
   7.1700000000000000E-002     2.5598074862655982     
   7.1999999999999995E-002     2.6031127810126025     
   7.2300000000000003E-002     2.4656257581775760     
   7.2600000000000012E-002     2.1606221485191770     
   7.2900000000000006E-002     1.7164833437322125     
   7.3200000000000001E-002     1.1719310156126475     
   7.3499999999999996E-002    0.57124918574003802     
   7.3800000000000004E-002    -3.8908507050907093E-002
   7.4099999999999999E-002   -0.61397413714157656     
   7.4400000000000008E-002    -1.1157765430011370     
   7.4700000000000003E-002    -1.5159070796516196     
   7.5000000000000011E-002    -1.7964279179892813     
   7.5299999999999992E-002    -1.9487042915206150     
   7.5600000000000001E-002    -1.9758100124907596     
   7.5900000000000009E-002    -1.8899242649187202     
   7.6200000000000004E-002    -1.7075503519879267     
   7.6499999999999999E-002    -1.4507630381316969     
   7.6800000000000007E-002    -1.1439810269600155     
   7.7099999999999988E-002   -0.80945111807460535     
   7.7399999999999997E-002   -0.46917274746779492     
   7.7700000000000005E-002   -0.14221508412003275     
   7.8000000000000014E-002    0.15595595336634216     
   7.8299999999999995E-002    0.41315372969084296     
   7.8600000000000003E-002    0.62179063887142627     
   7.8900000000000012E-002    0.77641918668071175     
   7.9199999999999993E-002    0.87496803991517180     
   7.9500000000000001E-002    0.91975684448553086     
   7.9800000000000010E-002    0.91421415442236431     
   8.0100000000000018E-002    0.86434949120301552     
   8.0399999999999999E-002    0.77865398214725845     
   8.0700000000000008E-002    0.66613523315204914     
   8.1000000000000003E-002    0.53781503192424995     
   8.1299999999999997E-002    0.40371521418104561     
   8.1600000000000006E-002    0.27251671047918269     
   8.1900000000000014E-002    0.15276744932373271     
   8.2199999999999995E-002     5.0454541884880258E-002
   8.2500000000000004E-002    -3.1379785932958010E-002
   8.2799999999999999E-002    -9.1236126467355183E-002
   8.3100000000000007E-002   -0.13110009531683176     
   8.3400000000000002E-002   -0.15385918008368543     
   8.3700000000000011E-002   -0.16307234999699496     
   8.4000000000000005E-002   -0.16394865327173702     
   8.4300000000000000E-002   -0.16053704349378034     
   8.4599999999999995E-002   -0.15605864181514248     
   8.4900000000000003E-002   -0.15257665795398076     
   8.5199999999999998E-002   -0.15040119857051240     
   8.5500000000000007E-002   -0.14932846299182556     
   8.5800000000000001E-002   -0.14797456888472782     
   8.6100000000000010E-002   -0.14441235234372540     
   8.6399999999999991E-002   -0.13774061150878464     
   8.6699999999999999E-002   -0.12700087666946636     
   8.7000000000000008E-002   -0.11223349108318981     
   8.7300000000000003E-002    -9.5008041040364991E-002
   8.7599999999999997E-002    -7.6990018083154671E-002
   8.7900000000000006E-002    -6.0183908053954904E-002
   8.8200000000000014E-002    -4.7397816602230081E-002
   8.8499999999999995E-002    -4.0521085036578669E-002
   8.8800000000000004E-002    -4.0088412571572966E-002
   8.9100000000000013E-002    -4.6069196524837056E-002
   8.9399999999999993E-002    -5.6924840654752062E-002
   8.9700000000000002E-002    -7.1488733457561321E-002
   9.0000000000000011E-002    -8.7278153327549207E-002
   9.0299999999999991E-002   -0.10131376130359947     
   9.0600000000000000E-002   -0.11196666265577981     
   9.0900000000000009E-002   -0.11767965865665894     
   9.1200000000000017E-002   -0.11790101152480334     
   9.1499999999999998E-002   -0.11379464354680353     
   9.1800000000000007E-002   -0.10604105016957904     
   9.2100000000000001E-002    -9.6289565445412909E-002
   9.2399999999999996E-002    -8.6314473855302248E-002
   9.2700000000000005E-002    -7.6960747791801370E-002
   9.3000000000000013E-002    -6.9750010368252749E-002
   9.3300000000000008E-002    -6.4131286837849258E-002
   9.3600000000000003E-002    -5.8737594642420510E-002
   9.3899999999999997E-002    -5.2913704149315482E-002
   9.4200000000000006E-002    -4.5281652643363909E-002
   9.4500000000000001E-002    -3.4193210762752661E-002
   9.4800000000000009E-002    -1.8693329379488966E-002
   9.5100000000000004E-002     1.5594501357705098E-003
   9.5399999999999999E-002     2.4880472024504996E-002
   9.5699999999999993E-002     5.0190420666396354E-002
   9.6000000000000002E-002     7.6359593963826744E-002
   9.6300000000000011E-002    0.10033875643062241     
   9.6600000000000005E-002    0.12010927801369359     
   9.6900000000000000E-002    0.13466171751144371     
   9.7200000000000009E-002    0.14311137713578534     
   9.7499999999999989E-002    0.14584574770696690     
   9.7799999999999998E-002    0.14371511627100450     
   9.8100000000000007E-002    0.13808763977096641     
   9.8400000000000015E-002    0.13139197038297917     
   9.8699999999999996E-002    0.12482669037151126     
   9.9000000000000005E-002    0.12021347441741193     
   9.9300000000000013E-002    0.11860497041688903     
   9.9599999999999994E-002    0.11933213668045214     
   9.9900000000000003E-002    0.12219536657194588     
  0.10020000000000001         0.12624086812128793     
  0.10049999999999999         0.12980565796442975     
  0.10080000000000000         0.13147676969290087     
  0.10110000000000001         0.12984536171550332     
  0.10140000000000000         0.12481381732014712     
  0.10170000000000000         0.11626559040221386     
  0.10200000000000001         0.10398224828556998     
  0.10230000000000002          8.9606500348782717E-002
  0.10260000000000000          7.4529361962040519E-002
  0.10290000000000001          5.9798434616358698E-002
  0.10320000000000000          4.6219772019307534E-002
  0.10350000000000001          3.4687634043069668E-002
  0.10380000000000000          2.5375769237448310E-002
  0.10410000000000001          1.7608739372172798E-002
  0.10440000000000001          1.0964519388428639E-002
  0.10470000000000000          4.3153857261988785E-003
  0.10500000000000000         -3.1749379333197037E-003
  0.10530000000000000         -1.1892677790867726E-002
  0.10560000000000000         -2.1825347416776018E-002
  0.10590000000000001         -3.2305869615802757E-002
  0.10620000000000000         -4.3263375128050743E-002
  0.10650000000000001         -5.3005793231916933E-002
  0.10679999999999999         -5.9855399745188741E-002
  0.10710000000000000         -6.3097609559904580E-002
  0.10740000000000001         -6.1390175360823654E-002
  0.10770000000000000         -5.5076995066172120E-002
  0.10800000000000000         -4.5129704336780208E-002
  0.10830000000000001         -3.1634082676525413E-002
  0.10859999999999999         -1.6589768076465596E-002
  0.10890000000000000         -1.6352049690277317E-003
  0.10920000000000001          1.1455471735388594E-002
  0.10950000000000001          2.1318171638222944E-002
  0.10979999999999999          2.7440223239742260E-002
  0.11009999999999999          2.9163497636118221E-002
  0.11040000000000001          2.7186061671753286E-002
  0.11070000000000001          2.2436102716651463E-002
  0.11100000000000000          1.5636645124529842E-002
  0.11130000000000000          8.4406590025518109E-003
  0.11160000000000002          1.6700022761740505E-003
  0.11190000000000001         -4.7022258833720066E-003
  0.11220000000000001         -1.0081198903683433E-002
  0.11250000000000000         -1.5054612870875311E-002
  0.11280000000000000         -2.0553937041801831E-002
  0.11309999999999999         -2.7524553690302878E-002
  0.11340000000000001         -3.6510137022660621E-002
  0.11369999999999998         -4.8443991489137347E-002
  0.11400000000000000         -6.3341071734870108E-002
  0.11430000000000000         -8.0069000962656206E-002
  0.11460000000000002         -9.7602612357096899E-002
  0.11489999999999999        -0.11474140197836519     
  0.11520000000000001        -0.12995810793716667     
  0.11550000000000001        -0.14110150539733907     
  0.11580000000000000        -0.14759070151700723     
  0.11609999999999999        -0.14958451976526405     
  0.11640000000000002        -0.14647095979458483     
  0.11670000000000001        -0.13941979507839078     
  0.11700000000000001        -0.13035604636786310     
  0.11730000000000000        -0.12038709892566574     
  0.11760000000000000        -0.11132833881633164     
  0.11789999999999999        -0.10410072767062821     
  0.11820000000000001         -9.9993272109938164E-002
  0.11850000000000001         -9.9118219768628751E-002
  0.11880000000000000        -0.10012084245526343     
  0.11910000000000000        -0.10273959602457525     
  0.11940000000000002        -0.10537905530331240     
  0.11970000000000001        -0.10682847521773961     
  0.12000000000000001        -0.10662759448292108     
  0.12030000000000000        -0.10362432466361039     
  0.12060000000000000         -9.7984461093486505E-002
  0.12089999999999999         -8.9954701183230970E-002
  0.12119999999999999         -8.0176375124437246E-002
  0.12150000000000001         -7.0045006213392921E-002
  0.12180000000000001         -5.9976191216368727E-002
  0.12210000000000000         -5.0618149322305094E-002
  0.12239999999999999         -4.2180232334889614E-002
  0.12270000000000002         -3.4382425097974213E-002
  0.12300000000000001         -2.6696389035901331E-002
  0.12330000000000001         -1.8296722226425990E-002
  0.12360000000000000         -8.0884804182546535E-003
  0.12390000000000000          4.6475621526065047E-003
  0.12419999999999999          1.9987474023401661E-002
  0.12450000000000001          3.7962366924920776E-002
  0.12480000000000001          5.7972837363106267E-002
  0.12509999999999999          7.8633738177063900E-002
  0.12540000000000001          9.8995436086427996E-002
  0.12570000000000003         0.11708983361746614     
  0.12600000000000000         0.13130474174407455     
  0.12630000000000002         0.14108224485189619     
  0.12659999999999999         0.14582914856663109     
  0.12690000000000001         0.14602301370146575     
  0.12719999999999998         0.14224686199653810     
  0.12750000000000000         0.13579324159901884     
  0.12780000000000002         0.12873547628334286     
  0.12809999999999999         0.12170429594670071     
  0.12840000000000001         0.11614656291957118     
  0.12869999999999998         0.11362448881758594     
  0.12900000000000000         0.11348004079280571     
  0.12930000000000003         0.11565554905336223     
  0.12959999999999999         0.11967726404349099     
  0.12990000000000002         0.12410161305319750     
  0.13019999999999998         0.12817210974618490     
  0.13050000000000000         0.13103323305190573     
  0.13080000000000003         0.13244171100154184     
  0.13109999999999999         0.13218534033568380     
  0.13140000000000002         0.13030399128478409     
  0.13169999999999998         0.12817223856494792     
  0.13200000000000001         0.12666196382633282     
  0.13229999999999997         0.12541866407685548     
  0.13260000000000000         0.12525379638265755     
  0.13290000000000002         0.12679559114392125     
  0.13319999999999999         0.12869404762524633     
  0.13350000000000001         0.13001050143616621     
  0.13380000000000003         0.12993749317778300     
  0.13410000000000000         0.12725491248382756     
  0.13440000000000002         0.12125051082704222     
  0.13469999999999999         0.11071532766099863     
  0.13500000000000001          9.6225058902126973E-002
  0.13529999999999998          7.9019516718961624E-002
  0.13560000000000000          5.9031074653106572E-002
  0.13590000000000002          3.8645079814992454E-002
  0.13619999999999999          1.9533398636788071E-002
  0.13650000000000001          2.2498179323284595E-003
  0.13680000000000003         -1.1551264230428720E-002
  0.13710000000000000         -2.1652097112871267E-002
  0.13740000000000002         -2.8227837819499776E-002
  0.13769999999999999         -3.1894036790797345E-002
  0.13800000000000001         -3.4405125483474436E-002
  0.13829999999999998         -3.6167139223678715E-002
  0.13860000000000000         -3.8435801078667647E-002
  0.13890000000000002         -4.2478544812105556E-002
  0.13919999999999999         -4.7693304452886137E-002
  0.13950000000000001         -5.4259166350757539E-002
  0.13979999999999998         -6.2119227965036550E-002
  0.14010000000000000         -6.9624915804851778E-002
  0.14040000000000002         -7.6264976711646018E-002
  0.14069999999999999         -8.1947525326037815E-002
  0.14100000000000001         -8.5742533343829877E-002
  0.14130000000000004         -8.8100520055241924E-002
  0.14160000000000000         -8.9815314166841825E-002
  0.14189999999999997         -9.1923439823511519E-002
  0.14219999999999999         -9.5664791547375908E-002
  0.14250000000000002        -0.10157046866350460     
  0.14279999999999998        -0.11058783031489960     
  0.14310000000000000        -0.12307851489237337     
  0.14339999999999997        -0.13784060447548768     
  0.14369999999999999        -0.15423185082382551     
  0.14400000000000002        -0.17090068833378097     
  0.14429999999999998        -0.18551881281116955     
  0.14460000000000001        -0.19731291240213972     
  0.14490000000000003        -0.20462475295487612     
  0.14520000000000000        -0.20613196444665205     
  0.14550000000000002        -0.20240653340811374     
  0.14579999999999999        -0.19345811872085264     
  0.14610000000000001        -0.18036895603165945     
  0.14640000000000003        -0.16509271510337864     
  0.14670000000000000        -0.14801261924533640     
  0.14699999999999996        -0.13101859960070239     
  0.14729999999999999        -0.11540039977997671     
  0.14760000000000001        -0.10112193866295718     
  0.14789999999999998         -8.8871102809768732E-002
  0.14820000000000000         -7.8091482257859057E-002