  -1.4999999999999999E-002     0.0000000000000000     
  -1.4700000000000000E-002     0.0000000000000000     
  -1.4400000000000000E-002     0.0000000000000000     
  -1.4100000000000000E-002     0.0000000000000000     
  -1.3800000000000000E-002     0.0000000000000000     
  -1.3500000000000000E-002     0.0000000000000000     
  -1.3200000000000000E-002     0.0000000000000000     
  -1.2899999999999998E-002     0.0000000000000000     
  -1.2600000000000000E-002     0.0000000000000000     
  -1.2299999999999998E-002     0.0000000000000000     
  -1.2000000000000000E-002     0.0000000000000000     
  -1.1699999999999999E-002     0.0000000000000000     
  -1.1399999999999999E-002     0.0000000000000000     
  -1.1099999999999999E-002     0.0000000000000000     
  -1.0799999999999999E-002     0.0000000000000000     
  -1.0499999999999999E-002     0.0000000000000000     
  -1.0199999999999999E-002     0.0000000000000000     
  -9.8999999999999991E-003     0.0000000000000000     
  -9.5999999999999992E-003     0.0000000000000000     
  -9.2999999999999992E-003     0.0000000000000000     
  -8.9999999999999993E-003     0.0000000000000000     
  -8.6999999999999994E-003     0.0000000000000000     
  -8.3999999999999995E-003     0.0000000000000000     
  -8.0999999999999996E-003     0.0000000000000000     
  -7.7999999999999988E-003     0.0000000000000000     
  -7.4999999999999997E-003     0.0000000000000000     
  -7.1999999999999998E-003     0.0000000000000000     
  -6.8999999999999981E-003     0.0000000000000000     
  -6.5999999999999982E-003     0.0000000000000000     
  -6.3000000000000000E-003     0.0000000000000000     
  -6.0000000000000001E-003     0.0000000000000000     
  -5.6999999999999985E-003     0.0000000000000000     
  -5.3999999999999986E-003     0.0000000000000000     
  -5.1000000000000004E-003     0.0000000000000000     
  -4.7999999999999987E-003     0.0000000000000000     
  -4.5000000000000005E-003     0.0000000000000000     
  -4.1999999999999989E-003     0.0000000000000000     
  -3.8999999999999990E-003     0.0000000000000000     
  -3.5999999999999990E-003     0.0000000000000000     
  -3.2999999999999991E-003     0.0000000000000000     
  -2.9999999999999992E-003     0.0000000000000000     
  -2.6999999999999993E-003     0.0000000000000000     
  -2.3999999999999994E-003     0.0000000000000000     
  -2.0999999999999977E-003     0.0000000000000000     
  -1.7999999999999995E-003     0.0000000000000000     
  -1.4999999999999979E-003     0.0000000000000000     
  -1.1999999999999997E-003     0.0000000000000000     
  -8.9999999999999976E-004     0.0000000000000000     
  -5.9999999999999810E-004     0.0000000000000000     
  -2.9999999999999992E-004     0.0000000000000000     
   0.0000000000000000          0.0000000000000000     
   3.0000000000000165E-004     0.0000000000000000     
   5.9999999999999984E-004     0.0000000000000000     
   9.0000000000000149E-004     0.0000000000000000     
   1.2000000000000031E-003     0.0000000000000000     
   1.5000000000000013E-003     0.0000000000000000     
   1.8000000000000030E-003     0.0000000000000000     
   2.1000000000000012E-003     0.0000000000000000     
   2.3999999999999994E-003     0.0000000000000000     
   2.7000000000000010E-003     0.0000000000000000     
   2.9999999999999992E-003     0.0000000000000000     
   3.3000000000000008E-003     0.0000000000000000     
   3.6000000000000025E-003     0.0000000000000000     
   3.9000000000000007E-003     0.0000000000000000     
   4.2000000000000023E-003     0.0000000000000000     
   4.5000000000000005E-003     0.0000000000000000     
   4.7999999999999987E-003     0.0000000000000000     
   5.1000000000000004E-003     0.0000000000000000     
   5.4000000000000020E-003     0.0000000000000000     
   5.7000000000000037E-003     0.0000000000000000     
   5.9999999999999984E-003     0.0000000000000000     
   6.3000000000000000E-003     0.0000000000000000     
   6.6000000000000017E-003     0.0000000000000000     
   6.9000000000000034E-003     0.0000000000000000     
   7.2000000000000015E-003     0.0000000000000000     
   7.5000000000000032E-003     0.0000000000000000     
   7.8000000000000014E-003     0.0000000000000000     
   8.0999999999999996E-003     0.0000000000000000     
   8.4000000000000012E-003     1.2525067258097705E-043
   8.7000000000000029E-003     4.9581558007242650E-038
   9.0000000000000011E-003    -4.7970991200211130E-036
   9.2999999999999992E-003     4.5154436281163714E-035
   9.6000000000000009E-003     1.7322323549356910E-034
   9.8999999999999991E-003    -2.8756277970827424E-033
   1.0200000000000001E-002     1.8384000076621047E-033
   1.0500000000000002E-002     6.3670290118389933E-032
   1.0800000000000004E-002    -2.6663171033770020E-031
   1.1099999999999999E-002     1.8139924397492168E-031
   1.1400000000000000E-002    -3.6980014107488700E-031
   1.1700000000000002E-002     9.0333777330086653E-030
   1.2000000000000004E-002     4.7839329850451960E-029
   1.2300000000000002E-002    -9.4915112181438066E-028
   1.2600000000000000E-002     4.5119114769216879E-027
   1.2900000000000002E-002    -2.0939749274828311E-027
   1.3200000000000000E-002    -7.8030293426544666E-026
   1.3500000000000002E-002     4.1348928503713300E-025
   1.3800000000000003E-002    -8.2219788957843220E-025
   1.4100000000000001E-002    -1.2267453891515469E-024
   1.4400000000000000E-002     1.2460675482886353E-023
   1.4700000000000001E-002    -3.1445093685665157E-023
   1.4999999999999999E-002    -7.2836960670043717E-024
   1.5300000000000001E-002     3.1326447406254983E-022
   1.5600000000000003E-002    -1.0527839251946177E-021
   1.5899999999999997E-002     9.5367714523037707E-022
   1.6199999999999999E-002     7.2758238305977075E-021
   1.6500000000000001E-002    -4.9240438543438446E-020
   1.6800000000000002E-002     2.0805091297873104E-019
   1.7100000000000004E-002    -7.9152367635030003E-019
   1.7400000000000006E-002     3.1092109669133082E-018
   1.7700000000000000E-002    -1.2917393814917322E-017
   1.8000000000000002E-002     5.4679402003879329E-017
   1.8300000000000004E-002    -2.2675745687897283E-016
   1.8600000000000005E-002     8.9815606368130688E-016
   1.8900000000000000E-002    -3.3216054581833874E-015
   1.9200000000000002E-002     1.1071279951645976E-014
   1.9500000000000003E-002    -3.0902136386817162E-014
   1.9799999999999998E-002     5.7595872092722181E-014
   2.0100000000000000E-002     3.3891462846631452E-014
   2.0400000000000001E-002    -9.2943753336733146E-013
   2.0700000000000003E-002     4.9826752440570264E-012
   2.0999999999999998E-002    -1.6808599066460896E-011
   2.1299999999999999E-002     3.4447507871039399E-011
   2.1600000000000001E-002    -7.4865906046034389E-012
   2.1900000000000003E-002    -2.3583294679159875E-010
   2.2200000000000004E-002     8.6707843734680593E-010
   2.2500000000000006E-002    -1.1204232843896375E-009
   2.2800000000000001E-002    -2.1345423218970667E-009
   2.3100000000000002E-002     1.0887683242977187E-008
   2.3400000000000004E-002    -1.0248010144526416E-008
   2.3699999999999999E-002    -3.2996696716391274E-008
   2.4000000000000000E-002     8.2114679054726353E-008
   2.4300000000000002E-002     5.0909664728036097E-008
   2.4599999999999997E-002    -3.1682238468680319E-007
   2.4900000000000005E-002    -9.8976869827670067E-008
   2.5200000000000000E-002     9.2086144373586416E-007
   2.5499999999999995E-002     5.8400135614186869E-007
   2.5800000000000003E-002    -2.2256316328410960E-006
   2.6099999999999998E-002    -3.4657737279711199E-006
   2.6400000000000007E-002     3.9446176577904565E-006
   2.6700000000000002E-002     2.3380760082812421E-005
   2.6999999999999996E-002     5.2028606914079943E-005
   2.7300000000000005E-002     8.6941003040005049E-005
   2.7600000000000000E-002     1.3219075350707934E-004
   2.7900000000000008E-002     2.0023731727092180E-004
   2.8200000000000003E-002     3.0992053538061022E-004
   2.8499999999999998E-002     4.8450350811213690E-004
   2.8800000000000006E-002     7.5191577167598095E-004
   2.9100000000000001E-002     1.1491581626830311E-003
   2.9400000000000003E-002     1.7284961279928992E-003
   2.9700000000000004E-002     2.5627872686465555E-003
   3.0000000000000006E-002     3.7499185975816310E-003
   3.0300000000000001E-002     5.4161132004544258E-003
   3.0600000000000002E-002     7.7177936956079884E-003
   3.0900000000000004E-002     1.0843558733906139E-002
   3.1199999999999999E-002     1.5014861467124234E-002
   3.1500000000000007E-002     2.0484385088197759E-002
   3.1800000000000002E-002     2.7526886532844984E-002
   3.2099999999999997E-002     3.6420644999116326E-002
   3.2400000000000005E-002     4.7422224966923665E-002
   3.2700000000000000E-002     6.0735660595598130E-002
   3.3000000000000002E-002     7.6464894939202999E-002
   3.3300000000000003E-002     9.4560381634420820E-002
   3.3599999999999998E-002    0.11475384761313491     
   3.3900000000000000E-002    0.13649044066133750     
   3.4200000000000001E-002    0.15887223911665677     
   3.4500000000000003E-002    0.18059914640626448     
   3.4799999999999998E-002    0.19994769414689706     
   3.5099999999999999E-002    0.21476987985476129     
   3.5400000000000001E-002    0.22253423454392182     
   3.5699999999999996E-002    0.22043564429525692     
   3.6000000000000004E-002    0.20554753581691448     
   3.6299999999999999E-002    0.17504424648671663     
   3.6600000000000008E-002    0.12647012443600142     
   3.6900000000000002E-002     5.8040762981608998E-002
   3.7199999999999997E-002    -3.1016429588799670E-002
   3.7500000000000006E-002   -0.14016356230458549     
   3.7800000000000000E-002   -0.26731179401916572     
   3.8100000000000009E-002   -0.40862973425950749     
   3.8400000000000004E-002   -0.55854805887509507     
   3.8699999999999998E-002   -0.70984736355081268     
   3.9000000000000007E-002   -0.85395793048715285     
   3.9300000000000002E-002   -0.98142920441055015     
   3.9600000000000003E-002    -1.0825077788280122     
   3.9900000000000005E-002    -1.1478791758779510     
   4.0200000000000000E-002    -1.1694233948361481     
   4.0500000000000001E-002    -1.1409637252964135     
   4.0800000000000003E-002    -1.0589386703690729     
   4.1100000000000005E-002   -0.92288742653532130     
   4.1399999999999999E-002   -0.73569241494081783     
   4.1700000000000008E-002   -0.50364264116429147     
   4.2000000000000003E-002   -0.23610336623377703     
   4.2299999999999997E-002     5.5026303116899412E-002
   4.2600000000000006E-002    0.35596801499612796     
   4.2900000000000001E-002    0.65216818459925574     
   4.3200000000000002E-002    0.92919717497966581     
   4.3500000000000004E-002     1.1736966905563113     
   4.3799999999999999E-002     1.3744066385805616     
   4.4100000000000000E-002     1.5227661823491683     
   4.4400000000000002E-002     1.6134317652164363     
   4.4700000000000004E-002     1.6445122509339312     
   4.4999999999999998E-002     1.6174792782540979     
   4.5300000000000000E-002     1.5368297794084047     
   4.5600000000000002E-002     1.4096218983367232     
   4.5899999999999996E-002     1.2448200548185175     
   4.6200000000000005E-002     1.0524608370068100     
   4.6500000000000000E-002    0.84303198066965823     
   4.6799999999999994E-002    0.62666156710366738     
   4.7100000000000003E-002    0.41256673977577429     
   4.7399999999999998E-002    0.20869849046325747     
   4.7700000000000006E-002     2.1277636991774613E-002
   4.8000000000000001E-002   -0.14514968476954096     
   4.8300000000000010E-002   -0.28774602535788740     
   4.8600000000000004E-002   -0.40542082837280757     
   4.8899999999999999E-002   -0.49832218155050456     
   4.9200000000000008E-002   -0.56769308020659826     
   4.9500000000000002E-002   -0.61564346928311531     
   4.9800000000000011E-002   -0.64469459555658548     
   5.0100000000000006E-002   -0.65758392167320689     
   5.0400000000000000E-002   -0.65711614434660781     
   5.0700000000000009E-002   -0.64582130202908039     
   5.1000000000000004E-002   -0.62600889600771858     
   5.1299999999999998E-002   -0.59962823668239984     
   5.1600000000000007E-002   -0.56823160786838300     
   5.1900000000000002E-002   -0.53303965315155222     
   5.2200000000000010E-002   -0.49488326130976684     
   5.2500000000000005E-002   -0.45433356406656139     
   5.2800000000000000E-002   -0.41176380571580273     
   5.3099999999999994E-002   -0.36740107996752785     
   5.3400000000000003E-002   -0.32136709949529141     
   5.3699999999999998E-002   -0.27386007954958064     
   5.4000000000000006E-002   -0.22523003353325163     
   5.4300000000000001E-002   -0.17594876200500348     
   5.4599999999999996E-002   -0.12694517361641264     
   5.4900000000000004E-002    -7.9549003353276457E-002
   5.5199999999999999E-002    -3.5466344812159246E-002
   5.5499999999999994E-002     2.9246575475952844E-003
   5.5800000000000002E-002     3.2909886561375973E-002
   5.6099999999999997E-002     5.1373711391655606E-002
   5.6400000000000006E-002     5.4939950591726600E-002
   5.6700000000000000E-002     4.0612509550274692E-002
   5.6999999999999995E-002     5.7135125482117716E-003
   5.7300000000000004E-002    -5.1478339764832827E-002
   5.7599999999999998E-002   -0.13113667661212139     
   5.7900000000000007E-002   -0.23187674144521001     
   5.8200000000000002E-002   -0.35007341310777484     
   5.8499999999999996E-002   -0.47981982631040893     
   5.8800000000000005E-002   -0.61312129911895641     
   5.9100000000000000E-002   -0.73995206158112758     
   5.9400000000000008E-002   -0.84890727102803365     
   5.9700000000000003E-002   -0.92801414194596588     
   6.0000000000000012E-002   -0.96553711527289998     
   6.0300000000000006E-002   -0.95118062064053932     
   6.0600000000000001E-002   -0.87718949739538243     
   6.0900000000000010E-002   -0.73911932498361077     
   6.1200000000000004E-002   -0.53680154146852765     
   6.1500000000000013E-002   -0.27475426856776319     
   6.1800000000000008E-002     3.7969799494827344E-002
   6.2100000000000002E-002    0.38786606751771913     
   6.2399999999999997E-002    0.75788221209036688     
   6.2700000000000006E-002     1.1286383185552757     
   6.3000000000000000E-002     1.4796038343017677     
   6.3300000000000009E-002     1.7906277989130024     
   6.3600000000000004E-002     2.0437103241530865     
   6.3899999999999998E-002     2.2239678911107692     
   6.4199999999999993E-002     2.3208743190292331     
   6.4500000000000002E-002     2.3291298011417076     
   6.4800000000000010E-002     2.2484770837263066     
   6.5100000000000005E-002     2.0840373981233076     
   6.5400000000000000E-002     1.8455563426449828     
   6.5700000000000008E-002     1.5462862953261720     
   6.5999999999999989E-002     1.2023609229807630     
   6.6299999999999998E-002    0.83110044208691092     
   6.6600000000000006E-002    0.44982569492510621     
   6.6900000000000001E-002     7.5118806232212829E-002
   6.7199999999999996E-002   -0.27862851052569909     
   6.7500000000000004E-002   -0.59973177009479917     
   6.7800000000000013E-002   -0.87917659646316026     
   6.8099999999999994E-002    -1.1116178535582766     
   6.8400000000000002E-002    -1.2945038664007271     
   6.8700000000000011E-002    -1.4277612615806370     
   6.8999999999999992E-002    -1.5140965670615056     
   6.9300000000000000E-002    -1.5572398415807480     
   6.9600000000000009E-002    -1.5621714110404172     
   6.9900000000000004E-002    -1.5346787676008484     
   7.0199999999999999E-002    -1.4800148687021593     
   7.0500000000000007E-002    -1.4036391424804735     
   7.0800000000000016E-002    -1.3105136758682703     
   7.1099999999999997E-002    -1.2047188837078373     
   7.1400000000000005E-002    -1.0903078821245320     
   7.1700000000000000E-002   -0.97067670548283236     
   7.1999999999999995E-002   -0.84890631796353500     
   7.2300000000000003E-002   -0.72828987642338694     
   7.2600000000000012E-002   -0.61179509622748995     
   7.2900000000000006E-002   -0.50243135640163672     
   7.3200000000000001E-002   -0.40335928286858208     
   7.3499999999999996E-002   -0.31720925847385983     
   7.3800000000000004E-002   -0.24624950829009518     
   7.4099999999999999E-002   -0.19211693989607173     
   7.4400000000000008E-002   -0.15502477396800213     
   7.4700000000000003E-002   -0.13384999935470532     
   7.5000000000000011E-002   -0.12590943838486207     
   7.5299999999999992E-002   -0.12642971238837758     
   7.5600000000000001E-002   -0.12921539512725014     
   7.5900000000000009E-002   -0.12655990373108578     
   7.6200000000000004E-002   -0.10953593712626190     
   7.6499999999999999E-002    -6.9348740261796951E-002
   7.6800000000000007E-002     2.4625121337057288E-003
   7.7099999999999988E-002    0.11288022096587672     
   7.7399999999999997E-002    0.26607791891055765     
   7.7700000000000005E-002    0.46329631635240592     
   7.8000000000000014E-002    0.70157102083358103     
   7.8299999999999995E-002    0.97343801049118328     
   7.8600000000000003E-002     1.2675120228813039     
   7.8900000000000012E-002     1.5681544077642293     
   7.9199999999999993E-002     1.8567394876361865     
   7.9500000000000001E-002     2.1130739232639910     
   7.9800000000000010E-002     2.3163078896816196     
   8.0100000000000018E-002     2.4471679857331519     
   8.0399999999999999E-002     2.4894763180597885     
   8.0700000000000008E-002     2.4312864463101507     
   8.1000000000000003E-002     2.2667785727585188     
   8.1299999999999997E-002     1.9966251570663933     
   8.1600000000000006E-002     1.6281489877278883     
   8.1900000000000014E-002     1.1755971252887949     
   8.2199999999999995E-002    0.65871074817275788     
   8.2500000000000004E-002    0.10168952203518182     
   8.2799999999999999E-002   -0.46826859480657013     
   8.3100000000000007E-002    -1.0232768528250482     
   8.3400000000000002E-002    -1.5362833251116976     
   8.3700000000000011E-002    -1.9829909519527467     
   8.4000000000000005E-002    -2.3436423424701895     
   8.4300000000000000E-002    -2.6037174468449948     
   8.4599999999999995E-002    -2.7550143079510807     
   8.4900000000000003E-002    -2.7958356238434892     
   8.5199999999999998E-002    -2.7306028672260503     
   8.5500000000000007E-002    -2.5694071049275302     
   8.5800000000000001E-002    -2.3268905762257135     
   8.6100000000000010E-002    -2.0210827333096888     
   8.6399999999999991E-002    -1.6721424640125981     
   8.6699999999999999E-002    -1.3009281763549065     
   8.7000000000000008E-002   -0.92754106085555432     
   8.7300000000000003E-002   -0.57036176032849284     
   8.7599999999999997E-002   -0.24498614375412187     
   8.7900000000000006E-002     3.6840708022169419E-002
   8.8200000000000014E-002    0.26739726618232462     
   8.8499999999999995E-002    0.44371392292306233     
   8.8800000000000004E-002    0.56755420098575982     
   8.9100000000000013E-002    0.64494654420722519     
   8.9399999999999993E-002    0.68616440971195425     
   8.9700000000000002E-002    0.70443979085170927     
   9.0000000000000011E-002    0.71505639210270433     
   9.0299999999999991E-002    0.73442486313896349     
   9.0600000000000000E-002    0.77775934974400474     
   9.0900000000000009E-002    0.85825745337168025     
   9.1200000000000017E-002    0.98523502281559727     
   9.1499999999999998E-002     1.1622902712580012     
   9.1800000000000007E-002     1.3873280954108798     
   9.2100000000000001E-002     1.6510243017236204     
   9.2399999999999996E-002     1.9374772046175663     
   9.2700000000000005E-002     2.2251673806581804     
   9.3000000000000013E-002     2.4873810995418602     
   9.3300000000000008E-002     2.6956437907426145     
   9.3600000000000003E-002     2.8213390245916381     
   9.3899999999999997E-002     2.8383635416771273     
   9.4200000000000006E-002     2.7267764881660321     
   9.4500000000000001E-002     2.4739507386105366     
   9.4800000000000009E-002     2.0772377009691874     
   9.5100000000000004E-002     1.5448488692384388     
   9.5399999999999999E-002    0.89530710279161652     
   9.5699999999999993E-002    0.15769489511691351     
   9.6000000000000002E-002   -0.63146111686966144     
   9.6300000000000011E-002    -1.4302639472421019     
   9.6600000000000005E-002    -2.1944855318536529     
   9.6900000000000000E-002    -2.8817111440130474     
   9.7200000000000009E-002    -3.4539088461843033     
   9.7499999999999989E-002    -3.8809949806904740     
   9.7799999999999998E-002    -4.1428062489729198     
   9.8100000000000007E-002    -4.2301795092677903     
   9.8400000000000015E-002    -4.1458398861460770     
   9.8699999999999996E-002    -3.9029268664516374     
   9.9000000000000005E-002    -3.5239485956454892     
   9.9300000000000013E-002    -3.0381070594945014     
   9.9599999999999994E-002    -2.4782792278755350     
   9.9900000000000003E-002    -1.8785954373433900     
  0.10020000000000001         -1.2709017357767742     
  0.10049999999999999        -0.68304547418788319     
  0.10080000000000000        -0.13687819329941950     
  0.10110000000000001         0.35310798193910559     
  0.10140000000000000         0.77885155257643524     
  0.10170000000000000          1.1392248284967237     
  0.10200000000000001          1.4379663025794687     
  0.10230000000000002          1.6817389397794846     
  0.10260000000000000          1.8792562244596789     
  0.10290000000000001          2.0379723137093695     
  0.10320000000000000          2.1634796732013037     
  0.10350000000000001          2.2583216333996554     
  0.10380000000000000          2.3204785502794207     
  0.10410000000000001          2.3449386268816363     
  0.10440000000000001          2.3234263540049853     
  0.10470000000000000          2.2459715430274749     
  0.10500000000000000          2.1034837702257310     
  0.10530000000000000          1.8881417137201910     
  0.10560000000000000          1.5963674258265688     
  0.10590000000000001          1.2300905475651791     
  0.10620000000000000         0.79693469208887735     
  0.10650000000000001         0.31166101007183811     
  0.10679999999999999        -0.20509723219268353     
  0.10710000000000000        -0.72795079441924271     
  0.10740000000000001         -1.2280154879316652     
  0.10770000000000000         -1.6758274690049999     
  0.10800000000000000         -2.0434664306704766     
  0.10830000000000001         -2.3072675398045619     
  0.10859999999999999         -2.4496799695675233     
  0.10890000000000000         -2.4611514792022149     
  0.10920000000000001         -2.3410891217051697     
  0.10950000000000001         -2.0976480048704280     
  0.10979999999999999         -1.7476400963919403     
  0.11009999999999999         -1.3144698762634170     
  0.11040000000000001        -0.82656500614757367     
  0.11070000000000001        -0.31535823540327745     
  0.11100000000000000         0.18817291739078182     
  0.11130000000000000         0.65450951870488183     
  0.11160000000000002          1.0584263153876563     
  0.11190000000000001          1.3807085275109299     
  0.11220000000000001          1.6076367742489808     
  0.11250000000000000          1.7329553093745969     
  0.11280000000000000          1.7567252871058021     
  0.11309999999999999          1.6842746473527972     
  0.11340000000000001          1.5262214811712476     
  0.11369999999999998          1.2961949870301901     
  0.11400000000000000          1.0103955888328848     
  0.11430000000000000         0.68624489056849636     
  0.11460000000000002         0.34129970932361581     
  0.11489999999999999         -6.6714087917295346E-003
  0.11520000000000001        -0.34114552827949485     
  0.11550000000000001        -0.64616272026201915     
  0.11580000000000000        -0.90694181976745025     
  0.11609999999999999         -1.1102563764720876     
  0.11640000000000002         -1.2440248258832745     
  0.11670000000000001         -1.2987998312642768     
  0.11700000000000001         -1.2670160128022931     
  0.11730000000000000         -1.1444737460347105     
  0.11760000000000000        -0.93145072914331384     
  0.11789999999999999        -0.63169955133035327     
  0.11820000000000001        -0.25502017053817744     
  0.11850000000000001         0.18345939579920303     
  0.11880000000000000         0.66415252405403769     
  0.11910000000000000          1.1617625244742771     
  0.11940000000000002          1.6483113329573291     
  0.11970000000000001          2.0936544948272493     
  0.12000000000000001          2.4668046262842140     
  0.12030000000000000          2.7394389100769132     
  0.12060000000000000          2.8866414111747445     
  0.12089999999999999          2.8895896969872563     
  0.12119999999999999          2.7373184197632150     
  0.12150000000000001          2.4272857988328087     
  0.12180000000000001          1.9667647933820007     
  0.12210000000000000          1.3725055015889929     
  0.12239999999999999         0.67009137083434944     
  0.12270000000000002        -0.10719984712519005     
  0.12300000000000001        -0.91986529108131576     
  0.12330000000000001         -1.7245881176229618     
  0.12360000000000000         -2.4770876167816898     
  0.12390000000000000         -3.1333645909620413     
  0.12419999999999999         -3.6540891519041643     
  0.12450000000000001         -4.0057322547740961     
  0.12480000000000001         -4.1625220418195799     
  0.12509999999999999         -4.1100394338281134     
  0.12540000000000001         -3.8442840052100880     
  0.12570000000000003         -3.3736004067279528     
  0.12600000000000000         -2.7191709384389204     
  0.12630000000000002         -1.9124325219362217     
  0.12659999999999999        -0.99568985415236944     
  0.12690000000000001         -1.9127914008611066E-002
  0.12719999999999998         0.96255939225235299     
  0.12750000000000000          1.8917046535029163     
  0.12780000000000002          2.7126370804954196     
  0.12809999999999999          3.3749288765231755     
  0.12840000000000001          3.8361212668714639     
  0.12869999999999998          4.0659105336135717     
  0.12900000000000000          4.0478274358978172     
  0.12930000000000003          3.7807874076168573     
  0.12959999999999999          3.2800346951394177     
  0.12990000000000002          2.5763379328961027     
  0.13019999999999998          1.7141331009539751     
  0.13050000000000000         0.74889579458821032     
  0.13080000000000003        -0.25652043819879566     
  0.13109999999999999         -1.2367631842933950     
  0.13140000000000002         -2.1279624576555705     
  0.13169999999999998         -2.8726560102261267     
  0.13200000000000001         -3.4248387101809259     
  0.13229999999999997         -3.7518867878981870     
  0.13260000000000000         -3.8382160122885143     
  0.13290000000000002         -3.6861697998005156     
  0.13319999999999999         -3.3147510655988861     
  0.13350000000000001         -2.7594214757947246     
  0.13380000000000003         -2.0677457777056949     
  0.13410000000000000         -1.2956173951558623     
  0.13440000000000002        -0.50372595951282595     
  0.13469999999999999         0.24929533303712578     
  0.13500000000000001         0.91041832844444348     
  0.13529999999999998          1.4362276418591395     
  0.13560000000000000          1.7974135671106282     
  0.13590000000000002          1.9793722501442519     
  0.13619999999999999          1.9834623193060794     
  0.13650000000000001          1.8264583107274586     
  0.13680000000000003          1.5379323551827193     
  0.13710000000000000          1.1571484183408705     
  0.13740000000000002         0.72933969270714427     
  0.13769999999999999         0.30088065063965264     
  0.13800000000000001         -8.5015509610182088E-002
  0.13829999999999998        -0.39165347698074815     
  0.13860000000000000        -0.59329203815565790     
  0.13890000000000002        -0.67612509522953612     
  0.13919999999999999        -0.63892243783558533     
  0.13950000000000001        -0.49444172578534673     
  0.13979999999999998        -0.26550137640225541     
  0.14010000000000000          1.6690615212749706E-002
  0.14040000000000002         0.31540430016020188     
  0.14069999999999999         0.59442206193687919     
  0.14100000000000001         0.81942805916932671     
  0.14130000000000004         0.96291140893464833     
  0.14160000000000000          1.0075953465666545     
  0.14189999999999997         0.94635210954275484     
  0.14219999999999999         0.78457460718046779     
  0.14250000000000002         0.53869852304681864     
  0.14279999999999998         0.23398320392694624     
  0.14310000000000000         -9.7057357491625751E-002
  0.14339999999999997        -0.41942079380141550     
  0.14369999999999999        -0.69891449655321258     
  0.14400000000000002        -0.90545842879585081     
  0.14429999999999998         -1.0168799596318765     
  0.14460000000000001         -1.0209790904991192     
  0.14490000000000003        -0.91682169730645591     
  0.14520000000000000        -0.71454915313120693     
  0.14550000000000002        -0.43475599632618445     
  0.14579999999999999        -0.10570000059588394     
  0.14610000000000001         0.23984980812071349     
  0.14640000000000003         0.56747564971672604     
  0.14670000000000000         0.84592096624920576     
  0.14699999999999996          1.0493797615138718     
  0.14729999999999999          1.1602141260839711     
  0.14760000000000001          1.1714660520457776     
  0.14789999999999998          1.0856389344707036     
  0.14820000000000000         0.91562019236231906     