  -1.4999999999999999E-002     0.0000000000000000     
  -1.4700000000000000E-002     0.0000000000000000     
  -1.4400000000000000E-002     0.0000000000000000     
  -1.4100000000000000E-002     0.0000000000000000     
  -1.3800000000000000E-002     0.0000000000000000     
  -1.3500000000000000E-002     0.0000000000000000     
  -1.3200000000000000E-002     0.0000000000000000     
  -1.2899999999999998E-002     0.0000000000000000     
  -1.2600000000000000E-002     0.0000000000000000     
  -1.2299999999999998E-002     0.0000000000000000     
  -1.2000000000000000E-002     0.0000000000000000     
  -1.1699999999999999E-002     0.0000000000000000     
  -1.1399999999999999E-002     0.0000000000000000     
  -1.1099999999999999E-002     0.0000000000000000     
  -1.0799999999999999E-002     0.0000000000000000     
  -1.0499999999999999E-002     0.0000000000000000     
  -1.0199999999999999E-002     0.0000000000000000     
  -9.8999999999999991E-003     0.0000000000000000     
  -9.5999999999999992E-003     0.0000000000000000     
  -9.2999999999999992E-003     0.0000000000000000     
  -8.9999999999999993E-003     0.0000000000000000     
  -8.6999999999999994E-003     0.0000000000000000     
  -8.3999999999999995E-003     0.0000000000000000     
  -8.0999999999999996E-003     0.0000000000000000     
  -7.7999999999999988E-003     0.0000000000000000     
  -7.4999999999999997E-003     0.0000000000000000     
  -7.1999999999999998E-003     0.0000000000000000     
  -6.8999999999999981E-003     0.0000000000000000     
  -6.5999999999999982E-003     0.0000000000000000     
  -6.3000000000000000E-003     0.0000000000000000     
  -6.0000000000000001E-003     0.0000000000000000     
  -5.6999999999999985E-003     0.0000000000000000     
  -5.3999999999999986E-003     0.0000000000000000     
  -5.1000000000000004E-003     0.0000000000000000     
  -4.7999999999999987E-003     0.0000000000000000     
  -4.5000000000000005E-003     0.0000000000000000     
  -4.1999999999999989E-003     0.0000000000000000     
  -3.8999999999999990E-003     0.0000000000000000     
  -3.5999999999999990E-003     0.0000000000000000     
  -3.2999999999999991E-003     0.0000000000000000     
  -2.9999999999999992E-003     0.0000000000000000     
  -2.6999999999999993E-003     0.0000000000000000     
  -2.3999999999999994E-003     0.0000000000000000     
  -2.0999999999999977E-003     0.0000000000000000     
  -1.7999999999999995E-003     0.0000000000000000     
  -1.4999999999999979E-003     0.0000000000000000     
  -1.1999999999999997E-003     0.0000000000000000     
  -8.9999999999999976E-004     0.0000000000000000     
  -5.9999999999999810E-004    -1.7640848597220660E-045
  -2.9999999999999992E-004     9.6038398042839210E-045
   0.0000000000000000         -9.2703157204506405E-037
   3.0000000000000165E-004     6.6847615335662627E-036
   5.9999999999999984E-004     1.2369956274724293E-035
   9.0000000000000149E-004    -1.1850284491679543E-034
   1.2000000000000031E-003     5.7525207858345413E-035
   1.5000000000000013E-003     1.2567270404926509E-033
   1.8000000000000030E-003    -2.7640825450775202E-033
   2.1000000000000012E-003    -4.7167318850580840E-033
   2.3999999999999994E-003     2.8820487807409491E-032
   2.7000000000000010E-003    -2.5437151460304049E-032
   2.9999999999999992E-003    -4.4513688672834729E-032
   3.3000000000000008E-003    -7.2323662428222915E-032
   3.6000000000000025E-003    -1.2685310661454820E-030
   3.9000000000000007E-003     2.0191613096264154E-029
   4.2000000000000023E-003    -7.5273705554564593E-029
   4.5000000000000005E-003    -1.9460819116067901E-028
   4.7999999999999987E-003     3.1699951144976535E-027
   5.1000000000000004E-003    -1.3842362288689438E-026
   5.4000000000000020E-003     1.4334960962373301E-026
   5.7000000000000037E-003     1.6773989206225031E-025
   5.9999999999999984E-003    -1.1425460775084527E-024
   6.3000000000000000E-003     3.7448342588338139E-024
   6.6000000000000017E-003    -5.3255647332647693E-024
   6.9000000000000034E-003    -1.3690819624951537E-023
   7.2000000000000015E-003     1.1442057383750458E-022
   7.5000000000000032E-003    -4.0055437788319787E-022
   7.8000000000000014E-003     8.7087424972551077E-022
   8.0999999999999996E-003    -9.0677138605129005E-022
   8.4000000000000012E-003    -1.6281779572854663E-021
   8.7000000000000029E-003     1.0494000682777093E-020
   9.0000000000000011E-003    -2.5654758625289228E-020
   9.2999999999999992E-003     1.9685418660831713E-020
   9.6000000000000009E-003     1.3176834800267831E-019
   9.8999999999999991E-003    -8.1861960176306441E-019
   1.0200000000000001E-002     3.0474684097414762E-018
   1.0500000000000002E-002    -9.0240508416314267E-018
   1.0800000000000004E-002     2.2481978744402439E-017
   1.1099999999999999E-002    -4.4864859706716994E-017
   1.1400000000000000E-002     4.4456245470956509E-017
   1.1700000000000002E-002     2.2530894141991418E-016
   1.2000000000000004E-002    -2.1788228907148311E-015
   1.2300000000000002E-002     1.2881460557770256E-014
   1.2600000000000000E-002    -6.3175585297198974E-014
   1.2900000000000002E-002     2.6561562637975754E-013
   1.3200000000000000E-002    -9.2951298459593109E-013
   1.3500000000000002E-002     2.4778131468308499E-012
   1.3800000000000003E-002    -3.6067791382748671E-012
   1.4100000000000001E-002    -6.7166389287198002E-012
   1.4400000000000000E-002     6.4996556356274752E-011
   1.4700000000000001E-002    -2.1669978494630580E-010
   1.4999999999999999E-002     3.1360070926582700E-010
   1.5300000000000001E-002     4.7383046247747148E-010
   1.5600000000000003E-002    -3.3550438127375760E-009
   1.5899999999999997E-002     5.6163456975264121E-009
   1.6199999999999999E-002     5.8024193667642239E-009
   1.6500000000000001E-002    -3.6824460193904338E-008
   1.6800000000000002E-002     2.5376952532597205E-008
   1.7100000000000004E-002     1.1965924857082527E-007
   1.7400000000000006E-002    -1.7859290019795417E-007
   1.7700000000000000E-002    -3.4910505368095947E-007
   1.8000000000000002E-002     5.5209142280011419E-007
   1.8300000000000004E-002     1.1478858891762438E-006
   1.8600000000000005E-002    -1.0142360896030355E-006
   1.8900000000000000E-002    -4.0623658737907836E-006
   1.9200000000000002E-002    -2.5690690848831592E-007
   1.9500000000000003E-002     1.8019509346487125E-005
   1.9799999999999998E-002     5.1648436213483850E-005
   2.0100000000000000E-002     9.6966410940365998E-005
   2.0400000000000001E-002     1.5447671514881635E-004
   2.0700000000000003E-002     2.3447458878897404E-004
   2.0999999999999998E-002     3.5765321918273022E-004
   2.1299999999999999E-002     5.5329391203776947E-004
   2.1600000000000001E-002     8.5754739383799147E-004
   2.1900000000000003E-002     1.3160371494879035E-003
   2.2200000000000004E-002     1.9907995654016271E-003
   2.2500000000000006E-002     2.9677623042823485E-003
   2.2800000000000001E-002     4.3633571028759109E-003
   2.3100000000000002E-002     6.3299182997066184E-003
   2.3400000000000004E-002     9.0597244258164723E-003
   2.3699999999999999E-002     1.2787255497859151E-002
   2.4000000000000000E-002     1.7788821886052946E-002
   2.4300000000000002E-002     2.4379536584487705E-002
   2.4599999999999997E-002     3.2905191284280495E-002
   2.4900000000000005E-002     4.3721992656931649E-002
   2.5200000000000000E-002     5.7163004007887673E-002
   2.5499999999999995E-002     7.3494203614693637E-002
   2.5800000000000003E-002     9.2858933197895621E-002
   2.6099999999999998E-002    0.11520569806954728     
   2.6400000000000007E-002    0.14020259721477821     
   2.6700000000000002E-002    0.16714291325948069     
   2.6999999999999996E-002    0.19485767245614860     
   2.7300000000000005E-002    0.22164289721470551     
   2.7600000000000000E-002    0.24520874098862419     
   2.7900000000000008E-002    0.26267963728652372     
   2.8200000000000003E-002    0.27064213239974544     
   2.8499999999999998E-002    0.26526361785513158     
   2.8800000000000006E-002    0.24251133278172257     
   2.9100000000000001E-002    0.19844459058386377     
   2.9400000000000003E-002    0.12959164421013186     
   2.9700000000000004E-002     3.3405874028698060E-002
   3.0000000000000006E-002    -9.1315277200055930E-002
   3.0300000000000001E-002   -0.24391712323186210     
   3.0600000000000002E-002   -0.42152524123952390     
   3.0900000000000004E-002   -0.61879348945099177     
   3.1199999999999999E-002   -0.82775891081729369     
   3.1500000000000007E-002    -1.0380251439554036     
   3.1800000000000002E-002    -1.2371287383951239     
   3.2099999999999997E-002    -1.4111644073047558     
   3.2400000000000005E-002    -1.5457148599522659     
   3.2700000000000000E-002    -1.6268562128566266     
   3.3000000000000002E-002    -1.6423364928279158     
   3.3300000000000003E-002    -1.5827864457248431     
   3.3599999999999998E-002    -1.4426910921679108     
   3.3900000000000000E-002    -1.2212660350294080     
   3.4200000000000001E-002   -0.92298186109953018     
   3.4500000000000003E-002   -0.55748635702543436     
   3.4799999999999998E-002   -0.13941724641718448     
   3.5099999999999999E-002    0.31244662499974207     
   3.5400000000000001E-002    0.77651089668765050     
   3.5699999999999996E-002     1.2295281924909445     
   3.6000000000000004E-002     1.6485279849280889     
   3.6299999999999999E-002     2.0122644963265079     
   3.6600000000000008E-002     2.3026378225702757     
   3.6900000000000002E-002     2.5061464386921624     
   3.7199999999999997E-002     2.6144986233226359     
   3.7500000000000006E-002     2.6250593743174444     
   3.7800000000000000E-002     2.5409278947955380     
   3.8100000000000009E-002     2.3701694084757965     
   3.8400000000000004E-002     2.1251342362123116     
   3.8699999999999998E-002     1.8213659581079253     
   3.9000000000000007E-002     1.4761290595753198     
   3.9300000000000002E-002     1.1073706184208658     
   3.9600000000000003E-002    0.73241180407416961     
   3.9900000000000005E-002    0.36678493136074553     
   4.0200000000000000E-002     2.3692894800133132E-002
   4.0500000000000001E-002   -0.28660738556629867     
   4.0800000000000003E-002   -0.55709105902018763     
   4.1100000000000005E-002   -0.78354972842876991     
   4.1399999999999999E-002   -0.96472174227175078     
   4.1700000000000008E-002    -1.1015452180561502     
   4.2000000000000003E-002    -1.1966578997402926     
   4.2299999999999997E-002    -1.2541346588761115     
   4.2600000000000006E-002    -1.2784328500232729     
   4.2900000000000001E-002    -1.2742880622237236     
   4.3200000000000002E-002    -1.2463518419694997     
   4.3500000000000004E-002    -1.1985632218279618     
   4.3799999999999999E-002    -1.1345752512788150     
   4.4100000000000000E-002    -1.0573413404798391     
   4.4400000000000002E-002   -0.96923411192871378     
   4.4700000000000004E-002   -0.87253976138680733     
   4.4999999999999998E-002   -0.76912915945068538     
   4.5300000000000000E-002   -0.66111427750514884     
   4.5600000000000002E-002   -0.55100083521926801     
   4.5899999999999996E-002   -0.44150760906655151     
   4.6200000000000005E-002   -0.33618700608381930     
   4.6500000000000000E-002   -0.23909761085449044     
   4.6799999999999994E-002   -0.15471331822725223     
   4.7100000000000003E-002    -8.8060893384797390E-002
   4.7399999999999998E-002    -4.4006575025857933E-002
   4.7700000000000006E-002    -2.7036195691692019E-002
   4.8000000000000001E-002    -4.0804106851183269E-002
   4.8300000000000010E-002    -8.7230108926341574E-002
   4.8600000000000004E-002   -0.16625130225297569     
   4.8899999999999999E-002   -0.27520337782778337     
   4.9200000000000008E-002   -0.40822139504967747     
   4.9500000000000002E-002   -0.55642330814534557     
   4.9800000000000011E-002   -0.70779967522542564     
   5.0100000000000006E-002   -0.84768951196754749     
   5.0400000000000000E-002   -0.95983332687771705     
   5.0700000000000009E-002    -1.0271971257060428     
   5.1000000000000004E-002    -1.0336517127125879     
   5.1299999999999998E-002   -0.96554953154999612     
   5.1600000000000007E-002   -0.81310493002763495     
   5.1900000000000002E-002   -0.57214975532296586     
   5.2200000000000010E-002   -0.24501106218181715     
   5.2500000000000005E-002    0.15890973854896401     
   5.2800000000000000E-002    0.62296056938226352     
   5.3099999999999994E-002     1.1241695915349070     
   5.3400000000000003E-002     1.6344699909748071     
   5.3699999999999998E-002     2.1224892204561878     
   5.4000000000000006E-002     2.5561361391330415     
   5.4300000000000001E-002     2.9049842446837508     
   5.4599999999999996E-002     3.1426587201329403     
   5.4900000000000004E-002     3.2493639092148405     
   5.5199999999999999E-002     3.2132918933444081     
   5.5499999999999994E-002     3.0317008588535925     
   5.5800000000000002E-002     2.7113943183360183     
   5.6099999999999997E-002     2.2678766320384001     
   5.6400000000000006E-002     1.7242482953701896     
   5.6700000000000000E-002     1.1095052991733010     
   5.6999999999999995E-002    0.45593565843617490     
   5.7300000000000004E-002   -0.20296095372946166     
   5.7599999999999998E-002   -0.83505416172056413     
   5.7900000000000007E-002    -1.4119099421881181     
   5.8200000000000002E-002    -1.9100474177801900     
   5.8499999999999996E-002    -2.3125381540729451     
   5.8800000000000005E-002    -2.6096508583111522     
   5.9100000000000000E-002    -2.7982928838873224     
   5.9400000000000008E-002    -2.8821323006519659     
   5.9700000000000003E-002    -2.8704416840113343     
   6.0000000000000012E-002    -2.7763459767861649     
   6.0300000000000006E-002    -2.6161274990481620     
   6.0600000000000001E-002    -2.4071788861960592     
   6.0900000000000010E-002    -2.1664967603681129     
   6.1200000000000004E-002    -1.9100248872523238     
   6.1500000000000013E-002    -1.6508382609765282     
   6.1800000000000008E-002    -1.3988506837183485     
   6.2100000000000002E-002    -1.1606289184210312     
   6.2399999999999997E-002   -0.93834650806872089     
   6.2700000000000006E-002   -0.73091256844938246     
   6.3000000000000000E-002   -0.53428828882000634     
   6.3300000000000009E-002   -0.34140142904636384     
   6.3600000000000004E-002   -0.14413043901978842     
   6.3899999999999998E-002     6.6308409170852331E-002
   6.4199999999999993E-002    0.29829162450126306     
   6.4500000000000002E-002    0.55793410710318003     
   6.4800000000000010E-002    0.84872168562490002     
   6.5100000000000005E-002     1.1701999938577947     
   6.5400000000000000E-002     1.5171990441080445     
   6.5700000000000008E-002     1.8799725828550049     
   6.5999999999999989E-002     2.2439482280813396     
   6.6299999999999998E-002     2.5905599673479331     
   6.6600000000000006E-002     2.8983752816301385     
   6.6900000000000001E-002     3.1444096661582992     
   6.7199999999999996E-002     3.3061823946215516     
   6.7500000000000004E-002     3.3635423286527923     
   6.7800000000000013E-002     3.3006889921296629     
   6.8099999999999994E-002     3.1079754924748291     
   6.8400000000000002E-002     2.7830267037961911     
   6.8700000000000011E-002     2.3317065310646377     
   6.8999999999999992E-002     1.7680615241199737     
   6.9300000000000000E-002     1.1135807071901176     
   6.9600000000000009E-002    0.39607611425115097     
   6.9900000000000004E-002   -0.35236969692073106     
   7.0199999999999999E-002    -1.0973662170923861     
   7.0500000000000007E-002    -1.8047235066612783     
   7.0800000000000016E-002    -2.4429287984543202     
   7.1099999999999997E-002    -2.9845059008682107     
   7.1400000000000005E-002    -3.4082076653241713     
   7.1700000000000000E-002    -3.6994950884054343     
   7.1999999999999995E-002    -3.8506205199426469     
   7.2300000000000003E-002    -3.8609459518150193     
   7.2600000000000012E-002    -3.7354116554149348     
   7.2900000000000006E-002    -3.4835958587681022     
   7.3200000000000001E-002    -3.1188781357354567     
   7.3499999999999996E-002    -2.6564366899456839     
   7.3800000000000004E-002    -2.1128509110201330     
   7.4099999999999999E-002    -1.5054131793428691     
   7.4400000000000008E-002   -0.85150015626711029     
   7.4700000000000003E-002   -0.16911327903372705     
   7.5000000000000011E-002    0.52330821899842683     
   7.5299999999999992E-002     1.2063583171285863     
   7.5600000000000001E-002     1.8589929398040459     
   7.5900000000000009E-002     2.4592084958955134     
   7.6200000000000004E-002     2.9837362856850045     
   7.6499999999999999E-002     3.4090111359506832     
   7.6800000000000007E-002     3.7129662150338429     
   7.7099999999999988E-002     3.8759653686985014     
   7.7399999999999997E-002     3.8831110119822005     
   7.7700000000000005E-002     3.7262206192230405     
   7.8000000000000014E-002     3.4051582918297680     
   7.8299999999999995E-002     2.9294407458335492     
   7.8600000000000003E-002     2.3184683394933407     
   7.8900000000000012E-002     1.6013205101540633     
   7.9199999999999993E-002    0.81561333201620478     
   7.9500000000000001E-002     5.1051863730644477E-003
   7.9800000000000010E-002   -0.78273141614256536     
   8.0100000000000018E-002    -1.5003438041001562     
   8.0399999999999999E-002    -2.1036839548843518     
   8.0700000000000008E-002    -2.5554392415417264     
   8.1000000000000003E-002    -2.8286740865956652     
   8.1299999999999997E-002    -2.9086244194898057     
   8.1600000000000006E-002    -2.7942938889791908     
   8.1900000000000014E-002    -2.4990804271568940     
   8.2199999999999995E-002    -2.0493829312760452     
   8.2500000000000004E-002    -1.4834092900573113     
   8.2799999999999999E-002   -0.84798765439374668     
   8.3100000000000007E-002   -0.19472971615853885     
   8.3400000000000002E-002    0.42302638423610456     
   8.3700000000000011E-002    0.95507777030612462     
   8.4000000000000005E-002     1.3578008454874104     
   8.4300000000000000E-002     1.5970534134982197     
   8.4599999999999995E-002     1.6517554571832274     
   8.4900000000000003E-002     1.5146242426037797     
   8.5199999999999998E-002     1.1931508815393495     
   8.5500000000000007E-002    0.70979917258110137     
   8.5800000000000001E-002     9.9636852940567663E-002
   8.6100000000000010E-002   -0.59108853533593220     
   8.6399999999999991E-002    -1.3083432954313403     
   8.6699999999999999E-002    -1.9945247235959533     
   8.7000000000000008E-002    -2.5915455899233009     
   8.7300000000000003E-002    -3.0460875129394722     
   8.7599999999999997E-002    -3.3137116535475060     
   8.7900000000000006E-002    -3.3617358312426933     
   8.8200000000000014E-002    -3.1733076671261453     
   8.8499999999999995E-002    -2.7488167371563152     
   8.8800000000000004E-002    -2.1066048210985135     
   8.9100000000000013E-002    -1.2830586473497423     
   8.9399999999999993E-002   -0.32968664273549647     
   8.9700000000000002E-002    0.68963396762472995     
   9.0000000000000011E-002     1.7030077033531854     
   9.0299999999999991E-002     2.6365943037142037     
   9.0600000000000000E-002     3.4196157562118876     
   9.0900000000000009E-002     3.9901778822627505     
   9.1200000000000017E-002     4.3009081021423556     
   9.1499999999999998E-002     4.3224864141558683     
   9.1800000000000007E-002     4.0468745358817184     
   9.2100000000000001E-002     3.4884498229368170     
   9.2399999999999996E-002     2.6825435246668996     
   9.2700000000000005E-002     1.6837550455744903     
   9.3000000000000013E-002    0.56162828397985209     
   9.3300000000000008E-002   -0.60520208055447167     
   9.3600000000000003E-002    -1.7344349675460831     
   9.3899999999999997E-002    -2.7470793808643519     
   9.4200000000000006E-002    -3.5736572853174127     
   9.4500000000000001E-002    -4.1588935981433570     
   9.4800000000000009E-002    -4.4665236612519772     
   9.5100000000000004E-002    -4.4815774104297050     
   9.5399999999999999E-002    -4.2104759348668122     
   9.5699999999999993E-002    -3.6806430932874901     
   9.6000000000000002E-002    -2.9371671769976269     
   9.6300000000000011E-002    -2.0385365551667203     
   9.6600000000000005E-002    -1.0522772108594949     
   9.6900000000000000E-002    -4.8293043278262643E-002
   9.7200000000000009E-002    0.90636408593119311     
   9.7499999999999989E-002     1.7516539149855499     
   9.7799999999999998E-002     2.4400978163197418     
   9.8100000000000007E-002     2.9386301131388017     
   9.8400000000000015E-002     3.2297227482886388     
   9.8699999999999996E-002     3.3126466377473318     
   9.9000000000000005E-002     3.2005217175439986     
   9.9300000000000013E-002     2.9188232513527717     
   9.9599999999999994E-002     2.5027782995985035     
   9.9900000000000003E-002     1.9921165768003606     
  0.10020000000000001          1.4291186378613789     
  0.10049999999999999         0.85496294779877835     
  0.10080000000000000         0.30587539188172697     
  0.10110000000000001        -0.18692493480150427     
  0.10140000000000000        -0.59975648095890643     
  0.10170000000000000        -0.91720283299437999     
  0.10200000000000001         -1.1301552090678531     
  0.10230000000000002         -1.2368876970797569     
  0.10260000000000000         -1.2412486113275414     
  0.10290000000000001         -1.1503858600481609     
  0.10320000000000000        -0.97525149872956185     
  0.10350000000000001        -0.72788179135338971     
  0.10380000000000000        -0.42041307810077660     
  0.10410000000000001         -6.5708875817192591E-002
  0.10440000000000001         0.32471919160231094     
  0.10470000000000000         0.73998153433849778     
  0.10500000000000000          1.1691988741793966     
  0.10530000000000000          1.6027665186372162     
  0.10560000000000000          2.0302507938247798     
  0.10590000000000001          2.4406125618721441     
  0.10620000000000000          2.8229794587012478     
  0.10650000000000001          3.1647098159564124     
  0.10679999999999999          3.4527616604834739     
  0.10710000000000000          3.6743295303567107     
  0.10740000000000001          3.8163004036846147     
  0.10770000000000000          3.8674140093561351     
  0.10800000000000000          3.8185949441257572     
  0.10830000000000001          3.6634230724735022     
  0.10859999999999999          3.3998868568376612     
  0.10890000000000000          3.0299234481773296     
  0.10920000000000001          2.5594503956447285     
  0.10950000000000001          1.9987180292430600     
  0.10979999999999999          1.3607382813886622     
  0.11009999999999999         0.66052460847687655     
  0.11040000000000001         -8.5760295937952272E-002
  0.11070000000000001        -0.86259442862788005     
  0.11100000000000000         -1.6554004007799319     
  0.11130000000000000         -2.4515206891964909     
  0.11160000000000002         -3.2409374815903713     
  0.11190000000000001         -4.0148983126870830     
  0.11220000000000001         -4.7665248064590431     
  0.11250000000000000         -5.4895377327714154     
  0.11280000000000000         -6.1767225454042682     
  0.11309999999999999         -6.8198175637342811     
  0.11340000000000001         -7.4080806002359489     
  0.11369999999999998         -7.9280948877551269     
  0.11400000000000000         -8.3639278662820917     
  0.11430000000000000         -8.6969919465027914     
  0.11460000000000002         -8.9075784949381269     
  0.11489999999999999         -8.9755487709901605     
  0.11520000000000001         -8.8815717962079486     
  0.11550000000000001         -8.6090536374339699     
  0.11580000000000000         -8.1448354964087031     
  0.11609999999999999         -7.4808302149013066     
  0.11640000000000002         -6.6151256758962109     
  0.11670000000000001         -5.5517807172933749     
  0.11700000000000001         -4.3027119765439954     
  0.11730000000000000         -2.8866453257403388     
  0.11760000000000000         -1.3288621942489194     
  0.11789999999999999         0.33775293926541133     
  0.11820000000000001          2.0747971596844215     
  0.11850000000000001          3.8382663841948319     
  0.11880000000000000          5.5798678565686712     
  0.11910000000000000          7.2487983921389869     
  0.11940000000000002          8.7923984791788481     
  0.11970000000000001          10.158933670050299     
  0.12000000000000001          11.299819980229099     
  0.12030000000000000          12.170907057104298     
  0.12060000000000000          12.735744514519752     
  0.12089999999999999          12.967911759135321     
  0.12119999999999999          12.851908722245074     
  0.12150000000000001          12.385776556801700     
  0.12180000000000001          11.581222568754233     
  0.12210000000000000          10.463634522163462     
  0.12239999999999999          9.0722809108030305     
  0.12270000000000002          7.4573936684237454     
  0.12300000000000001          5.6791048218813236     
  0.12330000000000001          3.8045683020400807     
  0.12360000000000000          1.9034891185704508     
  0.12390000000000000          4.6444632369305260E-002
  0.12419999999999999         -1.6988829422860732     
  0.12450000000000001         -3.2719636057834323     
  0.12480000000000001         -4.6196847095455276     
  0.12509999999999999         -5.6997542545909461     
  0.12540000000000001         -6.4825816341466131     
  0.12570000000000003         -6.9498238763650404     
  0.12600000000000000         -7.0968899930777933     
  0.12630000000000002         -6.9317670067111674     
  0.12659999999999999         -6.4731512254630390     
  0.12690000000000001         -5.7522664233811023     
  0.12719999999999998         -4.8094654219362081     
  0.12750000000000000         -3.6933481796945440     
  0.12780000000000002         -2.4610133239111209     
  0.12809999999999999         -1.1738519699569019     
  0.12840000000000001         0.10294149871390647     
  0.12869999999999998          1.3026013413953854     
  0.12900000000000000          2.3611686299108694     
  0.12930000000000003          3.2184209916760271     
  0.12959999999999999          3.8221266379073269     
  0.12990000000000002          4.1319990275047020     
  0.13019999999999998          4.1206965561627165     
  0.13050000000000000          3.7776134117845923     
  0.13080000000000003          3.1110522829969574     
  0.13109999999999999          2.1469304615251361     
  0.13140000000000002         0.92987221651379814     
  0.13169999999999998        -0.47836208589190710     
  0.13200000000000001         -2.0036220619963809     
  0.13229999999999997         -3.5611121769420757     
  0.13260000000000000         -5.0617199102510959     
  0.13290000000000002         -6.4173455435724343     
  0.13319999999999999         -7.5446968308043703     
  0.13350000000000001         -8.3728714241782267     
  0.13380000000000003         -8.8466739919649893     
  0.13410000000000000         -8.9297695426120924     
  0.13440000000000002         -8.6091346996212170     
  0.13469999999999999         -7.8946118588101273     
  0.13500000000000001         -6.8189306459840182     
  0.13529999999999998         -5.4371662299153645     
  0.13560000000000000         -3.8217649571034138     
  0.13590000000000002         -2.0595712720787183     
  0.13619999999999999        -0.24661162551594057     
  0.13650000000000001          1.5189193533439957     
  0.13680000000000003          3.1416018103001635     
  0.13710000000000000          4.5352282658665430     
  0.13740000000000002          5.6292305159140303     
  0.13769999999999999          6.3721685597636970     
  0.13800000000000001          6.7355117996506975     
  0.13829999999999998          6.7162213523590699     
  0.13860000000000000          6.3357653804920586     
  0.13890000000000002          5.6391248869909818     
  0.13919999999999999          4.6920004030516163     
  0.13950000000000001          3.5747187244874241     
  0.13979999999999998          2.3778076244632622     
  0.14010000000000000          1.1947239676051442     
  0.14040000000000002         0.11404312477950615     
  0.14069999999999999        -0.78527206364916269     
  0.14100000000000001         -1.4414237774719547     
  0.14130000000000004         -1.8142168569592687     
  0.14160000000000000         -1.8865276624826675     
  0.14189999999999997         -1.6677081628349650     
  0.14219999999999999         -1.1912455588504498     
  0.14250000000000002        -0.51133477790519744     
  0.14279999999999998         0.29973417649397083     
  0.14310000000000000          1.1597234048048937     
  0.14339999999999997          1.9826697171764067     
  0.14369999999999999          2.6856548866526708     
  0.14400000000000002          3.1975169276296662     
  0.14429999999999998          3.4634645086605387     
  0.14460000000000001          3.4507842164143696     
  0.14490000000000003          3.1520145030189504     
  0.14520000000000000          2.5845978333571309     
  0.14550000000000002          1.7906192590892633     
  0.14579999999999999         0.83255171988980181     
  0.14610000000000001        -0.21259211099462744     
  0.14640000000000003         -1.2594542543746423     
  0.14670000000000000         -2.2224376270278872     
  0.14699999999999996         -3.0235917660277902     
  0.14729999999999999         -3.5993619073954206     
  0.14760000000000001         -3.9063847182563838     
  0.14789999999999998         -3.9253003715132913     
  0.14820000000000000         -3.6623847594437224     