  -1.4999999999999999E-002     0.0000000000000000     
  -1.4700000000000000E-002     0.0000000000000000     
  -1.4400000000000000E-002     0.0000000000000000     
  -1.4100000000000000E-002     0.0000000000000000     
  -1.3800000000000000E-002     0.0000000000000000     
  -1.3500000000000000E-002     0.0000000000000000     
  -1.3200000000000000E-002     0.0000000000000000     
  -1.2899999999999998E-002     0.0000000000000000     
  -1.2600000000000000E-002     0.0000000000000000     
  -1.2299999999999998E-002     0.0000000000000000     
  -1.2000000000000000E-002     0.0000000000000000     
  -1.1699999999999999E-002     0.0000000000000000     
  -1.1399999999999999E-002     0.0000000000000000     
  -1.1099999999999999E-002     0.0000000000000000     
  -1.0799999999999999E-002     0.0000000000000000     
  -1.0499999999999999E-002     0.0000000000000000     
  -1.0199999999999999E-002     0.0000000000000000     
  -9.8999999999999991E-003     0.0000000000000000     
  -9.5999999999999992E-003     0.0000000000000000     
  -9.2999999999999992E-003     0.0000000000000000     
  -8.9999999999999993E-003     0.0000000000000000     
  -8.6999999999999994E-003     0.0000000000000000     
  -8.3999999999999995E-003     0.0000000000000000     
  -8.0999999999999996E-003     0.0000000000000000     
  -7.7999999999999988E-003     0.0000000000000000     
  -7.4999999999999997E-003     0.0000000000000000     
  -7.1999999999999998E-003     0.0000000000000000     
  -6.8999999999999981E-003     0.0000000000000000     
  -6.5999999999999982E-003     0.0000000000000000     
  -6.3000000000000000E-003     0.0000000000000000     
  -6.0000000000000001E-003     0.0000000000000000     
  -5.6999999999999985E-003     0.0000000000000000     
  -5.3999999999999986E-003     0.0000000000000000     
  -5.1000000000000004E-003     0.0000000000000000     
  -4.7999999999999987E-003     0.0000000000000000     
  -4.5000000000000005E-003     0.0000000000000000     
  -4.1999999999999989E-003     0.0000000000000000     
  -3.8999999999999990E-003     0.0000000000000000     
  -3.5999999999999990E-003     0.0000000000000000     
  -3.2999999999999991E-003     0.0000000000000000     
  -2.9999999999999992E-003     0.0000000000000000     
  -2.6999999999999993E-003     0.0000000000000000     
  -2.3999999999999994E-003     0.0000000000000000     
  -2.0999999999999977E-003     0.0000000000000000     
  -1.7999999999999995E-003     0.0000000000000000     
  -1.4999999999999979E-003     0.0000000000000000     
  -1.1999999999999997E-003     0.0000000000000000     
  -8.9999999999999976E-004     0.0000000000000000     
  -5.9999999999999810E-004    -2.9359680302105662E-041
  -2.9999999999999992E-004    -4.6018231464943813E-041
   0.0000000000000000          7.1094394891443907E-038
   3.0000000000000165E-004     7.3126910388849751E-037
   5.9999999999999984E-004    -6.1147547612426494E-036
   9.0000000000000149E-004     2.5450591944698276E-035
   1.2000000000000031E-003     8.3986692146139433E-035
   1.5000000000000013E-003    -2.1536886085851358E-034
   1.8000000000000030E-003    -3.3158668229868206E-034
   2.1000000000000012E-003     3.1532143292099619E-033
   2.3999999999999994E-003    -3.0577088300425528E-033
   2.7000000000000010E-003    -1.2500234492929833E-032
   2.9999999999999992E-003     1.7834851969647535E-032
   3.3000000000000008E-003     1.3057714928956388E-032
   3.6000000000000025E-003     7.2872100836939308E-031
   3.9000000000000007E-003    -4.7110221659496209E-030
   4.2000000000000023E-003    -3.5950342440162279E-030
   4.5000000000000005E-003     1.7494659129289984E-028
   4.7999999999999987E-003    -9.0753655039819428E-028
   5.1000000000000004E-003     9.4914496280681776E-028
   5.4000000000000020E-003     1.3893164413173222E-026
   5.7000000000000037E-003    -9.4709787576831763E-026
   5.9999999999999984E-003     2.8579822753448657E-025
   6.3000000000000000E-003    -1.4039101780256540E-025
   6.6000000000000017E-003    -2.9307717262111787E-024
   6.9000000000000034E-003     1.6132987259578448E-023
   7.2000000000000015E-003    -4.7913461419846835E-023
   7.5000000000000032E-003     7.7578221987424031E-023
   7.8000000000000014E-003     3.2862266867494163E-023
   8.0999999999999996E-003    -6.6128952790612445E-022
   8.4000000000000012E-003     2.3091286893341464E-021
   8.7000000000000029E-003    -4.3391293819190232E-021
   9.0000000000000011E-003     5.1524275508271178E-022
   9.2999999999999992E-003     3.2234464716695391E-020
   9.6000000000000009E-003    -1.5694317890262551E-019
   9.8999999999999991E-003     5.1917155153471547E-019
   1.0200000000000001E-002    -1.4295210210042177E-018
   1.0500000000000002E-002     3.5727932215185628E-018
   1.0800000000000004E-002    -8.6819885452249511E-018
   1.1099999999999999E-002     2.1696055856854264E-017
   1.1400000000000000E-002    -5.6057035138873338E-017
   1.1700000000000002E-002     1.3577024218092989E-016
   1.2000000000000004E-002    -2.0787650729960692E-016
   1.2300000000000002E-002    -6.2558903230294526E-016
   1.2600000000000000E-002     8.6523945775849285E-015
   1.2900000000000002E-002    -5.6790189105161748E-014
   1.3200000000000000E-002     2.8265993700353855E-013
   1.3500000000000002E-002    -1.1299159031003308E-012
   1.3800000000000003E-002     3.5213875762341725E-012
   1.4100000000000001E-002    -7.4012403339656243E-012
   1.4400000000000000E-002     2.8626396898177256E-012
   1.4700000000000001E-002     5.3177631820519314E-011
   1.4999999999999999E-002    -2.4212119659341149E-010
   1.5300000000000001E-002     4.9097893090539435E-010
   1.5600000000000003E-002     5.8784148860663300E-011
   1.5899999999999997E-002    -3.2050218805280881E-009
   1.6199999999999999E-002     7.4226341705592157E-009
   1.6500000000000001E-002     1.4298154463679394E-009
   1.6800000000000002E-002    -3.7370138368398128E-008
   1.7100000000000004E-002     4.3238070295013127E-008
   1.7400000000000006E-002     1.0434310131016084E-007
   1.7700000000000000E-002    -2.2829587717539114E-007
   1.8000000000000002E-002    -2.8779705687376270E-007
   1.8300000000000004E-002     6.9133464324553181E-007
   1.8600000000000005E-002     1.0215466561590647E-006
   1.8900000000000000E-002    -1.4434155579333382E-006
   1.9200000000000002E-002    -4.0524921277790955E-006
   1.9500000000000003E-002     1.1458758078937696E-006
   1.9799999999999998E-002     2.0987712619349077E-005
   2.0100000000000000E-002     5.5505680809813809E-005
   2.0400000000000001E-002     1.0124098702513755E-004
   2.0700000000000003E-002     1.5973231201909350E-004
   2.0999999999999998E-002     2.4229697585325110E-004
   2.1299999999999999E-002     3.7038417819889577E-004
   2.1600000000000001E-002     5.7366870616563784E-004
   2.1900000000000003E-002     8.8862584794279084E-004
   2.2200000000000004E-002     1.3617949101000480E-003
   2.2500000000000006E-002     2.0566400234912721E-003
   2.2800000000000001E-002     3.0608423929901979E-003
   2.3100000000000002E-002     4.4931993398308785E-003
   2.3400000000000004E-002     6.5086164173951775E-003
   2.3699999999999999E-002     9.3013996703269018E-003
   2.4000000000000000E-002     1.3107531734819796E-002
   2.4300000000000002E-002     1.8204573475154584E-002
   2.4599999999999997E-002     2.4908330898537154E-002
   2.4900000000000005E-002     3.3563268120475526E-002
   2.5200000000000000E-002     4.4520999092270641E-002
   2.5499999999999995E-002     5.8107139796891222E-002
   2.5800000000000003E-002     7.4576913739375791E-002
   2.6099999999999998E-002     9.4057510791182131E-002
   2.6400000000000007E-002    0.11647697181350619     
   2.6700000000000002E-002    0.14147649631634368     
   2.6999999999999996E-002    0.16832166397463263     
   2.7300000000000005E-002    0.19581285748884936     
   2.7600000000000000E-002    0.22221587802645587     
   2.7900000000000008E-002    0.24522335388618982     
   2.8200000000000003E-002    0.26194495835019316     
   2.8499999999999998E-002    0.26897036807916452     
   2.8800000000000006E-002    0.26249935437937943     
   2.9100000000000001E-002    0.23855124290294760     
   2.9400000000000003E-002    0.19326872051466876     
   2.9700000000000004E-002    0.12330240494577416     
   3.0000000000000006E-002     2.6228533846090876E-002
   3.0300000000000001E-002    -9.8968002027083293E-002
   3.0600000000000002E-002   -0.25148339903712941     
   3.0900000000000004E-002   -0.42828809119036826     
   3.1199999999999999E-002   -0.62387843431195422     
   3.1500000000000007E-002   -0.83025193007422038     
   3.1800000000000002E-002    -1.0369840338073271     
   3.2099999999999997E-002    -1.2316822733116666     
   3.2400000000000005E-002    -1.4006517463592787     
   3.2700000000000000E-002    -1.5297147893860532     
   3.3000000000000002E-002    -1.6053320674630909     
   3.3300000000000003E-002    -1.6157148919139568     
   3.3599999999999998E-002    -1.5519223530750046     
   3.3900000000000000E-002    -1.4089609098214539     
   3.4200000000000001E-002    -1.1864845559720090     
   3.4500000000000003E-002   -0.88922955972307804     
   3.4799999999999998E-002   -0.52715686171937559     
   3.5099999999999999E-002   -0.11488641495373925     
   3.5400000000000001E-002    0.32899342629282813     
   3.5699999999999996E-002    0.78308341265445791     
   3.6000000000000004E-002     1.2247508974948504     
   3.6299999999999999E-002     1.6316526679551140     
   3.6600000000000008E-002     1.9831648867595510     
   3.6900000000000002E-002     2.2621095383855687     
   3.7199999999999997E-002     2.4556034062474250     
   3.7500000000000006E-002     2.5559908565242928     
   3.7800000000000000E-002     2.5612672947400155     
   3.8100000000000009E-002     2.4747218631325678     
   3.8400000000000004E-002     2.3046449925000063     
   3.8699999999999998E-002     2.0633588066476887     
   3.9000000000000007E-002     1.7660491201255097     
   3.9300000000000002E-002     1.4296809765510574     
   3.9600000000000003E-002     1.0716350977726270     
   3.9900000000000005E-002    0.70857516433824252     
   4.0200000000000000E-002    0.35547100581821384     
   4.0500000000000001E-002     2.4883220962484201E-002
   4.0800000000000003E-002   -0.27355039388620878     
   4.1100000000000005E-002   -0.53317483740625082     
   4.1399999999999999E-002   -0.75030651402725912     
   4.1700000000000008E-002   -0.92390548986647425     
   4.2000000000000003E-002    -1.0550736716280604     
   4.2299999999999997E-002    -1.1466648206710817     
   4.2600000000000006E-002    -1.2026137329604669     
   4.2900000000000001E-002    -1.2273879172778801     
   4.3200000000000002E-002    -1.2256682817291047     
   4.3500000000000004E-002    -1.2018489769561658     
   4.3799999999999999E-002    -1.1598237865287835     
   4.4100000000000000E-002    -1.1029646909019730     
   4.4400000000000002E-002    -1.0339581045377306     
   4.4700000000000004E-002   -0.95499488271996391     
   4.4999999999999998E-002   -0.86790646828846607     
   4.5300000000000000E-002   -0.77427027084800859     
   4.5600000000000002E-002   -0.67575546942399534     
   4.5899999999999996E-002   -0.57424312069064343     
   4.6200000000000005E-002   -0.47200344903494851     
   4.6500000000000000E-002   -0.37190465244026161     
   4.6799999999999994E-002   -0.27740398214415996     
   4.7100000000000003E-002   -0.19250613448308340     
   4.7399999999999998E-002   -0.12165216900507095     
   4.7700000000000006E-002    -6.9509264255971925E-002
   4.8000000000000001E-002    -4.0457737679863187E-002
   4.8300000000000010E-002    -3.8310361284012384E-002
   4.8600000000000004E-002    -6.5717028693640434E-002
   4.8899999999999999E-002   -0.12342178237861659     
   4.9200000000000008E-002   -0.21009212078950212     
   4.9500000000000002E-002   -0.32155440224447268     
   4.9800000000000011E-002   -0.45064781327396031     
   5.0100000000000006E-002   -0.58745148402228009     
   5.0400000000000000E-002   -0.71913778256865579     
   5.0700000000000009E-002   -0.83107153108392373     
   5.1000000000000004E-002   -0.90759027790650970     
   5.1299999999999998E-002   -0.93302913453207315     
   5.1600000000000007E-002   -0.89368698370885002     
   5.1900000000000002E-002   -0.77892668814982657     
   5.2200000000000010E-002   -0.58264442934843041     
   5.2500000000000005E-002   -0.30481827069948708     
   5.2800000000000000E-002     4.8298682585030533E-002
   5.3099999999999994E-002    0.46360505438318056     
   5.3400000000000003E-002    0.92155575601441930     
   5.3699999999999998E-002     1.3975173308943467     
   5.4000000000000006E-002     1.8629462893872477     
   5.4300000000000001E-002     2.2877341095399286     
   5.4599999999999996E-002     2.6425732837035070     
   5.4900000000000004E-002     2.9010850942271595     
   5.5199999999999999E-002     3.0423387596718543     
   5.5499999999999994E-002     3.0524500627269124     
   5.5800000000000002E-002     2.9257572645839858     
   5.6099999999999997E-002     2.6656055520881425     
   5.6400000000000006E-002     2.2837360430373277     
   5.6700000000000000E-002     1.7995814343428251     
   5.6999999999999995E-002     1.2387378955199988     
   5.7300000000000004E-002    0.63072634350553147     
   5.7599999999999998E-002     7.0108090941614076E-003
   5.7900000000000007E-002   -0.60151803699432871     
   5.8200000000000002E-002    -1.1666186380041981     
   5.8499999999999996E-002    -1.6643973155626921     
   5.8800000000000005E-002    -2.0768177820240359     
   5.9100000000000000E-002    -2.3922676631621171     
   5.9400000000000008E-002    -2.6058015027140558     
   5.9700000000000003E-002    -2.7189939433334005     
   6.0000000000000012E-002    -2.7388383502714881     
   6.0300000000000006E-002    -2.6767472004907638     
   6.0600000000000001E-002    -2.5474104608955237     
   6.0900000000000010E-002    -2.3669731602100774     
   6.1200000000000004E-002    -2.1519230031807615     
   6.1500000000000013E-002    -1.9177523799885945     
   6.1800000000000008E-002    -1.6777271506872671     
   6.2100000000000002E-002    -1.4423170614235643     
   6.2399999999999997E-002    -1.2185510702812135     
   6.2700000000000006E-002    -1.0097707036719794     
   6.3000000000000000E-002   -0.81575301296377378     
   6.3300000000000009E-002   -0.63298728692418349     
   6.3600000000000004E-002   -0.45539122520378028     
   6.3899999999999998E-002   -0.27498303774401933     
   6.4199999999999993E-002    -8.2915192302583221E-002
   6.4500000000000002E-002    0.12955823542340855     
   6.4800000000000010E-002    0.36985577197712838     
   6.5100000000000005E-002    0.64282534432607186     
   6.5400000000000000E-002    0.95008810727479298     
   6.5700000000000008E-002     1.2887605617402151     
   6.5999999999999989E-002     1.6512406507932933     
   6.6299999999999998E-002     2.0253058947911278     
   6.6600000000000006E-002     2.3939684751626129     
   6.6900000000000001E-002     2.7368376658762044     
   6.7199999999999996E-002     3.0311288368378699     
   6.7500000000000004E-002     3.2532332299992168     
   6.7800000000000013E-002     3.3810790839632263     
   6.8099999999999994E-002     3.3957170352891048     
   6.8400000000000002E-002     3.2833357518250024     
   6.8700000000000011E-002     3.0370900197705839     
   6.8999999999999992E-002     2.6578750154200645     
   6.9300000000000000E-002     2.1550425753811768     
   6.9600000000000009E-002     1.5462057690401003     
   6.9900000000000004E-002    0.85592431126499724     
   7.0199999999999999E-002    0.11452124491001620     
   7.0500000000000007E-002   -0.64410396042928375     
   7.0800000000000016E-002    -1.3850283235055443     
   7.1099999999999997E-002    -2.0743894685289499     
   7.1400000000000005E-002    -2.6819396252726562     
   7.1700000000000000E-002    -3.1828642195762580     
   7.1999999999999995E-002    -3.5588458593173060     
   7.2300000000000003E-002    -3.7988930965832486     
   7.2600000000000012E-002    -3.8992216469815455     
   7.2900000000000006E-002    -3.8625157504792949     
   7.3200000000000001E-002    -3.6969544079003231     
   7.3499999999999996E-002    -3.4147014855891529     
   7.3800000000000004E-002    -3.0303530670329581     
   7.4099999999999999E-002    -2.5598530590871356     
   7.4400000000000008E-002    -2.0191218651639273     
   7.4700000000000003E-002    -1.4238556570722483     
   7.5000000000000011E-002   -0.78939088166698190     
   7.5299999999999992E-002   -0.13050940867476613     
   7.5600000000000001E-002    0.53730762212739891     
   7.5900000000000009E-002     1.1977495419837492     
   7.6200000000000004E-002     1.8328917431033518     
   7.6499999999999999E-002     2.4226582669422321     
   7.6800000000000007E-002     2.9455412489110415     
   7.7099999999999988E-002     3.3785699697469003     
   7.7399999999999997E-002     3.6991352291794160     
   7.7700000000000005E-002     3.8864570933364337     
   7.8000000000000014E-002     3.9233832023251960     
   7.8299999999999995E-002     3.7991496175092472     
   7.8600000000000003E-002     3.5104672622210416     
   7.8900000000000012E-002     3.0635480694752015     
   7.9199999999999993E-002     2.4748513754434365     
   7.9500000000000001E-002     1.7705511719665219     
   7.9800000000000010E-002    0.98639993648419910     
   8.0100000000000018E-002    0.16484543716647193     
   8.0399999999999999E-002   -0.64719283650709558     
   8.0700000000000008E-002    -1.4013102284491461     
   8.1000000000000003E-002    -2.0521526328361412     
   8.1299999999999997E-002    -2.5599085769991130     
   8.1600000000000006E-002    -2.8942079931140179     
   8.1900000000000014E-002    -3.0367581268132922     
   8.2199999999999995E-002    -2.9820188432794832     
   8.2500000000000004E-002    -2.7389638014494158     
   8.2799999999999999E-002    -2.3297316811739730     
   8.3100000000000007E-002    -1.7880676224434588     
   8.3400000000000002E-002    -1.1575961821184526     
   8.3700000000000011E-002   -0.48738744228406805     
   8.4000000000000005E-002    0.17081026403532584     
   8.4300000000000000E-002    0.76620507513077740     
   8.4599999999999995E-002     1.2534060198363244     
   8.4900000000000003E-002     1.5947638973322815     
   8.5199999999999998E-002     1.7634234695147040     
   8.5500000000000007E-002     1.7453553532718267     
   8.5800000000000001E-002     1.5397434217557606     
   8.6100000000000010E-002     1.1597150253322464     
   8.6399999999999991E-002    0.63153295740032045     
   8.6699999999999999E-002    -7.3258379638154320E-003
   8.7000000000000008E-002   -0.71003847297290856     
   8.7300000000000003E-002    -1.4234731108264380     
   8.7599999999999997E-002    -2.0918548280121350     
   8.7900000000000006E-002    -2.6603184549490222     
   8.8200000000000014E-002    -3.0790955706040322     
   8.8499999999999995E-002    -3.3072145586993438     
   8.8800000000000004E-002    -3.3155261941141534     
   8.9100000000000013E-002    -3.0901688053386152     
   8.9399999999999993E-002    -2.6341485298853322     
   8.9700000000000002E-002    -1.9676273716872927     
   9.0000000000000011E-002    -1.1279676459194294     
   9.0299999999999991E-002   -0.16719035417983596     
   9.0600000000000000E-002    0.85102304317743904     
   9.0900000000000009E-002     1.8556417589405210     
   9.1200000000000017E-002     2.7737906058975867     
   9.1499999999999998E-002     3.5360919321925990     
   9.1800000000000007E-002     4.0823753073995412     
   9.2100000000000001E-002     4.3666149672708885     
   9.2399999999999996E-002     4.3609192500110634     
   9.2700000000000005E-002     4.0583409495391880     
   9.3000000000000013E-002     3.4736478842965295     
   9.3300000000000008E-002     2.6428249752288115     
   9.3600000000000003E-002     1.6204932305333677     
   9.3899999999999997E-002    0.47586001465788985     
   9.4200000000000006E-002   -0.71236623054426196     
   9.4500000000000001E-002    -1.8623336833975210     
   9.4800000000000009E-002    -2.8947915599209244     
   9.5100000000000004E-002    -3.7393566595326950     
   9.5399999999999999E-002    -4.3402257036801082     
   9.5699999999999993E-002    -4.6594270704238792     
   9.6000000000000002E-002    -4.6800816318957343     
   9.6300000000000011E-002    -4.4071200552396572     
   9.6600000000000005E-002    -3.8659274549560028     
   9.6900000000000000E-002    -3.1005807860441452     
   9.7200000000000009E-002    -2.1692994000397099     
   9.7499999999999989E-002    -1.1397490799907897     
   9.7799999999999998E-002    -8.3529423967713179E-002
   9.8100000000000007E-002    0.92955131559811432     
   9.8400000000000015E-002     1.8364630439793346     
   9.8699999999999996E-002     2.5854429250972615     
   9.9000000000000005E-002     3.1391900517858304     
   9.9300000000000013E-002     3.4767791539535740     
   9.9599999999999994E-002     3.5938799397079726     
   9.9900000000000003E-002     3.5016916705878312     
  0.10020000000000001          3.2251032439059211     
  0.10049999999999999          2.7991924759239368     
  0.10080000000000000          2.2659229264690532     
  0.10110000000000001          1.6703663845491927     
  0.10140000000000000          1.0566615114732374     
  0.10170000000000000         0.46556087718500261     
  0.10200000000000001         -6.8587003593435780E-002
  0.10230000000000002        -0.51938571535602840     
  0.10260000000000000        -0.86859333332891053     
  0.10290000000000001         -1.1069341003984359     
  0.10320000000000000         -1.2327416923460648     
  0.10350000000000001         -1.2509581408389956     
  0.10380000000000000         -1.1721097496020836     
  0.10410000000000001         -1.0095869702838143     
  0.10440000000000001        -0.77895098527356543     
  0.10470000000000000        -0.49641630207213416     
  0.10500000000000000        -0.17694512621438030     
  0.10530000000000000         0.16566745172300512     
  0.10560000000000000         0.51976266935032311     
  0.10590000000000001         0.87587593132882757     
  0.10620000000000000          1.2261651237160873     
  0.10650000000000001          1.5645488606532258     
  0.10679999999999999          1.8856216623801223     
  0.10710000000000000          2.1839533650562943     
  0.10740000000000001          2.4539724577466799     
  0.10770000000000000          2.6891572274755724     
  0.10800000000000000          2.8818791966326489     
  0.10830000000000001          3.0239588422301020     
  0.10859999999999999          3.1065460442272510     
  0.10890000000000000          3.1208292916768903     
  0.10920000000000001          3.0593852977524572     
  0.10950000000000001          2.9164405063963210     
  0.10979999999999999          2.6889611473125061     
  0.11009999999999999          2.3775541543469898     
  0.11040000000000001          1.9858617218147283     
  0.11070000000000001          1.5210891045295536     
  0.11100000000000000         0.99347569304499661     
  0.11130000000000000         0.41481904532088831     
  0.11160000000000002        -0.20174915861189641     
  0.11190000000000001        -0.84332760765881898     
  0.11220000000000001         -1.4983059029823211     
  0.11250000000000000         -2.1567149129247074     
  0.11280000000000000         -2.8109951503871908     
  0.11309999999999999         -3.4554361494296564     
  0.11340000000000001         -4.0862683518977505     
  0.11369999999999998         -4.7001939830309176     
  0.11400000000000000         -5.2936493190931646     
  0.11430000000000000         -5.8618386543370011     
  0.11460000000000002         -6.3972492267066832     
  0.11489999999999999         -6.8896227070648859     
  0.11520000000000001         -7.3254054722951745     
  0.11550000000000001         -7.6878522679679069     
  0.11580000000000000         -7.9578594767944040     
  0.11609999999999999         -8.1148335845283359     
  0.11640000000000002         -8.1379905276057602     
  0.11670000000000001         -8.0078736331805498     
  0.11700000000000001         -7.7075456122381762     
  0.11730000000000000         -7.2242228626308673     
  0.11760000000000000         -6.5501683666084061     
  0.11789999999999999         -5.6836391611079913     
  0.11820000000000001         -4.6296278686769430     
  0.11850000000000001         -3.4001187031766866     
  0.11880000000000000         -2.0139808407698769     
  0.11910000000000000        -0.49720143946657092     
  0.11940000000000002          1.1175468712255006     
  0.11970000000000001          2.7915868943836983     
  0.12000000000000001          4.4810246847077568     
  0.12030000000000000          6.1379559759618409     
  0.12060000000000000          7.7121870987407917     
  0.12089999999999999          9.1519989770061887     
  0.12119999999999999          10.407240893951219     
  0.12150000000000001          11.431359191193760     
  0.12180000000000001          12.182339911825659     
  0.12210000000000000          12.627495004494268     
  0.12239999999999999          12.743785743200599     
  0.12270000000000002          12.519195966981817     
  0.12300000000000001          11.956044124779400     
  0.12330000000000001          11.069444577350250     
  0.12360000000000000          9.8875605282058405     
  0.12390000000000000          8.4516717754296220     
  0.12419999999999999          6.8127203658851290     
  0.12450000000000001          5.0302077958968034     
  0.12480000000000001          3.1691496433209538     
  0.12509999999999999          1.2962535120038254     
  0.12540000000000001        -0.52220826778681162     
  0.12570000000000003         -2.2239489739682332     
  0.12600000000000000         -3.7533478599971923     
  0.12630000000000002         -5.0620484405915063     
  0.12659999999999999         -6.1123257692417434     
  0.12690000000000001         -6.8772166399144137     
  0.12719999999999998         -7.3402637102869708     
  0.12750000000000000         -7.4962075060697266     
  0.12780000000000002         -7.3509172370592299     
  0.12809999999999999         -6.9201624348052011     
  0.12840000000000001         -6.2290920604310891     
  0.12869999999999998         -5.3126953034853628     
  0.12900000000000000         -4.2134412119288971     
  0.12930000000000003         -2.9814445110042955     
  0.12959999999999999         -1.6734194471842758     
  0.12990000000000002        -0.34993819392281078     
  0.13019999999999998         0.92453419722735042     
  0.13050000000000000          2.0856083042666587     
  0.13080000000000003          3.0716206237766754     
  0.13109999999999999          3.8255552214557889     
  0.13140000000000002          4.3004862544682094     
  0.13169999999999998          4.4609998077587960     
  0.13200000000000001          4.2868164626744711     
  0.13229999999999997          3.7762728915021384     
  0.13260000000000000          2.9456126768770994     
  0.13290000000000002          1.8301513007199341     
  0.13319999999999999         0.48404296852709716     
  0.13350000000000001         -1.0235427908336050     
  0.13380000000000003         -2.6116107175798358     
  0.13410000000000000         -4.1908139981066155     
  0.13440000000000002         -5.6705062194095222     
  0.13469999999999999         -6.9632974203038875     
  0.13500000000000001         -7.9899100830629521     
  0.13529999999999998         -8.6861038075397126     
  0.13560000000000000         -9.0047863159412138     
  0.13590000000000002         -8.9200513459474848     
  0.13619999999999999         -8.4302719009261438     
  0.13650000000000001         -7.5552621885375029     
  0.13680000000000003         -6.3386880678089641     
  0.13710000000000000         -4.8444068030090861     
  0.13740000000000002         -3.1502671795939294     
  0.13769999999999999         -1.3482530779440887     
  0.13800000000000001         0.46497731686722998     
  0.13829999999999998          2.1934466791351106     
  0.13860000000000000          3.7448200912337608     
  0.13890000000000002          5.0407285751963418     
  0.13919999999999999          6.0184167548527903     
  0.13950000000000001          6.6349829341783124     
  0.13979999999999998          6.8727787494771375     
  0.14010000000000000          6.7368857922292174     
  0.14040000000000002          6.2570436222510200     
  0.14069999999999999          5.4856211354512574     
  0.14100000000000001          4.4918454089832629     
  0.14130000000000004          3.3585112706505007     
  0.14160000000000000          2.1760512839538944     
  0.14189999999999997          1.0350635789997165     
  0.14219999999999999          1.9947375480565299E-002
  0.14250000000000002        -0.79643749983811896     
  0.14279999999999998         -1.3594439587010061     
  0.14310000000000000         -1.6359682439782142     
  0.14339999999999997         -1.6161977632449829     
  0.14369999999999999         -1.3160458566164346     
  0.14400000000000002        -0.77358260558633629     
  0.14429999999999998         -4.7075838686289062E-002
  0.14460000000000001         0.78897739292919966     
  0.14490000000000003          1.6527430676462074     
  0.14520000000000000          2.4588343921253690     
  0.14550000000000002          3.1268451056179005     
  0.14579999999999999          3.5893577009479030     
  0.14610000000000001          3.7948389868212908     
  0.14640000000000003          3.7146355278174732     
  0.14670000000000000          3.3448552883076741     
  0.14699999999999996          2.7059587849009974     
  0.14729999999999999          1.8425346895684127     
  0.14760000000000001         0.81851733972557228     
  0.14789999999999998        -0.28768196038841576     
  0.14820000000000000         -1.3904955323112556     