  -1.4999999999999999E-002     0.0000000000000000     
  -1.4700000000000000E-002     0.0000000000000000     
  -1.4400000000000000E-002     0.0000000000000000     
  -1.4100000000000000E-002     0.0000000000000000     
  -1.3800000000000000E-002     0.0000000000000000     
  -1.3500000000000000E-002     0.0000000000000000     
  -1.3200000000000000E-002     0.0000000000000000     
  -1.2899999999999998E-002     0.0000000000000000     
  -1.2600000000000000E-002     0.0000000000000000     
  -1.2299999999999998E-002    -9.6808183347540907E-044
  -1.2000000000000000E-002    -2.3524775322248454E-036
  -1.1699999999999999E-002     7.2623107232319330E-035
  -1.1399999999999999E-002    -2.5823765148314733E-033
  -1.1099999999999999E-002     1.8678538331923108E-031
  -1.0799999999999999E-002    -4.6946542638747504E-030
  -1.0499999999999999E-002     5.6744989542843495E-029
  -1.0199999999999999E-002    -3.0252781778787784E-028
  -9.8999999999999991E-003    -1.1130172120602613E-027
  -9.5999999999999992E-003     3.5517946074571282E-026
  -9.2999999999999992E-003    -3.5204792322831151E-025
  -8.9999999999999993E-003     2.2941080426628772E-024
  -8.6999999999999994E-003    -1.1298893580780639E-023
  -8.3999999999999995E-003     4.4524167873138902E-023
  -8.0999999999999996E-003    -1.4430738455264916E-022
  -7.7999999999999988E-003     3.9150204125383097E-022
  -7.4999999999999997E-003    -9.0929231563587256E-022
  -7.1999999999999998E-003     1.8746694630412503E-021
  -6.8999999999999981E-003    -3.4996974146564743E-021
  -6.5999999999999982E-003     4.9307244498418115E-021
  -6.3000000000000000E-003     3.3652080737541224E-021
  -6.0000000000000001E-003    -6.5946170732984476E-020
  -5.6999999999999985E-003     3.0080070483570625E-019
  -5.3999999999999986E-003    -8.1897640042774424E-019
  -5.1000000000000004E-003     1.1129814497256903E-018
  -4.7999999999999987E-003     1.7070358810476687E-018
  -4.5000000000000005E-003    -1.5789366400594031E-017
  -4.1999999999999989E-003     5.5638092272083923E-017
  -3.8999999999999990E-003    -1.3305811193256575E-016
  -3.5999999999999990E-003     2.2594854336239952E-016
  -3.2999999999999991E-003    -2.2384660276074964E-016
  -2.9999999999999992E-003    -1.1140993016200393E-016
  -2.6999999999999993E-003     1.0720110579691273E-015
  -2.3999999999999994E-003    -2.7107656189055980E-015
  -2.0999999999999977E-003     4.3882796489154863E-015
  -1.7999999999999995E-003    -4.5400901486345377E-015
  -1.4999999999999979E-003     1.0751608414763608E-015
  -1.1999999999999997E-003     7.9129127788649133E-015
  -8.9999999999999976E-004    -2.4196237742913685E-014
  -5.9999999999999810E-004     4.9728252116831631E-014
  -2.9999999999999992E-004    -8.2235830513452011E-014
   0.0000000000000000          1.0111902840260232E-013
   3.0000000000000165E-004    -5.5402655598255448E-014
   5.9999999999999984E-004    -1.0966038801770819E-013
   9.0000000000000149E-004     3.6536298448499813E-013
   1.2000000000000031E-003    -5.1823396295737753E-013
   1.5000000000000013E-003     2.8514008457495918E-013
   1.8000000000000030E-003     4.0945355241775671E-013
   2.1000000000000012E-003    -1.1094158153129785E-012
   2.3999999999999994E-003     8.5636541022480014E-013
   2.7000000000000010E-003     9.9882303427995280E-013
   2.9999999999999992E-003    -2.5518528899533106E-012
   3.3000000000000008E-003    -4.3885637772488248E-012
   3.6000000000000025E-003     3.4429554938162503E-011
   3.9000000000000007E-003    -8.8606501021721680E-011
   4.2000000000000023E-003     8.8508349201484314E-011
   4.5000000000000005E-003     2.4114312987927086E-010
   4.7999999999999987E-003    -1.3781153170406867E-009
   5.1000000000000004E-003     3.1215368538607830E-009
   5.4000000000000020E-003    -1.5789270290327720E-009
   5.7000000000000037E-003    -1.2744679451407657E-008
   5.9999999999999984E-003     3.8234477851934211E-008
   6.3000000000000000E-003    -1.4261173318692780E-008
   6.6000000000000017E-003    -1.4979750677286773E-007
   6.9000000000000034E-003     2.4419765146070543E-007
   7.2000000000000015E-003     3.7784947059048636E-007
   7.5000000000000032E-003    -1.1453841766471360E-006
   7.8000000000000014E-003    -1.2343956516146204E-006
   8.0999999999999996E-003     3.4154937348202312E-006
   8.4000000000000012E-003     4.7290077031858149E-006
   8.7000000000000029E-003    -6.8803698779909982E-006
   9.0000000000000011E-003    -1.5518911052999748E-005
   9.2999999999999992E-003     9.2098735816142457E-006
   9.6000000000000009E-003     6.1235366331089248E-005
   9.8999999999999991E-003     9.5088992003891624E-005
   1.0200000000000001E-002     9.7389657953681323E-005
   1.0500000000000002E-002     1.2462287942599764E-004
   1.0800000000000004E-002     2.3757012055294701E-004
   1.1099999999999999E-002     4.2843944269247217E-004
   1.1400000000000000E-002     6.5603617699983398E-004
   1.1700000000000002E-002     9.4231399204479079E-004
   1.2000000000000004E-002     1.3927942413394288E-003
   1.2300000000000002E-002     2.1122934067748953E-003
   1.2600000000000000E-002     3.1464501849985801E-003
   1.2900000000000002E-002     4.5535527851474867E-003
   1.3200000000000000E-002     6.4938112982428605E-003
   1.3500000000000002E-002     9.1826907279580778E-003
   1.3800000000000003E-002     1.2801434368720690E-002
   1.4100000000000001E-002     1.7531484340106616E-002
   1.4400000000000000E-002     2.3637548614467326E-002
   1.4700000000000001E-002     3.1422346176741021E-002
   1.4999999999999999E-002     4.1109651486369463E-002
   1.5300000000000001E-002     5.2842375958535623E-002
   1.5600000000000003E-002     6.6740466473123733E-002
   1.5899999999999997E-002     8.2830234745159145E-002
   1.6199999999999999E-002    0.10088680729121807     
   1.6500000000000001E-002    0.12036910048167290     
   1.6800000000000002E-002    0.14045071069781001     
   1.7100000000000004E-002    0.15999856098497595     
   1.7400000000000006E-002    0.17746006942076198     
   1.7700000000000000E-002    0.19081131540876570     
   1.8000000000000002E-002    0.19765303300455211     
   1.8300000000000004E-002    0.19536471877126463     
   1.8600000000000005E-002    0.18120972966812068     
   1.8900000000000000E-002    0.15246389495521198     
   1.9200000000000002E-002    0.10671777883943061     
   1.9500000000000003E-002     4.2251422390179580E-002
   1.9799999999999998E-002    -4.1732367630939952E-002
   2.0100000000000000E-002   -0.14494176285491675     
   2.0400000000000001E-002   -0.26563946258142590     
   2.0700000000000003E-002   -0.40027888184860616     
   2.0999999999999998E-002   -0.54360180257102342     
   2.1299999999999999E-002   -0.68903278883573071     
   2.1600000000000001E-002   -0.82884347219309173     
   2.1900000000000003E-002   -0.95424550498467442     
   2.2200000000000004E-002    -1.0560321150180081     
   2.2500000000000006E-002    -1.1256266110861493     
   2.2800000000000001E-002    -1.1557075164791815     
   2.3100000000000002E-002    -1.1406333711610173     
   2.3400000000000004E-002    -1.0770421160644821     
   2.3699999999999999E-002   -0.96441632397775989     
   2.4000000000000000E-002   -0.80535863258612184     
   2.4300000000000002E-002   -0.60535857095304613     
   2.4599999999999997E-002   -0.37238367154078106     
   2.4900000000000005E-002   -0.11642322642579021     
   2.5200000000000000E-002    0.15098956307292088     
   2.5499999999999995E-002    0.41766226842761195     
   2.5800000000000003E-002    0.67198962684606245     
   2.6099999999999998E-002    0.90349972831286784     
   2.6400000000000007E-002     1.1030275244868144     
   2.6700000000000002E-002     1.2633712845286822     
   2.6999999999999996E-002     1.3798374412810834     
   2.7300000000000005E-002     1.4499709992810694     
   2.7600000000000000E-002     1.4728902870667540     
   2.7900000000000008E-002     1.4492004112910644     
   2.8200000000000003E-002     1.3811062673308134     
   2.8499999999999998E-002     1.2718064791256458     
   2.8800000000000006E-002     1.1248509801451132     
   2.9100000000000001E-002    0.94419835319656298     
   2.9400000000000003E-002    0.73449418426997315     
   2.9700000000000004E-002    0.50123634629238611     
   3.0000000000000006E-002    0.25089730781815195     
   3.0300000000000001E-002    -9.0201478666249741E-003
   3.0600000000000002E-002   -0.26961829491665790     
   3.0900000000000004E-002   -0.52020388434062981     
   3.1199999999999999E-002   -0.74876546565660940     
   3.1500000000000007E-002   -0.94258599989416947     
   3.1800000000000002E-002    -1.0885034100199973     
   3.2099999999999997E-002    -1.1735080876879191     
   3.2400000000000005E-002    -1.1860029952521285     
   3.2700000000000000E-002    -1.1173676323207877     
   3.3000000000000002E-002   -0.96256302274133276     
   3.3300000000000003E-002   -0.72069056762126071     
   3.3599999999999998E-002   -0.39606886301824701     
   3.3900000000000000E-002     1.2627376393832567E-003
   3.4200000000000001E-002    0.45614996784832340     
   3.4500000000000003E-002    0.94896366797129605     
   3.4799999999999998E-002     1.4561053964573358     
   3.5099999999999999E-002     1.9513223755188160     
   3.5400000000000001E-002     2.4076902324825253     
   3.5699999999999996E-002     2.7991835524404234     
   3.6000000000000004E-002     3.1019901605480324     
   3.6299999999999999E-002     3.2961174672681812     
   3.6600000000000008E-002     3.3666724184961470     
   3.6900000000000002E-002     3.3046666349472655     
   3.7199999999999997E-002     3.1075395024662700     
   3.7500000000000006E-002     2.7791152564810249     
   3.7800000000000000E-002     2.3293318999392016     
   3.8100000000000009E-002     1.7736954630830819     
   3.8400000000000004E-002     1.1325853708534155     
   3.8699999999999998E-002    0.43058395031121488     
   3.9000000000000007E-002   -0.30477186955266883     
   3.9300000000000002E-002    -1.0440312548860433     
   3.9600000000000003E-002    -1.7565480603410804     
   3.9900000000000005E-002    -2.4117538054523928     
   4.0200000000000000E-002    -2.9802383662858523     
   4.0500000000000001E-002    -3.4354020970488390     
   4.0800000000000003E-002    -3.7549509529508058     
   4.1100000000000005E-002    -3.9220146731113794     
   4.1399999999999999E-002    -3.9269790274740464     
   4.1700000000000008E-002    -3.7693371373443068     
   4.2000000000000003E-002    -3.4590277190068175     
   4.2299999999999997E-002    -3.0169789165288381     
   4.2600000000000006E-002    -2.4749721648310468     
   4.2900000000000001E-002    -1.8754170036660083     
   4.3200000000000002E-002    -1.2697498586103668     
   4.3500000000000004E-002   -0.71533132109724729     
   4.3799999999999999E-002   -0.27169281405381634     
   4.4100000000000000E-002     3.9404610940746180E-003
   4.4400000000000002E-002     6.1505143413868382E-002
   4.4700000000000004E-002   -0.13645910388540453     
   4.4999999999999998E-002   -0.60997178025509269     
   4.5300000000000000E-002    -1.3577506240178647     
   4.5600000000000002E-002    -2.3547496748920418     
   4.5899999999999996E-002    -3.5512678973758272     
   4.6200000000000005E-002    -4.8738752280686590     
   4.6500000000000000E-002    -6.2291490122578290     
   4.6799999999999994E-002    -7.5090958809005413     
   4.7100000000000003E-002    -8.5982897647571868     
   4.7399999999999998E-002    -9.3825267276957973     
   4.7700000000000006E-002    -9.7581628693427298     
   4.8000000000000001E-002    -9.6412166702245496     
   4.8300000000000010E-002    -8.9750799258594380     
   4.8600000000000004E-002    -7.7369135641438911     
   4.8899999999999999E-002    -5.9416115930196076     
   4.9200000000000008E-002    -3.6430733023003250     
   4.9500000000000002E-002   -0.93168365593818903     
   4.9800000000000011E-002     2.0712826309027732     
   5.0100000000000006E-002     5.2210060532067377     
   5.0400000000000000E-002     8.3584654637243148     
   5.0700000000000009E-002     11.322255529407833     
   5.1000000000000004E-002     13.959902316304245     
   5.1299999999999998E-002     16.137198092357163     
   5.1600000000000007E-002     17.746998496797360     
   5.1900000000000002E-002     18.716181502353635     
   5.2200000000000010E-002     19.008389228687847     
   5.2500000000000005E-002     18.624294971126634     
   5.2800000000000000E-002     17.599579503695605     
   5.3099999999999994E-002     16.000197039412370     
   5.3400000000000003E-002     13.915571717002681     
   5.3699999999999998E-002     11.451200902420950     
   5.4000000000000006E-002     8.7216180257534912     
   5.4300000000000001E-002     5.8431775575996436     
   5.4599999999999996E-002     2.9277071138681476     
   5.4900000000000004E-002     7.8275510952016347E-002
   5.5199999999999999E-002    -2.6133427412740318     
   5.5499999999999994E-002    -5.0684423763441471     
   5.5800000000000002E-002    -7.2222638873793814     
   5.6099999999999997E-002    -9.0234719412558224     
   5.6400000000000006E-002    -10.433213371499281     
   5.6700000000000000E-002    -11.424839181975942     
   5.6999999999999995E-002    -11.983663743789426     
   5.7300000000000004E-002    -12.107650010186914     
   5.7599999999999998E-002    -11.807461014437020     
   5.7900000000000007E-002    -11.107074036068759     
   5.8200000000000002E-002    -10.045141494361232     
   5.8499999999999996E-002    -8.6747162901171464     
   5.8800000000000005E-002    -7.0625184303213304     
   5.9100000000000000E-002    -5.2869194375349311     
   5.9400000000000008E-002    -3.4349478129590585     
   5.9700000000000003E-002    -1.5985855619026728     
   6.0000000000000012E-002    0.13065338507552762     
   6.0300000000000006E-002     1.6676449531316231     
   6.0600000000000001E-002     2.9388494676274215     
   6.0900000000000010E-002     3.8873337029497321     
   6.1200000000000004E-002     4.4767078288979851     
   6.1500000000000013E-002     4.6943492476251816     
   6.1800000000000008E-002     4.5518441447585731     
   6.2100000000000002E-002     4.0832549016343718     
   6.2399999999999997E-002     3.3427776333639541     
   6.2700000000000006E-002     2.4003784138941828     
   6.3000000000000000E-002     1.3358988538399066     
   6.3300000000000009E-002    0.23249055965592597     
   6.3600000000000004E-002   -0.83011694271453551     
   6.3899999999999998E-002    -1.7809058811322838     
   6.4199999999999993E-002    -2.5626741234087844     
   6.4500000000000002E-002    -3.1359490270280412     
   6.4800000000000010E-002    -3.4809023876358669     
   6.5100000000000005E-002    -3.5978710861165366     
   6.5400000000000000E-002    -3.5051473059441896     
   6.5700000000000008E-002    -3.2359882878634840     
   6.5999999999999989E-002    -2.8355245187288576     
   6.6299999999999998E-002    -2.3553113902440352     
   6.6600000000000006E-002    -1.8478777582885346     
   6.6900000000000001E-002    -1.3626257398878532     
   6.7199999999999996E-002   -0.94166959371930892     
   6.7500000000000004E-002   -0.61704032195354386     
   6.7800000000000013E-002   -0.40810526527823604     
   6.8099999999999994E-002   -0.32131737577383401     
   6.8400000000000002E-002   -0.35166283479056815     
   6.8700000000000011E-002   -0.48347617531027148     
   6.8999999999999992E-002   -0.69283024894541134     
   6.9300000000000000E-002   -0.95083698189456090     
   6.9600000000000009E-002    -1.2266529984860164     
   6.9900000000000004E-002    -1.4905891657123818     
   7.0199999999999999E-002    -1.7157112755533332     
   7.0500000000000007E-002    -1.8802625570630802     
   7.0800000000000016E-002    -1.9697038843846200     
   7.1099999999999997E-002    -1.9762330056896777     
   7.1400000000000005E-002    -1.8988971965754042     
   7.1700000000000000E-002    -1.7433995455814213     
   7.1999999999999995E-002    -1.5208939870216831     
   7.2300000000000003E-002    -1.2465234377374577     
   7.2600000000000012E-002   -0.93730317649020611     
   7.2900000000000006E-002   -0.61041144238000100     
   7.3200000000000001E-002   -0.28070794396343912     
   7.3499999999999996E-002     4.0912987581981093E-002
   7.3800000000000004E-002    0.34880655121958243     
   7.4099999999999999E-002    0.64440421032485140     
   7.4400000000000008E-002    0.93614547552462823     
   7.4700000000000003E-002     1.2380051036307558     
   7.5000000000000011E-002     1.5678187137635884     
   7.5299999999999992E-002     1.9455033206634553     
   7.5600000000000001E-002     2.3893272751906371     
   7.5900000000000009E-002     2.9115324212095315     
   7.6200000000000004E-002     3.5162428066903630     
   7.6499999999999999E-002     4.1974068923275976     
   7.6800000000000007E-002     4.9371716550872957     
   7.7099999999999988E-002     5.7074001226094273     
   7.7399999999999997E-002     6.4727324297960953     
   7.7700000000000005E-002     7.1952175773548745     
   7.8000000000000014E-002     7.8391662044103878     
   7.8299999999999995E-002     8.3770204554956926     
   7.8600000000000003E-002     8.7944837961056628     
   7.8900000000000012E-002     9.0927759763577374     
   7.9199999999999993E-002     9.2887865730365586     
   7.9500000000000001E-002     9.4124161456320650     
   7.9800000000000010E-002     9.5007235360747870     
   8.0100000000000018E-002     9.5884682784668271     
   8.0399999999999999E-002     9.6985252165901148     
   8.0700000000000008E-002     9.8325289565291012     
   8.1000000000000003E-002     9.9618740394782108     
   8.1299999999999997E-002     10.023336621227429     
   8.1600000000000006E-002     9.9189867331277366     
   8.1900000000000014E-002     9.5209204139068841     
   8.2199999999999995E-002     8.6825187901044938     
   8.2500000000000004E-002     7.2543415380368685     
   8.2799999999999999E-002     5.1032080029484073     
   8.3100000000000007E-002     2.1329887339683742     
   8.3400000000000002E-002    -1.6964349895065227     
   8.3700000000000011E-002    -6.3519773589219541     
   8.4000000000000005E-002    -11.716661158780703     
   8.4300000000000000E-002    -17.587740457237064     
   8.4599999999999995E-002    -23.681298745858847     
   8.4900000000000003E-002    -29.647162023157573     
   8.5199999999999998E-002    -35.091704965428221     
   8.5500000000000007E-002    -39.606384866789007     
   8.5800000000000001E-002    -42.801747764192136     
   8.6100000000000010E-002    -44.340776527142651     
   8.6399999999999991E-002    -43.970400263607715     
   8.6699999999999999E-002    -41.548956331900328     
   8.7000000000000008E-002    -37.064146125299246     
   8.7300000000000003E-002    -30.640765558681018     
   8.7599999999999997E-002    -22.538381919010387     
   8.7900000000000006E-002    -13.137565668220871     
   8.8200000000000014E-002    -2.9149575780524999     
   8.8499999999999995E-002     7.5905142344299401     
   8.8800000000000004E-002     17.815204312986317     
   8.9100000000000013E-002     27.209418501457844     
   8.9399999999999993E-002     35.277481624320572     
   8.9700000000000002E-002     41.612992926137636     
   9.0000000000000011E-002     45.924456073770763     
   9.0299999999999991E-002     48.050379638407982     
   9.0600000000000000E-002     47.966456358087228     
   9.0900000000000009E-002     45.782824185523936     
   9.1200000000000017E-002     41.727956818548542     
   9.1499999999999998E-002     36.125535186331952     
   9.1800000000000007E-002     29.366478084060745     
   9.2100000000000001E-002     21.880566542890129     
   9.2399999999999996E-002     14.104006499009643     
   9.2700000000000005E-002     6.4496460160942926     
   9.3000000000000013E-002   -0.71517070492638746     
   9.3300000000000008E-002    -7.0882373378471000     
   9.3600000000000003E-002    -12.442697854053513     
   9.3899999999999997E-002    -16.632464347135699     
   9.4200000000000006E-002    -19.592702214855393     
   9.4500000000000001E-002    -21.332335946119905     
   9.4800000000000009E-002    -21.924737443087562     
   9.5100000000000004E-002    -21.495097463872437     
   9.5399999999999999E-002    -20.205916418539129     
   9.5699999999999993E-002    -18.243797885292235     
   9.6000000000000002E-002    -15.805017608257472     
   9.6300000000000011E-002    -13.083292622102574     
   9.6600000000000005E-002    -10.260162491993466     
   9.6900000000000000E-002    -7.4946448059426825     
   9.7200000000000009E-002    -4.9184477293822413     
   9.7499999999999989E-002    -2.6327248897241056     
   9.7799999999999998E-002   -0.70481130567351880     
   9.8100000000000007E-002    0.83020936753880803     
   9.8400000000000015E-002     1.9668482588749789     
   9.8699999999999996E-002     2.7249251105977610     
   9.9000000000000005E-002     3.1432994179900353     
   9.9300000000000013E-002     3.2752812289583555     
   9.9599999999999994E-002     3.1820985928996137     
   9.9900000000000003E-002     2.9256263882479310     
  0.10020000000000001          2.5645053444766206     
  0.10049999999999999          2.1498242807298693     
  0.10080000000000000          1.7236407183547786     
  0.10110000000000001          1.3181671584059651     
  0.10140000000000000         0.95429306446840501     
  0.10170000000000000         0.64417391055497175     
  0.10200000000000001         0.39339888364505371     
  0.10230000000000002         0.20253035245855325     
  0.10260000000000000          6.8533500220074831E-002
  0.10290000000000001         -1.3918659365519018E-002
  0.10320000000000000         -5.0561378104895006E-002
  0.10350000000000001         -4.7736090444401365E-002
  0.10380000000000000         -1.2183602393365829E-002
  0.10410000000000001          4.8776960350618091E-002
  0.10440000000000001         0.12736259913430920     
  0.10470000000000000         0.21523564165445536     
  0.10500000000000000         0.30374943440962537     
  0.10530000000000000         0.38575948056679787     
  0.10560000000000000         0.45421063023509051     
  0.10590000000000001         0.50390026133476262     
  0.10620000000000000         0.53269735836620025     
  0.10650000000000001         0.54007999301791421     
  0.10679999999999999         0.52857683325010507     
  0.10710000000000000         0.50263790294582500     
  0.10740000000000001         0.46747986112997697     
  0.10770000000000000         0.42902294014345554     
  0.10800000000000000         0.39184585025846075     
  0.10830000000000001         0.36043089151449309     
  0.10859999999999999         0.33694773289720059     
  0.10890000000000000         0.32017131946451804     
  0.10920000000000001         0.30939056777016993     
  0.10950000000000001         0.30213438792980818     
  0.10979999999999999         0.29509600295384480     
  0.11009999999999999         0.28562604551225418     
  0.11040000000000001         0.27150907009670805     
  0.11070000000000001         0.25274200745133857     
  0.11100000000000000         0.22937458282648671     
  0.11130000000000000         0.20256479564673099     
  0.11160000000000002         0.17511896767733642     
  0.11190000000000001         0.14894927598977092     
  0.11220000000000001         0.12566436093186009     
  0.11250000000000000         0.10662938534375097     
  0.11280000000000000          9.1933532588146127E-002
  0.11309999999999999          8.0966741547860377E-002
  0.11340000000000001          7.2065177740764860E-002
  0.11369999999999998          6.3420219475529976E-002
  0.11400000000000000          5.4273531569033757E-002
  0.11430000000000000          4.3085365184853515E-002
  0.11460000000000002          2.8989819065689242E-002
  0.11489999999999999          1.2634156753115685E-002
  0.11520000000000001         -4.6114448639556277E-003
  0.11550000000000001         -2.0703583468298137E-002
  0.11580000000000000         -3.3972456980765724E-002
  0.11609999999999999         -4.2750438700990198E-002
  0.11640000000000002         -4.5462432415642115E-002
  0.11670000000000001         -4.2229994167529449E-002
  0.11700000000000001         -3.3757695512719649E-002
  0.11730000000000000         -2.1141052966248176E-002
  0.11760000000000000         -7.3347605770431338E-003
  0.11789999999999999          4.5838481957905519E-003
  0.11820000000000001          1.1768309262925969E-002
  0.11850000000000001          1.1459601166873338E-002
  0.11880000000000000          1.6298515254999765E-003
  0.11910000000000000         -1.8295170400395171E-002
  0.11940000000000002         -4.6969387596037034E-002
  0.11970000000000001         -8.2256155301223502E-002
  0.12000000000000001        -0.12060974731619634     
  0.12030000000000000        -0.15733069413523795     
  0.12060000000000000        -0.18761136593698699     
  0.12089999999999999        -0.20744198601355707     
  0.12119999999999999        -0.21348101264826658     
  0.12150000000000001        -0.20355406744124585     
  0.12180000000000001        -0.17858834531405188     
  0.12210000000000000        -0.14101114123780545     
  0.12239999999999999         -9.5085089466737216E-002
  0.12270000000000002         -4.7199771962772787E-002
  0.12300000000000001         -3.9442592094264583E-003
  0.12330000000000001          2.8208275604089287E-002
  0.12360000000000000          4.4222884236303571E-002
  0.12390000000000000          4.0781493140974012E-002
  0.12419999999999999          1.7200527604952314E-002
  0.12450000000000001         -2.3201717115426325E-002
  0.12480000000000001         -7.5367681893204599E-002
  0.12509999999999999        -0.13154312132597576     
  0.12540000000000001        -0.18224073013034861     
  0.12570000000000003        -0.21899986524605064     
  0.12600000000000000        -0.23423563971198927     
  0.12630000000000002        -0.22372026467016770     
  0.12659999999999999        -0.18680738658297907     
  0.12690000000000001        -0.12677199750694065     
  0.12719999999999998         -5.1904229509952646E-002
  0.12750000000000000          2.6666636423574908E-002
  0.12780000000000002          9.5487303671568102E-002
  0.12809999999999999         0.14160987798036978     
  0.12840000000000001         0.15495019685764938     
  0.12869999999999998         0.12799535282134017     
  0.12900000000000000          6.0194437617603638E-002
  0.12930000000000003         -4.2060683885907280E-002
  0.12959999999999999        -0.16687718086512371     
  0.12990000000000002        -0.29669228430019084     
  0.13019999999999998        -0.41096640047211586     
  0.13050000000000000        -0.48857668122383285     
  0.13080000000000003        -0.51194010930253420     
  0.13109999999999999        -0.46936746503679783     
  0.13140000000000002        -0.35689876246786917     
  0.13169999999999998        -0.18116834126637801     
  0.13200000000000001          4.1119594470823861E-002
  0.13229999999999997         0.28600969560064793     
  0.13260000000000000         0.52281817042861811     
  0.13290000000000002         0.71795822638268558     
  0.13319999999999999         0.84132569621833075     
  0.13350000000000001         0.86891051153281840     
  0.13380000000000003         0.78645851499052344     
  0.13410000000000000         0.59180134680795082     
  0.13440000000000002         0.29653741593212529     
  0.13469999999999999         -7.4992927779106322E-002
  0.13500000000000001        -0.48896241867591572     
  0.13529999999999998        -0.90379151937237501     
  0.13560000000000000         -1.2754952268765678     
  0.13590000000000002         -1.5635191284306933     
  0.13619999999999999         -1.7338125134302893     
  0.13650000000000001         -1.7626942119845928     
  0.13680000000000003         -1.6401092746696380     
  0.13710000000000000         -1.3696389860954146     
  0.13740000000000002        -0.96850968644957014     
  0.13769999999999999        -0.46590387376155978     
  0.13800000000000001         0.10002192139679994     
  0.13829999999999998         0.68599774427899540     
  0.13860000000000000          1.2474818254452409     
  0.13890000000000002          1.7418843282219110     
  0.13919999999999999          2.1333695025448982     
  0.13950000000000001          2.3950236999098506     
  0.13979999999999998          2.5097748346869304     
  0.14010000000000000          2.4714016103239165     
  0.14040000000000002          2.2859136058288962     
  0.14069999999999999          1.9697018624040525     
  0.14100000000000001          1.5468362890178935     
  0.14130000000000004          1.0487141144357019     
  0.14160000000000000         0.51004616915617673     
  0.14189999999999997         -3.3223484627234109E-002
  0.14219999999999999        -0.54658926844792599     
  0.14250000000000002        -0.99979862689476884     
  0.14279999999999998         -1.3676888695957989     
  0.14310000000000000         -1.6331258037359175     
  0.14339999999999997         -1.7866216196634486     
  0.14369999999999999         -1.8263582559938432     
  0.14400000000000002         -1.7594286667248937     
  0.14429999999999998         -1.5983884532106958     
  0.14460000000000001         -1.3609859744486417     
  0.14490000000000003         -1.0690397530391633     
  0.14520000000000000        -0.74473070765748806     
  0.14550000000000002        -0.41062980992041992     
  0.14579999999999999         -8.7382070886355814E-002
  0.14610000000000001         0.20760683267193786     
  0.14640000000000003         0.46062489469139362     
  0.14670000000000000         0.66277151618024499     
  0.14699999999999996         0.80865259509151488     
  0.14729999999999999         0.89705869347596590     
  0.14760000000000001         0.93076929582854673     
  0.14789999999999998         0.91454621799619851     
  0.14820000000000000         0.85533167381842035     