  -1.4999999999999999E-002     0.0000000000000000     
  -1.4700000000000000E-002     0.0000000000000000     
  -1.4400000000000000E-002     0.0000000000000000     
  -1.4100000000000000E-002     0.0000000000000000     
  -1.3800000000000000E-002     0.0000000000000000     
  -1.3500000000000000E-002     0.0000000000000000     
  -1.3200000000000000E-002     0.0000000000000000     
  -1.2899999999999998E-002     0.0000000000000000     
  -1.2600000000000000E-002     0.0000000000000000     
  -1.2299999999999998E-002     0.0000000000000000     
  -1.2000000000000000E-002     0.0000000000000000     
  -1.1699999999999999E-002     0.0000000000000000     
  -1.1399999999999999E-002     0.0000000000000000     
  -1.1099999999999999E-002     0.0000000000000000     
  -1.0799999999999999E-002     0.0000000000000000     
  -1.0499999999999999E-002     0.0000000000000000     
  -1.0199999999999999E-002     0.0000000000000000     
  -9.8999999999999991E-003     0.0000000000000000     
  -9.5999999999999992E-003     0.0000000000000000     
  -9.2999999999999992E-003     0.0000000000000000     
  -8.9999999999999993E-003     0.0000000000000000     
  -8.6999999999999994E-003     0.0000000000000000     
  -8.3999999999999995E-003     0.0000000000000000     
  -8.0999999999999996E-003     0.0000000000000000     
  -7.7999999999999988E-003     0.0000000000000000     
  -7.4999999999999997E-003     0.0000000000000000     
  -7.1999999999999998E-003     0.0000000000000000     
  -6.8999999999999981E-003     0.0000000000000000     
  -6.5999999999999982E-003     0.0000000000000000     
  -6.3000000000000000E-003     0.0000000000000000     
  -6.0000000000000001E-003     0.0000000000000000     
  -5.6999999999999985E-003     0.0000000000000000     
  -5.3999999999999986E-003     0.0000000000000000     
  -5.1000000000000004E-003     0.0000000000000000     
  -4.7999999999999987E-003     0.0000000000000000     
  -4.5000000000000005E-003     0.0000000000000000     
  -4.1999999999999989E-003     0.0000000000000000     
  -3.8999999999999990E-003     0.0000000000000000     
  -3.5999999999999990E-003     0.0000000000000000     
  -3.2999999999999991E-003     0.0000000000000000     
  -2.9999999999999992E-003     0.0000000000000000     
  -2.6999999999999993E-003     0.0000000000000000     
  -2.3999999999999994E-003     0.0000000000000000     
  -2.0999999999999977E-003     0.0000000000000000     
  -1.7999999999999995E-003     0.0000000000000000     
  -1.4999999999999979E-003     0.0000000000000000     
  -1.1999999999999997E-003     0.0000000000000000     
  -8.9999999999999976E-004     0.0000000000000000     
  -5.9999999999999810E-004     0.0000000000000000     
  -2.9999999999999992E-004     0.0000000000000000     
   0.0000000000000000          0.0000000000000000     
   3.0000000000000165E-004     0.0000000000000000     
   5.9999999999999984E-004     0.0000000000000000     
   9.0000000000000149E-004     0.0000000000000000     
   1.2000000000000031E-003     0.0000000000000000     
   1.5000000000000013E-003     0.0000000000000000     
   1.8000000000000030E-003     0.0000000000000000     
   2.1000000000000012E-003     0.0000000000000000     
   2.3999999999999994E-003     0.0000000000000000     
   2.7000000000000010E-003     0.0000000000000000     
   2.9999999999999992E-003     0.0000000000000000     
   3.3000000000000008E-003     0.0000000000000000     
   3.6000000000000025E-003     0.0000000000000000     
   3.9000000000000007E-003     0.0000000000000000     
   4.2000000000000023E-003     0.0000000000000000     
   4.5000000000000005E-003     0.0000000000000000     
   4.7999999999999987E-003     0.0000000000000000     
   5.1000000000000004E-003     0.0000000000000000     
   5.4000000000000020E-003     0.0000000000000000     
   5.7000000000000037E-003     0.0000000000000000     
   5.9999999999999984E-003     0.0000000000000000     
   6.3000000000000000E-003     0.0000000000000000     
   6.6000000000000017E-003     0.0000000000000000     
   6.9000000000000034E-003     0.0000000000000000     
   7.2000000000000015E-003     0.0000000000000000     
   7.5000000000000032E-003     0.0000000000000000     
   7.8000000000000014E-003     0.0000000000000000     
   8.0999999999999996E-003     0.0000000000000000     
   8.4000000000000012E-003     0.0000000000000000     
   8.7000000000000029E-003     0.0000000000000000     
   9.0000000000000011E-003     0.0000000000000000     
   9.2999999999999992E-003     0.0000000000000000     
   9.6000000000000009E-003     0.0000000000000000     
   9.8999999999999991E-003     0.0000000000000000     
   1.0200000000000001E-002     0.0000000000000000     
   1.0500000000000002E-002     1.8516169078369120E-044
   1.0800000000000004E-002    -7.0281217914307455E-043
   1.1099999999999999E-002    -2.1803579770742677E-036
   1.1400000000000000E-002     1.1172006424893721E-035
   1.1700000000000002E-002     4.2150968740975705E-034
   1.2000000000000004E-002    -9.0340587873424487E-034
   1.2300000000000002E-002    -2.7796794345302541E-032
   1.2600000000000000E-002     1.2580974985631656E-031
   1.2900000000000002E-002     6.6985083467819898E-031
   1.3200000000000000E-002    -6.7935101753120161E-030
   1.3500000000000002E-002     5.1325400686539030E-030
   1.3800000000000003E-002     1.6450638178881755E-028
   1.4100000000000001E-002    -7.8571526597684609E-028
   1.4400000000000000E-002    -3.0991619780797082E-028
   1.4700000000000001E-002     1.6261841395861573E-026
   1.4999999999999999E-002    -6.2064124922367318E-026
   1.5300000000000001E-002     1.0283676087844826E-026
   1.5600000000000003E-002     7.9049847059504691E-025
   1.5899999999999997E-002    -3.2831709303512946E-024
   1.6199999999999999E-002     4.4828190624982753E-024
   1.6500000000000001E-002     1.3340950532727257E-023
   1.6800000000000002E-002    -8.1917814886104246E-023
   1.7100000000000004E-002     1.6597596068280290E-022
   1.7400000000000006E-002     6.6384744169233993E-023
   1.7700000000000000E-002    -1.3657188096744444E-021
   1.8000000000000002E-002     3.6847471690205761E-021
   1.8300000000000004E-002    -1.0594370258828919E-021
   1.8600000000000005E-002    -3.0421349024660962E-020
   1.8900000000000000E-002     1.5706866193849280E-019
   1.9200000000000002E-002    -5.7020761855001573E-019
   1.9500000000000003E-002     2.0295904478297768E-018
   1.9799999999999998E-002    -8.1486559198328444E-018
   2.0100000000000000E-002     3.5519177753553690E-017
   2.0400000000000001E-002    -1.5242098399083434E-016
   2.0700000000000003E-002     6.0357582835983088E-016
   2.0999999999999998E-002    -2.1057045602239437E-015
   2.1299999999999999E-002     5.9775466052776547E-015
   2.1600000000000001E-002    -1.0297734006782800E-014
   2.1900000000000003E-002    -1.8709866550469076E-014
   2.2200000000000004E-002     2.7807324986026388E-013
   2.2500000000000006E-002    -1.5451273320677023E-012
   2.2800000000000001E-002     5.9030942095013847E-012
   2.3100000000000002E-002    -1.5762430357181328E-011
   2.3400000000000004E-002     2.1853155101905058E-011
   2.3699999999999999E-002     3.7002006751770940E-011
   2.4000000000000000E-002    -3.1428050688676858E-010
   2.4300000000000002E-002     8.4513326028627946E-010
   2.4599999999999997E-002    -6.0142092301075322E-010
   2.4900000000000005E-002    -3.3478207857397371E-009
   2.5200000000000000E-002     1.1077000697565132E-008
   2.5499999999999995E-002    -5.3839177031113239E-009
   2.5800000000000003E-002    -4.1015288147486561E-008
   2.6099999999999998E-002     7.4669301873211465E-008
   2.6400000000000007E-002     8.2013072347657822E-008
   2.6700000000000002E-002    -3.1144272720351860E-007
   2.6999999999999996E-002    -1.7445604481858162E-007
   2.7300000000000005E-002     8.9740109521988957E-007
   2.7600000000000000E-002     7.3109927003796685E-007
   2.7900000000000008E-002    -2.0436557053640858E-006
   2.8200000000000003E-002    -3.6328301848534390E-006
   2.8499999999999998E-002     2.8668740290192541E-006
   2.8800000000000006E-002     2.0652937216074498E-005
   2.9100000000000001E-002     4.6640318548720178E-005
   2.9400000000000003E-002     7.7674180767516002E-005
   2.9700000000000004E-002     1.1764541884497937E-004
   3.0000000000000006E-002     1.7820159288101239E-004
   3.0300000000000001E-002     2.7643522958019243E-004
   3.0600000000000002E-002     4.3318386432163696E-004
   3.0900000000000004E-002     6.7330368234122604E-004
   3.1199999999999999E-002     1.0299608273896376E-003
   3.1500000000000007E-002     1.5505086875354519E-003
   3.1800000000000002E-002     2.3010194199234151E-003
   3.2099999999999997E-002     3.3702476016328866E-003
   3.2400000000000005E-002     4.8727682628609261E-003
   3.2700000000000000E-002     6.9509592069925885E-003
   3.3000000000000002E-002     9.7770422371354082E-003
   3.3300000000000003E-002     1.3553956736627995E-002
   3.3599999999999998E-002     1.8513649993274858E-002
   3.3900000000000000E-002     2.4910191465894172E-002
   3.4200000000000001E-002     3.3003263694706082E-002
   3.4500000000000003E-002     4.3035496703405236E-002
   3.4799999999999998E-002     5.5203833554708918E-002
   3.5099999999999999E-002     6.9620066486914794E-002
   3.5400000000000001E-002     8.6257921026609591E-002
   3.5699999999999996E-002    0.10489883438849543     
   3.6000000000000004E-002    0.12506853240682445     
   3.6299999999999999E-002    0.14597666492877900     
   3.6600000000000008E-002    0.16647856198731659     
   3.6900000000000002E-002    0.18503265372752831     
   3.7199999999999997E-002    0.19971421673305403     
   3.7500000000000006E-002    0.20823991623579075     
   3.7800000000000000E-002    0.20805508221836705     
   3.8100000000000009E-002    0.19648772782319260     
   3.8400000000000004E-002    0.17091541254965589     
   3.8699999999999998E-002    0.12904215054779919     
   3.9000000000000007E-002     6.9143005722623441E-002
   3.9300000000000002E-002    -9.6313098950732770E-003
   3.9600000000000003E-002   -0.10695172277614989     
   3.9900000000000005E-002   -0.22111918386966412     
   4.0200000000000000E-002   -0.34886849480141852     
   4.0500000000000001E-002   -0.48533562590635476     
   4.0800000000000003E-002   -0.62416512752945408     
   4.1100000000000005E-002   -0.75774074784383794     
   4.1399999999999999E-002   -0.87757970268485030     
   4.1700000000000008E-002   -0.97487159095632603     
   4.2000000000000003E-002    -1.0411106509058281     
   4.2299999999999997E-002    -1.0687698290621128     
   4.2600000000000006E-002    -1.0520125789205843     
   4.2900000000000001E-002   -0.98725558839618277     
   4.3200000000000002E-002   -0.87363399407925801     
   4.3500000000000004E-002   -0.71331007371061395     
   4.3799999999999999E-002   -0.51145757014475624     
   4.4100000000000000E-002   -0.27602944184298556     
   4.4400000000000002E-002    -1.7404988497797962E-002
   4.4700000000000004E-002    0.25238573955012444     
   4.4999999999999998E-002    0.52044809678342774     
   4.5300000000000000E-002    0.77376211888128699     
   4.5600000000000002E-002     1.0003483449702810     
   4.5899999999999996E-002     1.1897700015777044     
   4.6200000000000005E-002     1.3339839186102933     
   4.6500000000000000E-002     1.4277669409837379     
   4.6799999999999994E-002     1.4687957987957521     
   4.7100000000000003E-002     1.4578575118112982     
   4.7399999999999998E-002     1.3983986590592672     
   4.7700000000000006E-002     1.2961509424667790     
   4.8000000000000001E-002     1.1587215837768889     
   4.8300000000000010E-002    0.99469961241586813     
   4.8600000000000004E-002    0.81322182452943148     
   4.8899999999999999E-002    0.62324471220313271     
   4.9200000000000008E-002    0.43301004820479205     
   4.9500000000000002E-002    0.24975289776545384     
   4.9800000000000011E-002     7.9229430513263199E-002
   5.0100000000000006E-002    -7.4200184305364653E-002
   5.0400000000000000E-002   -0.20768973544926722     
   5.0700000000000009E-002   -0.31987646701918093     
   5.1000000000000004E-002   -0.41050500289666186     
   5.1299999999999998E-002   -0.48042143104262880     
   5.1600000000000007E-002   -0.53116828988351639     
   5.1900000000000002E-002   -0.56473416921062691     
   5.2200000000000010E-002   -0.58343161008691813     
   5.2500000000000005E-002   -0.58951134352234702     
   5.2800000000000000E-002   -0.58518702646306409     
   5.3099999999999994E-002   -0.57243681789876455     
   5.3400000000000003E-002   -0.55285704943055325     
   5.3699999999999998E-002   -0.52784747657564113     
   5.4000000000000006E-002   -0.49835682646743718     
   5.4300000000000001E-002   -0.46505243271072072     
   5.4599999999999996E-002   -0.42841134110310258     
   5.4900000000000004E-002   -0.38856864554848630     
   5.5199999999999999E-002   -0.34562936944337913     
   5.5499999999999994E-002   -0.29960760928419744     
   5.5800000000000002E-002   -0.25053567077497185     
   5.6099999999999997E-002   -0.19865419278670302     
   5.6400000000000006E-002   -0.14435509075195230     
   5.6700000000000000E-002    -8.8463851771756183E-002
   5.6999999999999995E-002    -3.2224558907767639E-002
   5.7300000000000004E-002     2.2591771767420530E-002
   5.7599999999999998E-002     7.3590197638262481E-002
   5.7900000000000007E-002    0.11790177389476138     
   5.8200000000000002E-002    0.15207092677600823     
   5.8499999999999996E-002    0.17238272968857032     
   5.8800000000000005E-002    0.17503008491145949     
   5.9100000000000000E-002    0.15632270489185182     
   5.9400000000000008E-002    0.11338064219144547     
   5.9700000000000003E-002     4.4264510641438867E-002
   6.0000000000000012E-002    -5.1443928112472150E-002
   6.0300000000000006E-002   -0.17213379143807819     
   6.0600000000000001E-002   -0.31415087499447120     
   6.0900000000000010E-002   -0.47135011115422470     
   6.1200000000000004E-002   -0.63530291127421656     
   6.1500000000000013E-002   -0.79565758754275884     
   6.1800000000000008E-002   -0.94042356277837080     
   6.2100000000000002E-002    -1.0569307966636416     
   6.2399999999999997E-002    -1.1326754266374162     
   6.2700000000000006E-002    -1.1563186821294682     
   6.3000000000000000E-002    -1.1189080645846123     
   6.3300000000000009E-002    -1.0147003087731470     
   6.3600000000000004E-002   -0.84195233643371648     
   6.3899999999999998E-002   -0.60350818324195321     
   6.4199999999999993E-002   -0.30694944094343873     
   6.4500000000000002E-002     3.5831485891298212E-002
   6.4800000000000010E-002    0.40908715790517541     
   6.5100000000000005E-002    0.79416765023956748     
   6.5400000000000000E-002     1.1711374702084099     
   6.5700000000000008E-002     1.5197384590417713     
   6.5999999999999989E-002     1.8210476914486413     
   6.6299999999999998E-002     2.0590210273764855     
   6.6600000000000006E-002     2.2210781910615411     
   6.6900000000000001E-002     2.2994690288622843     
   6.7199999999999996E-002     2.2914967882300008     
   6.7500000000000004E-002     2.1991410586016134     
   6.7800000000000013E-002     2.0293810672054073     
   6.8099999999999994E-002     1.7929098874615148     
   6.8400000000000002E-002     1.5033234582353390     
   6.8700000000000011E-002     1.1762728866419285     
   6.8999999999999992E-002    0.82789154091166361     
   6.9300000000000000E-002    0.47396532400708319     
   6.9600000000000009E-002    0.12905626184875241     
   6.9900000000000004E-002   -0.19453315731277515     
   7.0199999999999999E-002   -0.48701465858836757     
   7.0500000000000007E-002   -0.74112243561906888     
   7.0800000000000016E-002   -0.95267207842936419     
   7.1099999999999997E-002    -1.1197195218760665     
   7.1400000000000005E-002    -1.2424470369518661     
   7.1700000000000000E-002    -1.3229723171551571     
   7.1999999999999995E-002    -1.3643751345163719     
   7.2300000000000003E-002    -1.3705468379244097     
   7.2600000000000012E-002    -1.3459152181214016     
   7.2900000000000006E-002    -1.2948479843045066     
   7.3200000000000001E-002    -1.2217682780330885     
   7.3499999999999996E-002    -1.1310525108201333     
   7.3800000000000004E-002    -1.0269266520230780     
   7.4099999999999999E-002   -0.91360075657511364     
   7.4400000000000008E-002   -0.79536606094779483     
   7.4700000000000003E-002   -0.67651690103006390     
   7.5000000000000011E-002   -0.56140143571135614     
   7.5299999999999992E-002   -0.45444784315301673     
   7.5600000000000001E-002   -0.35972017667739820     
   7.5900000000000009E-002   -0.28098661218657756     
   7.6200000000000004E-002   -0.22142671482393694     
   7.6499999999999999E-002   -0.18297726300312192     
   7.6800000000000007E-002   -0.16660637030755560     
   7.7099999999999988E-002   -0.17175212885706323     
   7.7399999999999997E-002   -0.19605462675542412     
   7.7700000000000005E-002   -0.23597877214819987     
   7.8000000000000014E-002   -0.28604987827731410     
   7.8299999999999995E-002   -0.33955363080446005     
   7.8600000000000003E-002   -0.38904891131334424     
   7.8900000000000012E-002   -0.42605812116372749     
   7.9199999999999993E-002   -0.44239515836125332     
   7.9500000000000001E-002   -0.43031228323971604     
   7.9800000000000010E-002   -0.38288567108354138     
   8.0100000000000018E-002   -0.29525617243045560     
   8.0399999999999999E-002   -0.16441644976017650     
   8.0700000000000008E-002     9.9243303509823459E-003
   8.1000000000000003E-002    0.22495302973982717     
   8.1299999999999997E-002    0.47501764535224028     
   8.1600000000000006E-002    0.75122298098915763     
   8.1900000000000014E-002     1.0419484553190870     
   8.2199999999999995E-002     1.3331728204693063     
   8.2500000000000004E-002     1.6094452409906275     
   8.2799999999999999E-002     1.8544364281216155     
   8.3100000000000007E-002     2.0520673134109741     
   8.3400000000000002E-002     2.1878612397804305     
   8.3700000000000011E-002     2.2492826349176953     
   8.4000000000000005E-002     2.2275600792287604     
   8.4300000000000000E-002     2.1179836136299159     
   8.4599999999999995E-002     1.9202841826910533     
   8.4900000000000003E-002     1.6397075913908994     
   8.5199999999999998E-002     1.2856837714659417     
   8.5500000000000007E-002    0.87209661184264009     
   8.5800000000000001E-002    0.41678146174165115     
   8.6100000000000010E-002    -6.0604387178453012E-002
   8.6399999999999991E-002   -0.53850019850980735     
   8.6699999999999999E-002   -0.99548550053462537     
   8.7000000000000008E-002    -1.4117372261524004     
   8.7300000000000003E-002    -1.7691393180490138     
   8.7599999999999997E-002    -2.0535219042603416     
   8.7900000000000006E-002    -2.2546317936389446     
   8.8200000000000014E-002    -2.3664026636955380     
   8.8499999999999995E-002    -2.3878207586814497     
   8.8800000000000004E-002    -2.3218400847779441     
   8.9100000000000013E-002    -2.1755678999452517     
   8.9399999999999993E-002    -1.9594050956661966     
   8.9700000000000002E-002    -1.6861950425466448     
   9.0000000000000011E-002    -1.3707616544422558     
   9.0299999999999991E-002    -1.0286648432907926     
   9.0600000000000000E-002   -0.67609299251474786     
   9.0900000000000009E-002   -0.32855108840045766     
   9.1200000000000017E-002    -5.9455005054755963E-004
   9.1499999999999998E-002    0.29444471536546829     
   9.1800000000000007E-002    0.54567713473562673     
   9.2100000000000001E-002    0.74399979147401607     
   9.2399999999999996E-002    0.88344235645757552     
   9.2700000000000005E-002    0.96144635995825445     
   9.3000000000000013E-002    0.97840668264364283     
   9.3300000000000008E-002    0.93946529823465830     
   9.3600000000000003E-002    0.85323585290424753     
   9.3899999999999997E-002    0.73195279619441045     
   9.4200000000000006E-002    0.59197557697999548     
   9.4500000000000001E-002    0.45131767277818285     
   9.4800000000000009E-002    0.32973000688390686     
   9.5100000000000004E-002    0.24657726448069131     
   9.5399999999999999E-002    0.21846021846484318     
   9.5699999999999993E-002    0.25854256983384755     
   9.6000000000000002E-002    0.37360206708408938     
   9.6300000000000011E-002    0.56323064185546623     
   9.6600000000000005E-002    0.81923033080609275     
   9.6900000000000000E-002     1.1247865142622961     
   9.7200000000000009E-002     1.4560578107814439     
   9.7499999999999989E-002     1.7832193669097605     
   9.7799999999999998E-002     2.0730190620746627     
   9.8100000000000007E-002     2.2917914771307122     
   9.8400000000000015E-002     2.4083640975777825     
   9.8699999999999996E-002     2.3976760309696044     
   9.9000000000000005E-002     2.2428918258788491     
   9.9300000000000013E-002     1.9379140462686779     
   9.9599999999999994E-002     1.4886435521215180     
   9.9900000000000003E-002    0.91240860596800932     
  0.10020000000000001         0.23778842852062496     
  0.10049999999999999        -0.49827931072395154     
  0.10080000000000000         -1.2531964977254997     
  0.10110000000000001         -1.9814673980165223     
  0.10140000000000000         -2.6397381255871957     
  0.10170000000000000         -3.1890912574725347     
  0.10200000000000001         -3.5983837238178440     
  0.10230000000000002         -3.8472536240602428     
  0.10260000000000000         -3.9260397602612063     
  0.10290000000000001         -3.8370280897779718     
  0.10320000000000000         -3.5934582349855084     
  0.10350000000000001         -3.2169855172289141     
  0.10380000000000000         -2.7364263985907007     
  0.10410000000000001         -2.1841335655225325     
  0.10440000000000001         -1.5931753177976582     
  0.10470000000000000        -0.99529887798447558     
  0.10500000000000000        -0.41775557948548880     
  0.10530000000000000         0.11758360656893777     
  0.10560000000000000         0.59525175136736697     
  0.10590000000000001          1.0065117079213555     
  0.10620000000000000          1.3481885452825881     
  0.10650000000000001          1.6221951553305225     
  0.10679999999999999          1.8336737500216096     
  0.10710000000000000          1.9895524157430304     
  0.10740000000000001          2.0968449503408810     
  0.10770000000000000          2.1614733137830657     
  0.10800000000000000          2.1875257887630246     
  0.10830000000000001          2.1763739973483065     
  0.10859999999999999          2.1273143663611456     
  0.10890000000000000          2.0377111784105746     
  0.10920000000000001          1.9036318381322563     
  0.10950000000000001          1.7217444459522211     
  0.10979999999999999          1.4894721737935972     
  0.11009999999999999          1.2067318135987559     
  0.11040000000000001         0.87693543340067959     
  0.11070000000000001         0.50666988292359860     
  0.11100000000000000         0.10700250073659237     
  0.11130000000000000        -0.30762381458063781     
  0.11160000000000002        -0.72014661482701814     
  0.11190000000000001         -1.1112742677027510     
  0.11220000000000001         -1.4618217067084882     
  0.11250000000000000         -1.7535577184449667     
  0.11280000000000000         -1.9708013934214383     
  0.11309999999999999         -2.1023126068116706     
  0.11340000000000001         -2.1415491526349730     
  0.11369999999999998         -2.0878398825915556     
  0.11400000000000000         -1.9463293928854852     
  0.11430000000000000         -1.7275452944335312     
  0.11460000000000002         -1.4470045839254311     
  0.11489999999999999         -1.1233748403521553     
  0.11520000000000001        -0.77732528597215578     
  0.11550000000000001        -0.42968628419741783     
  0.11580000000000000         -9.9717511697304237E-002
  0.11609999999999999         0.19622518882881021     
  0.11640000000000002         0.44630531819673619     
  0.11670000000000001         0.64349557799394275     
  0.11700000000000001         0.78618451184453120     
  0.11730000000000000         0.87812384474925764     
  0.11760000000000000         0.92700841711890103     
  0.11789999999999999         0.94422617335941694     
  0.11820000000000001         0.94269391696652427     
  0.11850000000000001         0.93521997095046661     
  0.11880000000000000         0.93359675690955024     
  0.11910000000000000         0.94598432956806877     
  0.11940000000000002         0.97696658425355454     
  0.11970000000000001          1.0265565148902696     
  0.12000000000000001          1.0894084191753377     
  0.12030000000000000          1.1568540532976741     
  0.12060000000000000          1.2165762365020405     
  0.12089999999999999          1.2545762217853633     
  0.12119999999999999          1.2574830184262746     
  0.12150000000000001          1.2132335998310471     
  0.12180000000000001          1.1139934123271771     
  0.12210000000000000         0.95676416352734661     
  0.12239999999999999         0.74418669688249051     
  0.12270000000000002         0.48546805272241028     
  0.12300000000000001         0.19499045948400251     
  0.12330000000000001        -0.10819837519535717     
  0.12360000000000000        -0.40230261193336614     
  0.12390000000000000        -0.66484870659559303     
  0.12419999999999999        -0.87467994547558414     
  0.12450000000000001         -1.0147890073574746     
  0.12480000000000001         -1.0730555259841770     
  0.12509999999999999         -1.0445242096435452     
  0.12540000000000001        -0.93194384594038626     
  0.12570000000000003        -0.74488878872462094     
  0.12600000000000000        -0.50037664141338045     
  0.12630000000000002        -0.22011671243453745     
  0.12659999999999999          7.0627613747509560E-002
  0.12690000000000001         0.34468900132659563     
  0.12719999999999998         0.57670726802482875     
  0.12750000000000000         0.74346175501562672     
  0.12780000000000002         0.82667425061855759     
  0.12809999999999999         0.81454017405127288     
  0.12840000000000001         0.70145192014984059     
  0.12869999999999998         0.48994167329506150     
  0.12900000000000000         0.18920514888805773     
  0.12930000000000003        -0.18482130781502612     
  0.12959999999999999        -0.61005813900458450     
  0.12990000000000002         -1.0607485976672131     
  0.13019999999999998         -1.5074059076680291     
  0.13050000000000000         -1.9194180168767097     
  0.13080000000000003         -2.2666795723592950     
  0.13109999999999999         -2.5206125304785005     
  0.13140000000000002         -2.6572528435112552     
  0.13169999999999998         -2.6575604033870075     
  0.13200000000000001         -2.5096951048764100     
  0.13229999999999997         -2.2104959946310236     
  0.13260000000000000         -1.7650643958420562     
  0.13290000000000002         -1.1887592338650648     
  0.13319999999999999        -0.50582797669609847     
  0.13350000000000001         0.25119024581214322     
  0.13380000000000003          1.0423684270703066     
  0.13410000000000000          1.8234558396881380     
  0.13440000000000002          2.5474794331713517     
  0.13469999999999999          3.1684809262123861     
  0.13500000000000001          3.6445415635790930     
  0.13529999999999998          3.9402619077488299     
  0.13560000000000000          4.0299759598964195     
  0.13590000000000002          3.8997924997216686     
  0.13619999999999999          3.5491893905807648     
  0.13650000000000001          2.9911237287898302     
  0.13680000000000003          2.2520616460316081     
  0.13710000000000000          1.3706267143752147     
  0.13740000000000002         0.39481772051968134     
  0.13769999999999999        -0.62009084799491188     
  0.13800000000000001         -1.6158874252462780     
  0.13829999999999998         -2.5346207983624445     
  0.13860000000000000         -3.3222685350378103     
  0.13890000000000002         -3.9329982390690681     
  0.13919999999999999         -4.3310623817637941     
  0.13950000000000001         -4.4939013200008491     
  0.13979999999999998         -4.4135494890388447     
  0.14010000000000000         -4.0964527736530094     
  0.14040000000000002         -3.5637732073846302     
  0.14069999999999999         -2.8493085317747662     
  0.14100000000000001         -1.9977317135673665     
  0.14130000000000004         -1.0618208785376713     
  0.14160000000000000         -9.8334341916251997E-002
  0.14189999999999997         0.83484567579931457     
  0.14219999999999999          1.6826149478892378     
  0.14250000000000002          2.3963308681158799     
  0.14279999999999998          2.9368267470212084     
  0.14310000000000000          3.2767966236712596     
  0.14339999999999997          3.4021401847682471     
  0.14369999999999999          3.3135695868269894     
  0.14400000000000002          3.0257902497343951     
  0.14429999999999998          2.5665540966649116     
  0.14460000000000001          1.9748856006347877     
  0.14490000000000003          1.2975843028920890     
  0.14520000000000000         0.58632474912793020     
  0.14550000000000002        -0.10662780320604923     
  0.14579999999999999        -0.73237820304934709     
  0.14610000000000001         -1.2486273281757971     
  0.14640000000000003         -1.6236574904643306     
  0.14670000000000000         -1.8381996406272976     
  0.14699999999999996         -1.8866399748965883     
  0.14729999999999999         -1.7777338199653165     
  0.14760000000000001         -1.5327994927980300     
  0.14789999999999998         -1.1838550595358679     
  0.14820000000000000        -0.77058326693173573     