  -1.4999999999999999E-002     0.0000000000000000     
  -1.4700000000000000E-002     0.0000000000000000     
  -1.4400000000000000E-002     0.0000000000000000     
  -1.4100000000000000E-002     0.0000000000000000     
  -1.3800000000000000E-002     0.0000000000000000     
  -1.3500000000000000E-002     0.0000000000000000     
  -1.3200000000000000E-002     0.0000000000000000     
  -1.2899999999999998E-002     0.0000000000000000     
  -1.2600000000000000E-002     0.0000000000000000     
  -1.2299999999999998E-002     0.0000000000000000     
  -1.2000000000000000E-002     0.0000000000000000     
  -1.1699999999999999E-002     0.0000000000000000     
  -1.1399999999999999E-002     0.0000000000000000     
  -1.1099999999999999E-002     0.0000000000000000     
  -1.0799999999999999E-002     0.0000000000000000     
  -1.0499999999999999E-002     0.0000000000000000     
  -1.0199999999999999E-002     0.0000000000000000     
  -9.8999999999999991E-003     0.0000000000000000     
  -9.5999999999999992E-003     0.0000000000000000     
  -9.2999999999999992E-003     0.0000000000000000     
  -8.9999999999999993E-003     0.0000000000000000     
  -8.6999999999999994E-003     0.0000000000000000     
  -8.3999999999999995E-003     0.0000000000000000     
  -8.0999999999999996E-003     0.0000000000000000     
  -7.7999999999999988E-003     0.0000000000000000     
  -7.4999999999999997E-003     0.0000000000000000     
  -7.1999999999999998E-003     0.0000000000000000     
  -6.8999999999999981E-003     0.0000000000000000     
  -6.5999999999999982E-003     0.0000000000000000     
  -6.3000000000000000E-003     0.0000000000000000     
  -6.0000000000000001E-003     0.0000000000000000     
  -5.6999999999999985E-003     0.0000000000000000     
  -5.3999999999999986E-003     0.0000000000000000     
  -5.1000000000000004E-003     0.0000000000000000     
  -4.7999999999999987E-003     0.0000000000000000     
  -4.5000000000000005E-003     0.0000000000000000     
  -4.1999999999999989E-003     0.0000000000000000     
  -3.8999999999999990E-003     0.0000000000000000     
  -3.5999999999999990E-003     0.0000000000000000     
  -3.2999999999999991E-003     0.0000000000000000     
  -2.9999999999999992E-003     0.0000000000000000     
  -2.6999999999999993E-003     0.0000000000000000     
  -2.3999999999999994E-003     0.0000000000000000     
  -2.0999999999999977E-003     0.0000000000000000     
  -1.7999999999999995E-003     0.0000000000000000     
  -1.4999999999999979E-003     0.0000000000000000     
  -1.1999999999999997E-003     0.0000000000000000     
  -8.9999999999999976E-004     0.0000000000000000     
  -5.9999999999999810E-004     0.0000000000000000     
  -2.9999999999999992E-004     0.0000000000000000     
   0.0000000000000000          0.0000000000000000     
   3.0000000000000165E-004     0.0000000000000000     
   5.9999999999999984E-004     0.0000000000000000     
   9.0000000000000149E-004     0.0000000000000000     
   1.2000000000000031E-003     0.0000000000000000     
   1.5000000000000013E-003     0.0000000000000000     
   1.8000000000000030E-003     2.9225456316870588E-043
   2.1000000000000012E-003    -6.0616350249614558E-041
   2.3999999999999994E-003    -1.1771456488849341E-038
   2.7000000000000010E-003    -7.4941184864555432E-038
   2.9999999999999992E-003    -3.0710083131244461E-037
   3.3000000000000008E-003     1.0188863374540598E-036
   3.6000000000000025E-003    -3.0587480515097763E-036
   3.9000000000000007E-003    -1.4557999301006233E-035
   4.2000000000000023E-003     3.5841177855543705E-034
   4.5000000000000005E-003    -1.6866730951605232E-033
   4.7999999999999987E-003    -6.4469866488153549E-033
   5.1000000000000004E-003     9.6300633773610061E-032
   5.4000000000000020E-003    -3.7709609595630470E-031
   5.7000000000000037E-003    -2.5037229059166326E-031
   5.9999999999999984E-003     9.8591379459973568E-030
   6.3000000000000000E-003    -5.0258625463414513E-029
   6.6000000000000017E-003     1.0253834256683866E-028
   6.9000000000000034E-003     2.2124211630827297E-028
   7.2000000000000015E-003    -2.4485786578034343E-027
   7.5000000000000032E-003     9.2880641004170061E-027
   7.8000000000000014E-003    -1.9778148176051535E-026
   8.0999999999999996E-003     1.7562432830952325E-026
   8.4000000000000012E-003     3.0522009331031037E-026
   8.7000000000000029E-003    -1.5186833754637221E-025
   9.0000000000000011E-003     5.0131577764947205E-025
   9.2999999999999992E-003    -2.1265795957108781E-024
   9.6000000000000009E-003     7.0397652357707787E-024
   9.8999999999999991E-003    -4.9059915320688516E-024
   1.0200000000000001E-002    -9.8597671009583248E-023
   1.0500000000000002E-002     7.0621179255250538E-022
   1.0800000000000004E-002    -3.0125814051920273E-021
   1.1099999999999999E-002     9.7624827485828120E-021
   1.1400000000000000E-002    -2.6568299000717011E-020
   1.1700000000000002E-002     6.8091638941773278E-020
   1.2000000000000004E-002    -1.9680965578213436E-019
   1.2300000000000002E-002     7.3375475835605309E-019
   1.2600000000000000E-002    -3.3148416840862459E-018
   1.2900000000000002E-002     1.6173703672850261E-017
   1.3200000000000000E-002    -8.0957787023834083E-017
   1.3500000000000002E-002     4.0642392241483033E-016
   1.3800000000000003E-002    -1.9922212063223068E-015
   1.4100000000000001E-002     9.2204515676548994E-015
   1.4400000000000000E-002    -3.8860217576351285E-014
   1.4700000000000001E-002     1.4303833315815690E-013
   1.4999999999999999E-002    -4.3128330142773711E-013
   1.5300000000000001E-002     9.1342836033827327E-013
   1.5600000000000003E-002    -4.4191901645233494E-013
   1.5899999999999997E-002    -6.5425174141552138E-012
   1.6199999999999999E-002     3.3145904217136524E-011
   1.6500000000000001E-002    -8.1638648734115501E-011
   1.6800000000000002E-002     5.4892448025670628E-011
   1.7100000000000004E-002     3.5210579695248960E-010
   1.7400000000000006E-002    -1.2515554598902439E-009
   1.7700000000000000E-002     9.3980600609032845E-010
   1.8000000000000002E-002     4.4229341363348942E-009
   1.8300000000000004E-002    -1.0728448424633443E-008
   1.8600000000000005E-002    -6.9377322552583281E-009
   1.8900000000000000E-002     4.7752350956851750E-008
   1.9200000000000002E-002     3.7411565812493446E-009
   1.9500000000000003E-002    -1.8031272457189667E-007
   1.9799999999999998E-002    -6.5604621622553810E-008
   2.0100000000000000E-002     5.0565043939582907E-007
   2.0400000000000001E-002     4.6799600302554928E-007
   2.0700000000000003E-002    -1.0058834206348412E-006
   2.0999999999999998E-002    -1.8555021750646788E-006
   2.1299999999999999E-002     1.7037403248739877E-006
   2.1600000000000001E-002     1.0013545850452492E-005
   2.1900000000000003E-002     1.8496968092863412E-005
   2.2200000000000004E-002     2.4398135107941679E-005
   2.2500000000000006E-002     3.3459453396024032E-005
   2.2800000000000001E-002     5.5976909897863334E-005
   2.3100000000000002E-002     9.6771086704254195E-005
   2.3400000000000004E-002     1.5406212950529467E-004
   2.3699999999999999E-002     2.3080400849939447E-004
   2.4000000000000000E-002     3.4380495734217100E-004
   2.4300000000000002E-002     5.1808652240211274E-004
   2.4599999999999997E-002     7.7581086346722853E-004
   2.4900000000000005E-002     1.1381413744887717E-003
   2.5200000000000000E-002     1.6391292276726752E-003
   2.5499999999999995E-002     2.3324442958292516E-003
   2.5800000000000003E-002     3.2826697992449144E-003
   2.6099999999999998E-002     4.5562963845150687E-003
   2.6400000000000007E-002     6.2264852385976351E-003
   2.6700000000000002E-002     8.3819960975555358E-003
   2.6999999999999996E-002     1.1122705601071885E-002
   2.7300000000000005E-002     1.4543756308229440E-002
   2.7600000000000000E-002     1.8723149291384810E-002
   2.7900000000000008E-002     2.3717193326534974E-002
   2.8200000000000003E-002     2.9551312307002267E-002
   2.8499999999999998E-002     3.6201256615297765E-002
   2.8800000000000006E-002     4.3567908206900340E-002
   2.9100000000000001E-002     5.1457757335045998E-002
   2.9400000000000003E-002     5.9573131153068365E-002
   2.9700000000000004E-002     6.7504227176718945E-002
   3.0000000000000006E-002     7.4724787054858632E-002
   3.0300000000000001E-002     8.0596555816120227E-002
   3.0600000000000002E-002     8.4386813842648456E-002
   3.0900000000000004E-002     8.5304199724121732E-002
   3.1199999999999999E-002     8.2553507438487106E-002
   3.1500000000000007E-002     7.5410578758178609E-002
   3.1800000000000002E-002     6.3281771798947756E-002
   3.2099999999999997E-002     4.5783721170248627E-002
   3.2400000000000005E-002     2.2818163990402929E-002
   3.2700000000000000E-002    -5.3560990505914785E-003
   3.3000000000000002E-002    -3.8061575679732507E-002
   3.3300000000000003E-002    -7.4204902869217895E-002
   3.3599999999999998E-002   -0.11230483030271704     
   3.3900000000000000E-002   -0.15053751261331585     
   3.4200000000000001E-002   -0.18682707599341164     
   3.4500000000000003E-002   -0.21898713864281219     
   3.4799999999999998E-002   -0.24489169048295928     
   3.5099999999999999E-002   -0.26264668684063175     
   3.5400000000000001E-002   -0.27076158867271166     
   3.5699999999999996E-002   -0.26829881574826692     
   3.6000000000000004E-002   -0.25497617153877322     
   3.6299999999999999E-002   -0.23124656327336679     
   3.6600000000000008E-002   -0.19834385379280189     
   3.6900000000000002E-002   -0.15817123464681118     
   3.7199999999999997E-002   -0.11316557478697781     
   3.7500000000000006E-002    -6.6188048396425642E-002
   3.7800000000000000E-002    -2.0316404613226906E-002
   3.8100000000000009E-002     2.1398322556775713E-002
   3.8400000000000004E-002     5.6157903920237479E-002
   3.8699999999999998E-002     8.1595943870330950E-002
   3.9000000000000007E-002     9.5952297975930606E-002
   3.9300000000000002E-002     9.8177383162524293E-002
   3.9600000000000003E-002     8.7968414263096109E-002
   3.9900000000000005E-002     6.5814203282180683E-002
   4.0200000000000000E-002     3.2981708213556983E-002
   4.0500000000000001E-002    -8.5981257415844291E-003
   4.0800000000000003E-002    -5.6485714730325036E-002
   4.1100000000000005E-002   -0.10783618177612662     
   4.1399999999999999E-002   -0.15948596250546707     
   4.1700000000000008E-002   -0.20814423652787484     
   4.2000000000000003E-002   -0.25056764736309328     
   4.2299999999999997E-002   -0.28370431366629845     
   4.2600000000000006E-002   -0.30486314699960926     
   4.2900000000000001E-002   -0.31181676514820644     
   4.3200000000000002E-002   -0.30290537409673535     
   4.3500000000000004E-002   -0.27716802429484405     
   4.3799999999999999E-002   -0.23446709760690976     
   4.4100000000000000E-002   -0.17552605373332009     
   4.4400000000000002E-002   -0.10182973507441206     
   4.4700000000000004E-002    -1.5607345888562687E-002
   4.4999999999999998E-002     8.0188520587769624E-002
   4.5300000000000000E-002    0.18210706946655419     
   4.5600000000000002E-002    0.28638402048595224     
   4.5899999999999996E-002    0.38916303154633525     
   4.6200000000000005E-002    0.48673806484983506     
   4.6500000000000000E-002    0.57569076015211573     
   4.6799999999999994E-002    0.65312925856370463     
   4.7100000000000003E-002    0.71683222107165778     
   4.7399999999999998E-002    0.76527995162006590     
   4.7700000000000006E-002    0.79771795364985176     
   4.8000000000000001E-002    0.81402208169162293     
   4.8300000000000010E-002    0.81462879877255068     
   4.8600000000000004E-002    0.80049735710235215     
   4.8899999999999999E-002    0.77278747456087649     
   4.9200000000000008E-002    0.73274750065217853     
   4.9500000000000002E-002    0.68166804688404481     
   4.9800000000000011E-002    0.62069891301262081     
   5.0100000000000006E-002    0.55080369457970046     
   5.0400000000000000E-002    0.47277376926040182     
   5.0700000000000009E-002    0.38721628756333643     
   5.1000000000000004E-002    0.29477205077051788     
   5.1299999999999998E-002    0.19616217849122194     
   5.1600000000000007E-002     9.2229602076198167E-002
   5.1900000000000002E-002    -1.5767462442175972E-002
   5.2200000000000010E-002   -0.12613353075971545     
   5.2500000000000005E-002   -0.23668575055793128     
   5.2800000000000000E-002   -0.34467592596679786     
   5.3099999999999994E-002   -0.44695432035817340     
   5.3400000000000003E-002   -0.54005158596709057     
   5.3699999999999998E-002   -0.62026651168887958     
   5.4000000000000006E-002   -0.68404044474451253     
   5.4300000000000001E-002   -0.72817143521989514     
   5.4599999999999996E-002   -0.75001987777379830     
   5.4900000000000004E-002   -0.74783433055436566     
   5.5199999999999999E-002   -0.72094099220817998     
   5.5499999999999994E-002   -0.66983304595021875     
   5.5800000000000002E-002   -0.59622567959891792     
   5.6099999999999997E-002   -0.50304445533087216     
   5.6400000000000006E-002   -0.39434453747569143     
   5.6700000000000000E-002   -0.27506223597526314     
   5.6999999999999995E-002   -0.15070404881068000     
   5.7300000000000004E-002    -2.7145142834772269E-002
   5.7599999999999998E-002     8.9692889517789115E-002
   5.7900000000000007E-002    0.19422502622097337     
   5.8200000000000002E-002    0.28142034544257716     
   5.8499999999999996E-002    0.34699291038889823     
   5.8800000000000005E-002    0.38772079263124426     
   5.9100000000000000E-002    0.40152519601735515     
   5.9400000000000008E-002    0.38757691527106708     
   5.9700000000000003E-002    0.34640160992172547     
   6.0000000000000012E-002    0.27984856825936977     
   6.0300000000000006E-002    0.19115086793549063     
   6.0600000000000001E-002     8.4725638766588091E-002
   6.0900000000000010E-002    -3.3961595420013646E-002
   6.1200000000000004E-002   -0.15851119726800672     
   6.1500000000000013E-002   -0.28208592841834801     
   6.1800000000000008E-002   -0.39776982993296744     
   6.2100000000000002E-002   -0.49891467347887986     
   6.2399999999999997E-002   -0.57982453466306749     
   6.2700000000000006E-002   -0.63616494610462848     
   6.3000000000000000E-002   -0.66535220215420798     
   6.3300000000000009E-002   -0.66705146312281505     
   6.3600000000000004E-002   -0.64316883525618773     
   6.3899999999999998E-002   -0.59782444108319144     
   6.4199999999999993E-002   -0.53719364844163042     
   6.4500000000000002E-002   -0.46889209743423532     
   6.4800000000000010E-002   -0.40135026794347467     
   6.5100000000000005E-002   -0.34297067153371436     
   6.5400000000000000E-002   -0.30115509032270366     
   6.5700000000000008E-002   -0.28156669813035579     
   6.5999999999999989E-002   -0.28740303296520076     
   6.6299999999999998E-002   -0.31876981301045776     
   6.6600000000000006E-002   -0.37259399513177927     
   6.6900000000000001E-002   -0.44266114063951068     
   6.7199999999999996E-002   -0.51997445178200197     
   6.7500000000000004E-002   -0.59362596000831747     
   6.7800000000000013E-002   -0.65165615459450366     
   6.8099999999999994E-002   -0.68205386629533038     
   6.8400000000000002E-002   -0.67406305922982046     
   6.8700000000000011E-002   -0.61904758083164257     
   6.8999999999999992E-002   -0.51132243020383616     
   6.9300000000000000E-002   -0.34909648995844422     
   6.9600000000000009E-002   -0.13452874536513054     
   6.9900000000000004E-002    0.12627346698210867     
   7.0199999999999999E-002    0.42329658655488889     
   7.0500000000000007E-002    0.74342180610944120     
   7.0800000000000016E-002     1.0710100846507462     
   7.1099999999999997E-002     1.3887710814185228     
   7.1400000000000005E-002     1.6790230326878657     
   7.1700000000000000E-002     1.9245102211994887     
   7.1999999999999995E-002     2.1093827228662088     
   7.2300000000000003E-002     2.2203477204562243     
   7.2600000000000012E-002     2.2472764374858833     
   7.2900000000000006E-002     2.1839912581612451     
   7.3200000000000001E-002     2.0288181839816430     
   7.3499999999999996E-002     1.7846565682287006     
   7.3800000000000004E-002     1.4592909764593975     
   7.4099999999999999E-002     1.0651153732501215     
   7.4400000000000008E-002    0.61842142550599011     
   7.4700000000000003E-002    0.13882721125101286     
   7.5000000000000011E-002   -0.35165583060920813     
   7.5299999999999992E-002   -0.83001213423126297     
   7.5600000000000001E-002    -1.2734446528038446     
   7.5900000000000009E-002    -1.6607641900731585     
   7.6200000000000004E-002    -1.9736764938786591     
   7.6499999999999999E-002    -2.1976919830585042     
   7.6800000000000007E-002    -2.3230580978915714     
   7.7099999999999988E-002    -2.3452342256399223     
   7.7399999999999997E-002    -2.2648425052760053     
   7.7700000000000005E-002    -2.0874396970450331     
   7.8000000000000014E-002    -1.8228572648237913     
   7.8299999999999995E-002    -1.4844155616613866     
   7.8600000000000003E-002    -1.0881484169006923     
   7.8900000000000012E-002   -0.65163022757342937     
   7.9199999999999993E-002   -0.19294076881996308     
   7.9500000000000001E-002    0.26980447164206156     
   7.9800000000000010E-002    0.71910201558500864     
   8.0100000000000018E-002     1.1386786009019252     
   8.0399999999999999E-002     1.5137864114248007     
   8.0700000000000008E-002     1.8315098340869564     
   8.1000000000000003E-002     2.0808844527978345     
   8.1299999999999997E-002     2.2530966026901034     
   8.1600000000000006E-002     2.3420248288592873     
   8.1900000000000014E-002     2.3444684824011532     
   8.2199999999999995E-002     2.2603704712105879     
   8.2500000000000004E-002     2.0930057405398519     
   8.2799999999999999E-002     1.8488742064368240     
   8.3100000000000007E-002     1.5378711545730734     
   8.3400000000000002E-002     1.1729653417867079     
   8.3700000000000011E-002    0.76910444087001439     
   8.4000000000000005E-002    0.34246604053740315     
   8.4300000000000000E-002    -9.0237137694562070E-002
   8.4599999999999995E-002   -0.51283936644357464     
   8.4900000000000003E-002   -0.91073978930472976     
   8.5199999999999998E-002    -1.2716392021055727     
   8.5500000000000007E-002    -1.5860170683975698     
   8.5800000000000001E-002    -1.8469031382649277     
   8.6100000000000010E-002    -2.0498204571354739     
   8.6399999999999991E-002    -2.1925495790156644     
   8.6699999999999999E-002    -2.2743101214617707     
   8.7000000000000008E-002    -2.2951566626208710     
   8.7300000000000003E-002    -2.2553564257775482     
   8.7599999999999997E-002    -2.1551086841255214     
   8.7900000000000006E-002    -1.9947323479183847     
   8.8200000000000014E-002    -1.7746639111057072     
   8.8499999999999995E-002    -1.4958635309736563     
   8.8800000000000004E-002    -1.1610494222972267     
   8.9100000000000013E-002   -0.77517530307461668     
   8.9399999999999993E-002   -0.34602576985334810     
   8.9700000000000002E-002    0.11517587202573837     
   9.0000000000000011E-002    0.59391092645416688     
   9.0299999999999991E-002     1.0722585384133536     
   9.0600000000000000E-002     1.5297870184470064     
   9.0900000000000009E-002     1.9452346525434701     
   9.1200000000000017E-002     2.2974453876158822     
   9.1499999999999998E-002     2.5668859548052723     
   9.1800000000000007E-002     2.7375200340678090     
   9.2100000000000001E-002     2.7980052680938705     
   9.2399999999999996E-002     2.7430007646813395     
   9.2700000000000005E-002     2.5735004216691442     
   9.3000000000000013E-002     2.2966567751075972     
   9.3300000000000008E-002     1.9259179194372229     
   9.3600000000000003E-002     1.4799520229166070     
   9.3899999999999997E-002    0.98113011127546068     
   9.4200000000000006E-002    0.45409477888999605     
   9.4500000000000001E-002    -7.5848661225397795E-002
   9.4800000000000009E-002   -0.58409863311932098     
   9.5100000000000004E-002    -1.0482973726602396     
   9.5399999999999999E-002    -1.4499478359379612     
   9.5699999999999993E-002    -1.7749424236440872     
   9.6000000000000002E-002    -2.0137624314358304     
   9.6300000000000011E-002    -2.1619645816087174     
   9.6600000000000005E-002    -2.2201898518885987     
   9.6900000000000000E-002    -2.1935895074377085     
   9.7200000000000009E-002    -2.0908234418934910     
   9.7499999999999989E-002    -1.9232484664747291     
   9.7799999999999998E-002    -1.7041998197030166     
   9.8100000000000007E-002    -1.4480008358529930     
   9.8400000000000015E-002    -1.1687143768950512     
   9.8699999999999996E-002   -0.87946071288285910     
   9.9000000000000005E-002   -0.59205920671831791     
   9.9300000000000013E-002   -0.31632069188041378     
   9.9599999999999994E-002    -5.9711072090708486E-002
   9.9900000000000003E-002    0.17255788183263981     
  0.10020000000000001         0.37724734235601726     
  0.10049999999999999         0.55266567566378566     
  0.10080000000000000         0.69831728875337629     
  0.10110000000000001         0.81433316643548470     
  0.10140000000000000         0.90073591557080102     
  0.10170000000000000         0.95751985864224443     
  0.10200000000000001         0.98444375720815480     
  0.10230000000000002         0.98049337616031917     
  0.10260000000000000         0.94448202393562752     
  0.10290000000000001         0.87580664650440831     
  0.10320000000000000         0.77499758787527706     
  0.10350000000000001         0.64409509801950016     
  0.10380000000000000         0.48706380663081217     
  0.10410000000000001         0.31070531990325373     
  0.10440000000000001         0.12481332450639093     
  0.10470000000000000         -5.8782469504706225E-002
  0.10500000000000000        -0.22673080875831397     
  0.10530000000000000        -0.36510049772595216     
  0.10560000000000000        -0.46091467163436439     
  0.10590000000000001        -0.50353700533279344     
  0.10620000000000000        -0.48643371036413785     
  0.10650000000000001        -0.40830698540663768     
  0.10679999999999999        -0.27360860954082455     
  0.10710000000000000         -9.2764835715854171E-002
  0.10740000000000001         0.11836285167058494     
  0.10770000000000000         0.33964853673521900     
  0.10800000000000000         0.54877544333477246     
  0.10830000000000001         0.72374093324697220     
  0.10859999999999999         0.84493024877153056     
  0.10890000000000000         0.89718733568540121     
  0.10920000000000001         0.87200826010675736     
  0.10950000000000001         0.76867686764345367     
  0.10979999999999999         0.59394937935557857     
  0.11009999999999999         0.36123928234022273     
  0.11040000000000001          8.9352638792185524E-002
  0.11070000000000001        -0.19994702368641115     
  0.11100000000000000        -0.48496228620547888     
  0.11130000000000000        -0.74663056456225663     
  0.11160000000000002        -0.97057006847506710     
  0.11190000000000001         -1.1487019800997331     
  0.11220000000000001         -1.2801575239662633     
  0.11250000000000000         -1.3707123001615253     
  0.11280000000000000         -1.4309594401397321     
  0.11309999999999999         -1.4743019916683253     
  0.11340000000000001         -1.5143765481249536     
  0.11369999999999998         -1.5621156081686371     
  0.11400000000000000         -1.6231717761164735     
  0.11430000000000000         -1.6962573319189223     
  0.11460000000000002         -1.7728063996643602     
  0.11489999999999999         -1.8373819705256320     
  0.11520000000000001         -1.8691973915767899     
  0.11550000000000001         -1.8448014305319056     
  0.11580000000000000         -1.7412799917707895     
  0.11609999999999999         -1.5395257440394008     
  0.11640000000000002         -1.2272948336445051     
  0.11670000000000001        -0.80146990534555773     
  0.11700000000000001        -0.26911081509684592     
  0.11730000000000000         0.35268036230459227     
  0.11760000000000000          1.0375839531551971     
  0.11789999999999999          1.7524233106069151     
  0.11820000000000001          2.4606652856631550     
  0.11850000000000001          3.1256365722690642     
  0.11880000000000000          3.7135430241905514     
  0.11910000000000000          4.1966853824479973     
  0.11940000000000002          4.5558084894493298     
  0.11970000000000001          4.7809239206736667     
  0.12000000000000001          4.8714146297725804     
  0.12030000000000000          4.8352131146269084     
  0.12060000000000000          4.6873703108262870     
  0.12089999999999999          4.4475508394741867     
  0.12119999999999999          4.1373158462647606     
  0.12150000000000001          3.7783245975662263     
  0.12180000000000001          3.3902167252052000     
  0.12210000000000000          2.9887314297281629     
  0.12239999999999999          2.5847752215431345     
  0.12270000000000002          2.1840312025727524     
  0.12300000000000001          1.7872468323374422     
  0.12330000000000001          1.3906467822759248     
  0.12360000000000000         0.98650776509065796     
  0.12390000000000000         0.56389312735022379     
  0.12419999999999999         0.10980927974525864     
  0.12450000000000001        -0.38953214643732625     
  0.12480000000000001        -0.94766571123941301     
  0.12509999999999999         -1.5772380584879520     
  0.12540000000000001         -2.2883792853070832     
  0.12570000000000003         -3.0870291962878884     
  0.12600000000000000         -3.9738309193380505     
  0.12630000000000002         -4.9426919831016454     
  0.12659999999999999         -5.9789913664395851     
  0.12690000000000001         -7.0580406586967426     
  0.12719999999999998         -8.1450996006503491     
  0.12750000000000000         -9.1954410893328262     
  0.12780000000000002         -10.154956905866433     
  0.12809999999999999         -10.962520307227473     
  0.12840000000000001         -11.553002153024011     
  0.12869999999999998         -11.861385260089026     
  0.12900000000000000         -11.827691157260215     
  0.12930000000000003         -11.401984510500800     
  0.12959999999999999         -10.549649960737158     
  0.12990000000000002         -9.2555849171977513     
  0.13019999999999998         -7.5269562635280689     
  0.13050000000000000         -5.3957465454284987     
  0.13080000000000003         -2.9185472709104481     
  0.13109999999999999        -0.17451215029054201     
  0.13140000000000002          2.7379158971816078     
  0.13169999999999998          5.7062226104967593     
  0.13200000000000001          8.6102073519661069     
  0.13229999999999997          11.328561144025056     
  0.13260000000000000          13.745641243937804     
  0.13290000000000002          15.758472259430032     
  0.13319999999999999          17.282887431313092     
  0.13350000000000001          18.257494208807422     
  0.13380000000000003          18.645774559951214     
  0.13410000000000000          18.438202904715261     
  0.13440000000000002          17.652283012841146     
  0.13469999999999999          16.329640036489810     
  0.13500000000000001          14.532317686758521     
  0.13529999999999998          12.338437659443754     
  0.13560000000000000          9.8380355510341868     
  0.13590000000000002          7.1271386977752922     
  0.13619999999999999          4.3023510669508775     
  0.13650000000000001          1.4571207812439635     
  0.13680000000000003         -1.3215314580357165     
  0.13710000000000000         -3.9555561509691533     
  0.13740000000000002         -6.3773890748082209     
  0.13769999999999999         -8.5294091888646371     
  0.13800000000000001         -10.363537308047876     
  0.13829999999999998         -11.841369190722196     
  0.13860000000000000         -12.932550485754733     
  0.13890000000000002         -13.613663322100136     
  0.13919999999999999         -13.869482939986865     
  0.13950000000000001         -13.693714231587801     
  0.13979999999999998         -13.090440862030022     
  0.14010000000000000         -12.075989407311365     
  0.14040000000000002         -10.681002257834516     
  0.14069999999999999         -8.9529495996759145     
  0.14100000000000001         -6.9564216444398443     
  0.14130000000000004         -4.7725088184953961     
  0.14160000000000000         -2.4972410478025195     
  0.14189999999999997        -0.23666045917363732     
  0.14219999999999999          1.8981814214828454     
  0.14250000000000002          3.7970864955987902     
  0.14279999999999998          5.3588747026837584     
  0.14310000000000000          6.4997339800693528     
  0.14339999999999997          7.1594517873429293     
  0.14369999999999999          7.3058564468056097     
  0.14400000000000002          6.9383596773172105     
  0.14429999999999998          6.0898327203387623     
  0.14460000000000001          4.8243705555702965     
  0.14490000000000003          3.2322525689675157     
  0.14520000000000000          1.4246341755933492     
  0.14550000000000002        -0.47419453257161392     
  0.14579999999999999         -2.3361300489045980     
  0.14610000000000001         -4.0377433334737436     
  0.14640000000000003         -5.4678810647606628     
  0.14670000000000000         -6.5357971264538950     
  0.14699999999999996         -7.1765278414023017     
  0.14729999999999999         -7.3534919324711296     
  0.14760000000000001         -7.0599945633175372     
  0.14789999999999998         -6.3192647891091989     
  0.14820000000000000         -5.1821578032535296     