  -1.4999999999999999E-002     0.0000000000000000     
  -1.4700000000000000E-002     4.3383761686896725E-009
  -1.4400000000000000E-002     2.5688441996718176E-007
  -1.4100000000000000E-002     1.2111120521409474E-006
  -1.3800000000000000E-002    -4.0209329416506702E-006
  -1.3500000000000000E-002    -1.2766146885040182E-005
  -1.3200000000000000E-002     1.3228780344663852E-005
  -1.2899999999999998E-002     2.5377423751440232E-005
  -1.2600000000000000E-002    -1.1653778438232555E-005
  -1.2299999999999998E-002     4.8523483207766302E-006
  -1.2000000000000000E-002    -1.3632214320313965E-005
  -1.1699999999999999E-002    -6.2612844996882161E-005
  -1.1399999999999999E-002    -9.6122887667747730E-006
  -1.1099999999999999E-002     3.4755551296050811E-005
  -1.0799999999999999E-002     4.1472606700893380E-005
  -1.0499999999999999E-002     5.6255354834390050E-005
  -1.0199999999999999E-002     1.6274526078024915E-004
  -9.8999999999999991E-003     3.0493483106385134E-004
  -9.5999999999999992E-003     4.4380665653294529E-004
  -9.2999999999999992E-003     8.4875137923203067E-004
  -8.9999999999999993E-003     1.4089852129802129E-003
  -8.6999999999999994E-003     1.9472048852557571E-003
  -8.3999999999999995E-003     2.9221074199053437E-003
  -8.0999999999999996E-003     4.5865876178198296E-003
  -7.7999999999999988E-003     6.7403948981962156E-003
  -7.4999999999999997E-003     1.0025568190312816E-002
  -7.1999999999999998E-003     1.5080085809519469E-002
  -6.8999999999999981E-003     2.1666466961430215E-002
  -6.5999999999999982E-003     3.0346992967501738E-002
  -6.3000000000000000E-003     4.2297738956259545E-002
  -6.0000000000000001E-003     5.8464083031305875E-002
  -5.6999999999999985E-003     7.9144178704019227E-002
  -5.3999999999999986E-003    0.10501308582033270     
  -5.1000000000000004E-003    0.13765835556838404     
  -4.7999999999999987E-003    0.17672048247815295     
  -4.5000000000000005E-003    0.22123118897918465     
  -4.1999999999999989E-003    0.27043318324138305     
  -3.8999999999999990E-003    0.32148506721197023     
  -3.5999999999999990E-003    0.36986889824130403     
  -3.2999999999999991E-003    0.40842150939428379     
  -2.9999999999999992E-003    0.42811136660006666     
  -2.6999999999999993E-003    0.41736214540194000     
  -2.3999999999999994E-003    0.36038180395392766     
  -2.0999999999999977E-003    0.23947481120253961     
  -1.7999999999999995E-003     3.4806023217103285E-002
  -1.4999999999999979E-003   -0.27458715568438707     
  -1.1999999999999997E-003   -0.70905464507323812     
  -8.9999999999999976E-004    -1.2861285103145961     
  -5.9999999999999810E-004    -2.0165867613052550     
  -2.9999999999999992E-004    -2.9025931063070556     
   0.0000000000000000         -3.9331910199149980     
   3.0000000000000165E-004    -5.0813569489617354     
   5.9999999999999984E-004    -6.3008350672884701     
   9.0000000000000149E-004    -7.5235237314778480     
   1.2000000000000031E-003    -8.6608370891993829     
   1.5000000000000013E-003    -9.6032046384746543     
   1.8000000000000030E-003    -10.225184352387984     
   2.1000000000000012E-003    -10.392759241112826     
   2.3999999999999994E-003    -9.9710463781875145     
   2.7000000000000010E-003    -8.8377313102503994     
   2.9999999999999992E-003    -6.8949522694975478     
   3.3000000000000008E-003    -4.0847983351458126     
   3.6000000000000025E-003   -0.40360697839209109     
   3.9000000000000007E-003     4.0889305531497548     
   4.2000000000000023E-003     9.2580336765096671     
   4.5000000000000005E-003     14.893404869168503     
   4.7999999999999987E-003     20.712770363498336     
   5.1000000000000004E-003     26.370050333907582     
   5.4000000000000020E-003     31.477649603063981     
   5.7000000000000037E-003     35.628578117630568     
   5.9999999999999984E-003     38.427352857159313     
   6.3000000000000000E-003     39.525573701321640     
   6.6000000000000017E-003     38.653079970171611     
   6.9000000000000034E-003     35.651641831081292     
   7.2000000000000015E-003     30.495651217619894     
   7.5000000000000032E-003     23.310037555769320     
   7.8000000000000014E-003     14.372905627765070     
   8.0999999999999996E-003     4.1018255505457430     
   8.4000000000000012E-003    -6.9649593770237832     
   8.7000000000000029E-003    -18.206194226532375     
   9.0000000000000011E-003    -28.963144667698447     
   9.2999999999999992E-003    -38.587250167402900     
   9.6000000000000009E-003    -46.489822820151431     
   9.8999999999999991E-003    -52.188801233183597     
   1.0200000000000001E-002    -55.348629372174663     
   1.0500000000000002E-002    -55.801559738693150     
   1.0800000000000004E-002    -53.560997182079156     
   1.1099999999999999E-002    -48.817760495341851     
   1.1400000000000000E-002    -41.919566973128475     
   1.1700000000000002E-002    -33.341922455939248     
   1.2000000000000004E-002    -23.645671377828794     
   1.2300000000000002E-002    -13.431874618450070     
   1.2600000000000000E-002    -3.2996723560805532     
   1.2900000000000002E-002     6.2039945972483492     
   1.3200000000000000E-002     14.611535903887997     
   1.3500000000000002E-002     21.563896996395808     
   1.3800000000000003E-002     26.831921382471009     
   1.4100000000000001E-002     30.309805577156698     
   1.4400000000000000E-002     32.016655499307959     
   1.4700000000000001E-002     32.079788587205407     
   1.4999999999999999E-002     30.710405565296991     
   1.5300000000000001E-002     28.183040669963393     
   1.5600000000000003E-002     24.802890673433541     
   1.5899999999999997E-002     20.882873293155292     
   1.6199999999999999E-002     16.723054530404657     
   1.6500000000000001E-002     12.585137880530157     
   1.6800000000000002E-002     8.6852707679611569     
   1.7100000000000004E-002     5.1864671277836472     
   1.7400000000000006E-002     2.1914808348202612     
   1.7700000000000000E-002   -0.24851424914132253     
   1.8000000000000002E-002    -2.1279709034032295     
   1.8300000000000004E-002    -3.4807650165350204     
   1.8600000000000005E-002    -4.3654030230118748     
   1.8900000000000000E-002    -4.8564646436567305     
   1.9200000000000002E-002    -5.0351993584846788     
   1.9500000000000003E-002    -4.9772602462509301     
   1.9799999999999998E-002    -4.7526522492976424     
   2.0100000000000000E-002    -4.4216614138600070     
   2.0400000000000001E-002    -4.0281591424534131     
   2.0700000000000003E-002    -3.6073147978506035     
   2.0999999999999998E-002    -3.1839651575169183     
   2.1299999999999999E-002    -2.7739519429614274     
   2.1600000000000001E-002    -2.3925022330102887     
   2.1900000000000003E-002    -2.0453416485659353     
   2.2200000000000004E-002    -1.7376326665050417     
   2.2500000000000006E-002    -1.4765932900216860     
   2.2800000000000001E-002    -1.2610712416440388     
   2.3100000000000002E-002    -1.0913930353064112     
   2.3400000000000004E-002   -0.96386097736858412     
   2.3699999999999999E-002   -0.86910974684591424     
   2.4000000000000000E-002   -0.80041373403024663     
   2.4300000000000002E-002   -0.74597264904612659     
   2.4599999999999997E-002   -0.69471325915585513     
   2.4900000000000005E-002   -0.63955858543914224     
   2.5200000000000000E-002   -0.57277093100807397     
   2.5499999999999995E-002   -0.49451549010827461     
   2.5800000000000003E-002   -0.40744967658250547     
   2.6099999999999998E-002   -0.31543229512640963     
   2.6400000000000007E-002   -0.22750034939122188     
   2.6700000000000002E-002   -0.15284019739217264     
   2.6999999999999996E-002    -9.7328514583778308E-002
   2.7300000000000005E-002    -6.5616371189662820E-002
   2.7600000000000000E-002    -5.8392401924623978E-002
   2.7900000000000008E-002    -7.1780285483612996E-002
   2.8200000000000003E-002   -0.10101566620141686     
   2.8499999999999998E-002   -0.13686833925832945     
   2.8800000000000006E-002   -0.17004860740710509     
   2.9100000000000001E-002   -0.19502900393215442     
   2.9400000000000003E-002   -0.20594648782280908     
   2.9700000000000004E-002   -0.20243826078223018     
   3.0000000000000006E-002   -0.18736908622493054     
   3.0300000000000001E-002   -0.16321719158399484     
   3.0600000000000002E-002   -0.13861911186134224     
   3.0900000000000004E-002   -0.11862807715553224     
   3.1199999999999999E-002   -0.10662969119503481     
   3.1500000000000007E-002   -0.10661000006038751     
   3.1800000000000002E-002   -0.11505119689749482     
   3.2099999999999997E-002   -0.12967283003896676     
   3.2400000000000005E-002   -0.14510493783981890     
   3.2700000000000000E-002   -0.15362627431733883     
   3.3000000000000002E-002   -0.15140373878805216     
   3.3300000000000003E-002   -0.13510623605895616     
   3.3599999999999998E-002   -0.10409706899010160     
   3.3900000000000000E-002    -6.2534757259439813E-002
   3.4200000000000001E-002    -1.4509812175620149E-002
   3.4500000000000003E-002     3.2912315981414662E-002
   3.4799999999999998E-002     7.3679897034108890E-002
   3.5099999999999999E-002    0.10273187896404994     
   3.5400000000000001E-002    0.11734627393414267     
   3.5699999999999996E-002    0.11978759641017984     
   3.6000000000000004E-002    0.11348502122179367     
   3.6299999999999999E-002    0.10329129798670732     
   3.6600000000000008E-002     9.6549503389627020E-002
   3.6900000000000002E-002    0.10018443857680188     
   3.7199999999999997E-002    0.11658443196524267     
   3.7500000000000006E-002    0.14623228159018478     
   3.7800000000000000E-002    0.18838339109115584     
   3.8100000000000009E-002    0.23542890677354400     
   3.8400000000000004E-002    0.27964499050183250     
   3.8699999999999998E-002    0.31408309605349732     
   3.9000000000000007E-002    0.33017989823738642     
   3.9300000000000002E-002    0.32288333694962568     
   3.9600000000000003E-002    0.29004353224093876     
   3.9900000000000005E-002    0.23521871768451744     
   4.0200000000000000E-002    0.16411277490843809     
   4.0500000000000001E-002     8.1695196760722094E-002
   4.0800000000000003E-002     5.7128639104212402E-005
   4.1100000000000005E-002    -7.1763614126168995E-002
   4.1399999999999999E-002   -0.12918998345197438     
   4.1700000000000008E-002   -0.16648734950515207     
   4.2000000000000003E-002   -0.18173543727350427     
   4.2299999999999997E-002   -0.17635553479479493     
   4.2600000000000006E-002   -0.15477638691307924     
   4.2900000000000001E-002   -0.12130127819736039     
   4.3200000000000002E-002    -7.9377048600768912E-002
   4.3500000000000004E-002    -3.4415311854806861E-002
   4.3799999999999999E-002     1.0982235048404768E-002
   4.4100000000000000E-002     5.7462102748082423E-002
   4.4400000000000002E-002    0.10399486666439120     
   4.4700000000000004E-002    0.15002665037377871     
   4.4999999999999998E-002    0.19624946820556760     
   4.5300000000000000E-002    0.24130686795007200     
   4.5600000000000002E-002    0.28128312277646628     
   4.5899999999999996E-002    0.31109471634076274     
   4.6200000000000005E-002    0.32536511547243679     
   4.6500000000000000E-002    0.31860583468940401     
   4.6799999999999994E-002    0.28522926561290557     
   4.7100000000000003E-002    0.22322360153952928     
   4.7399999999999998E-002    0.13510603549599384     
   4.7700000000000006E-002     2.5311383660641097E-002
   4.8000000000000001E-002    -9.5789227874579441E-002
   4.8300000000000010E-002   -0.21501215314705888     
   4.8600000000000004E-002   -0.31953894348825201     
   4.8899999999999999E-002   -0.39512770909816392     
   4.9200000000000008E-002   -0.43034964614516019     
   4.9500000000000002E-002   -0.41868117480495509     
   4.9800000000000011E-002   -0.36015153060283533     
   5.0100000000000006E-002   -0.26072964177041835     
   5.0400000000000000E-002   -0.13131996968678253     
   5.0700000000000009E-002     1.0686947391670292E-002
   5.1000000000000004E-002    0.14602877630919348     
   5.1299999999999998E-002    0.25655407300425176     
   5.1600000000000007E-002    0.32612178351087157     
   5.1900000000000002E-002    0.34404108412880285     
   5.2200000000000010E-002    0.30750766567133914     
   5.2500000000000005E-002    0.22183976749189860     
   5.2800000000000000E-002     9.9106086348648814E-002
   5.3099999999999994E-002    -4.1333300243315559E-002
   5.3400000000000003E-002   -0.17607229184836698     
   5.3699999999999998E-002   -0.28132730419008889     
   5.4000000000000006E-002   -0.33661517414500935     
   5.4300000000000001E-002   -0.32667794645075560     
   5.4599999999999996E-002   -0.24363813667623632     
   5.4900000000000004E-002    -9.0201862773603897E-002
   5.5199999999999999E-002    0.11932719028481363     
   5.5499999999999994E-002    0.36456937423140012     
   5.5800000000000002E-002    0.61669196894511413     
   5.6099999999999997E-002    0.84254482918834428     
   5.6400000000000006E-002     1.0101618036864368     
   5.6700000000000000E-002     1.0902476849702714     
   5.6999999999999995E-002     1.0614485120266917     
   5.7300000000000004E-002    0.91293066320345306     
   5.7599999999999998E-002    0.64471809934543312     
   5.7900000000000007E-002    0.27197427239061844     
   5.8200000000000002E-002   -0.18038302059025424     
   5.8499999999999996E-002   -0.67656004177029050     
   5.8800000000000005E-002    -1.1722916531405607     
   5.9100000000000000E-002    -1.6231658809023621     
   5.9400000000000008E-002    -1.9840970546814800     
   5.9700000000000003E-002    -2.2170825625652877     
   6.0000000000000012E-002    -2.2950964654824362     
   6.0300000000000006E-002    -2.2024553500333131     
   6.0600000000000001E-002    -1.9403741972955129     
   6.0900000000000010E-002    -1.5260286823922511     
   6.1200000000000004E-002   -0.98918310094847595     
   6.1500000000000013E-002   -0.37176872631999242     
   6.1800000000000008E-002    0.27615076991670878     
   6.2100000000000002E-002    0.90312972288147131     
   6.2399999999999997E-002     1.4602122727652656     
   6.2700000000000006E-002     1.9056332648146259     
   6.3000000000000000E-002     2.2090271118363511     
   6.3300000000000009E-002     2.3531032211268124     
   6.3600000000000004E-002     2.3366718844115253     
   6.3899999999999998E-002     2.1714544751958553     
   6.4199999999999993E-002     1.8793516484968582     
   6.4500000000000002E-002     1.4948044002866461     
   6.4800000000000010E-002     1.0521932870948039     
   6.5100000000000005E-002    0.58780919455530423     
   6.5400000000000000E-002    0.13771588432309093     
   6.5700000000000008E-002   -0.27194383724723742     
   6.5999999999999989E-002   -0.61991981123484929     
   6.6299999999999998E-002   -0.89343521580935070     
   6.6600000000000006E-002    -1.0874928577482539     
   6.6900000000000001E-002    -1.2021900720264327     
   6.7199999999999996E-002    -1.2455026164069016     
   6.7500000000000004E-002    -1.2250820591740326     
   6.7800000000000013E-002    -1.1507517230023296     
   6.8099999999999994E-002    -1.0362461876451836     
   6.8400000000000002E-002   -0.89092064064318099     
   6.8700000000000011E-002   -0.72431516303134447     
   6.8999999999999992E-002   -0.54738818832148051     
   6.9300000000000000E-002   -0.36933277909925788     
   6.9600000000000009E-002   -0.19737540255072447     
   6.9900000000000004E-002    -3.9429458405745813E-002
   7.0199999999999999E-002     9.7326445150948987E-002
   7.0500000000000007E-002    0.20784579500217809     
   7.0800000000000016E-002    0.28896750702444274     
   7.1099999999999997E-002    0.34032441686772325     
   7.1400000000000005E-002    0.36177514227389179     
   7.1700000000000000E-002    0.35811720174197992     
   7.1999999999999995E-002    0.33595297232436888     
   7.2300000000000003E-002    0.29976332283115920     
   7.2600000000000012E-002    0.25848698365257133     
   7.2900000000000006E-002    0.21936723060654087     
   7.3200000000000001E-002    0.18494974838149472     
   7.3499999999999996E-002    0.15995586600349193     
   7.3800000000000004E-002    0.14492937123452371     
   7.4099999999999999E-002    0.13768836132336165     
   7.4400000000000008E-002    0.13605583617384034     
   7.4700000000000003E-002    0.13516795191818748     
   7.5000000000000011E-002    0.13318994325046224     
   7.5299999999999992E-002    0.12626559811276725     
   7.5600000000000001E-002    0.11232541322369144     
   7.5900000000000009E-002     9.3805132447158920E-002
   7.6200000000000004E-002     7.0621667044421021E-002
   7.6499999999999999E-002     4.5296185560049176E-002
   7.6800000000000007E-002     2.2624066579580198E-002
   7.7099999999999988E-002     3.4292906045435109E-003
   7.7399999999999997E-002    -1.0172016597171561E-002
   7.7700000000000005E-002    -1.7148532882211617E-002
   7.8000000000000014E-002    -1.8311936469876292E-002
   7.8299999999999995E-002    -1.5642155824733536E-002
   7.8600000000000003E-002    -1.1733803668503471E-002
   7.8900000000000012E-002    -8.5209160416126993E-003
   7.9199999999999993E-002    -7.5288194734604514E-003
   7.9500000000000001E-002    -9.9460307753625864E-003
   7.9800000000000010E-002    -1.6020110459685051E-002
   8.0100000000000018E-002    -2.3294775936003150E-002
   8.0399999999999999E-002    -3.0689436957459827E-002
   8.0700000000000008E-002    -3.6662493605789236E-002
   8.1000000000000003E-002    -3.7230552308318454E-002
   8.1299999999999997E-002    -3.3591394617438590E-002
   8.1600000000000006E-002    -2.5177069938184832E-002
   8.1900000000000014E-002    -1.1996144771462620E-002
   8.2199999999999995E-002     2.0853713001833707E-003
   8.2500000000000004E-002     1.6141238873045489E-002
   8.2799999999999999E-002     2.6395017234842635E-002
   8.3100000000000007E-002     3.1084381295281027E-002
   8.3400000000000002E-002     3.0526824596104153E-002
   8.3700000000000011E-002     2.1937560224855827E-002
   8.4000000000000005E-002     8.7923902985519477E-003
   8.4300000000000000E-002    -7.3963167682290498E-003
   8.4599999999999995E-002    -2.5382122550015505E-002
   8.4900000000000003E-002    -4.0503409889384882E-002
   8.5199999999999998E-002    -5.2082674165525887E-002
   8.5500000000000007E-002    -5.8857554233935953E-002
   8.5800000000000001E-002    -5.9876428188548825E-002
   8.6100000000000010E-002    -5.6417160344727865E-002
   8.6399999999999991E-002    -4.9800820659269898E-002
   8.6699999999999999E-002    -4.2163069605550448E-002
   8.7000000000000008E-002    -3.4715636431980543E-002
   8.7300000000000003E-002    -2.8720366338378208E-002
   8.7599999999999997E-002    -2.5393737979513546E-002
   8.7900000000000006E-002    -2.4257586154224318E-002
   8.8200000000000014E-002    -2.4052529694293917E-002
   8.8499999999999995E-002    -2.4567998421584809E-002
   8.8800000000000004E-002    -2.5169996246529523E-002
   8.9100000000000013E-002    -2.3484438278080621E-002
   8.9399999999999993E-002    -2.0483312538659707E-002
   8.9700000000000002E-002    -1.7314954573437367E-002
   9.0000000000000011E-002    -1.3343600757866227E-002
   9.0299999999999991E-002    -1.0893297968789670E-002
   9.0600000000000000E-002    -1.1306273834538624E-002
   9.0900000000000009E-002    -1.5376887083863434E-002
   9.1200000000000017E-002    -2.3580363747749376E-002
   9.1499999999999998E-002    -3.4781520281077227E-002
   9.1800000000000007E-002    -4.9099383412309405E-002
   9.2100000000000001E-002    -6.4650101727693379E-002
   9.2399999999999996E-002    -7.8120871210697274E-002
   9.2700000000000005E-002    -8.9749655968572761E-002
   9.3000000000000013E-002    -9.7140013810816925E-002
   9.3300000000000008E-002    -9.9347293052129845E-002
   9.3600000000000003E-002    -9.7535647034510758E-002
   9.3899999999999997E-002    -9.1583705713332256E-002
   9.4200000000000006E-002    -8.3148664587702245E-002
   9.4500000000000001E-002    -7.3332002809306171E-002
   9.4800000000000009E-002    -6.2990902119734571E-002
   9.5100000000000004E-002    -5.4126666864372133E-002
   9.5399999999999999E-002    -4.6082748252106155E-002
   9.5699999999999993E-002    -3.8530240169391543E-002
   9.6000000000000002E-002    -3.1790832707073308E-002
   9.6300000000000011E-002    -2.4275020744541201E-002
   9.6600000000000005E-002    -1.5266984096509758E-002
   9.6900000000000000E-002    -4.5712455577844044E-003
   9.7200000000000009E-002     7.6643288694567208E-003
   9.7499999999999989E-002     2.1605782708081223E-002
   9.7799999999999998E-002     3.5324875772664965E-002
   9.8100000000000007E-002     4.8164137349421036E-002
   9.8400000000000015E-002     5.8957588414542468E-002
   9.8699999999999996E-002     6.6894434574128150E-002
   9.9000000000000005E-002     7.1904070420159519E-002
   9.9300000000000013E-002     7.3819107323507632E-002
   9.9599999999999994E-002     7.4232367837067451E-002
   9.9900000000000003E-002     7.3945057692666377E-002
  0.10020000000000001          7.3584933048300438E-002
  0.10049999999999999          7.6174858530044229E-002
  0.10080000000000000          8.0897848191924304E-002
  0.10110000000000001          8.7641241845899470E-002
  0.10140000000000000          9.7570042128856144E-002
  0.10170000000000000         0.10813746902351511     
  0.10200000000000001         0.11841658845041733     
  0.10230000000000002         0.12674645716716101     
  0.10260000000000000         0.13228670919806421     
  0.10290000000000001         0.13421395117602514     
  0.10320000000000000         0.13170480442606056     
  0.10350000000000001         0.12590960876573001     
  0.10380000000000000         0.11768700657351440     
  0.10410000000000001         0.10719065856624915     
  0.10440000000000001          9.5972736793201424E-002
  0.10470000000000000          8.5436334730058947E-002
  0.10500000000000000          7.4656470118296542E-002
  0.10530000000000000          6.4115679860669725E-002
  0.10560000000000000          5.4254747663356785E-002
  0.10590000000000001          4.3410826774465547E-002
  0.10620000000000000          3.1057598795782931E-002
  0.10650000000000001          1.7305293139507062E-002
  0.10679999999999999          1.8233973225213708E-003
  0.10710000000000000         -1.4146532152694128E-002
  0.10740000000000001         -3.0640942699116300E-002
  0.10770000000000000         -4.5008376461667984E-002
  0.10800000000000000         -5.5749770901391514E-002
  0.10830000000000001         -6.2783987313855691E-002
  0.10859999999999999         -6.3937307523719511E-002
  0.10890000000000000         -5.9094199061764545E-002
  0.10920000000000001         -4.9687442197658478E-002
  0.10950000000000001         -3.6192197629236152E-002
  0.10979999999999999         -2.0291760338751165E-002
  0.11009999999999999         -4.4100334487359198E-003
  0.11040000000000001          9.6864392885138272E-003
  0.11070000000000001          2.0980103963621613E-002
  0.11100000000000000          2.9162800848350823E-002
  0.11130000000000000          3.3085659790507656E-002
  0.11160000000000002          3.3315759448215777E-002
  0.11190000000000001          3.1864155033627120E-002
  0.11220000000000001          2.8962278410542164E-002
  0.11250000000000000          2.5114060894763809E-002
  0.11280000000000000          2.1808832639701809E-002
  0.11309999999999999          1.8969645811239853E-002
  0.11340000000000001          1.5323890897658102E-002
  0.11369999999999998          1.0617121254228524E-002
  0.11400000000000000          4.2711100994975316E-003
  0.11430000000000000         -4.5656903525488407E-003
  0.11460000000000002         -1.6377611199444263E-002
  0.11489999999999999         -3.0663593060105319E-002
  0.11520000000000001         -4.6205169332746217E-002
  0.11550000000000001         -6.1969827247489513E-002
  0.11580000000000000         -7.6602913331366720E-002
  0.11609999999999999         -8.7588578719529353E-002
  0.11640000000000002         -9.4688103010992355E-002
  0.11670000000000001         -9.7549967750992742E-002
  0.11700000000000001         -9.5400735540235052E-002
  0.11730000000000000         -8.9838779575537139E-002
  0.11760000000000000         -8.2540726440358300E-002
  0.11789999999999999         -7.5805072913663882E-002
  0.11820000000000001         -7.0766840563836017E-002
  0.11850000000000001         -6.8696949493749243E-002
  0.11880000000000000         -7.1447129863716319E-002
  0.11910000000000000         -7.8224192898806000E-002
  0.11940000000000002         -8.7776634617245219E-002
  0.11970000000000001         -9.9241312689912986E-002
  0.12000000000000001        -0.11088741984730512     
  0.12030000000000000        -0.12086511840137298     
  0.12060000000000000        -0.12753727735838935     
  0.12089999999999999        -0.13127806478007781     
  0.12119999999999999        -0.13165075745882604     
  0.12150000000000001        -0.12905813393336268     
  0.12180000000000001        -0.12557078510737718     
  0.12210000000000000        -0.12193447696473161     
  0.12239999999999999        -0.11913175488880018     
  0.12270000000000002        -0.11734236417892357     
  0.12300000000000001        -0.11736234726987181     
  0.12330000000000001        -0.11774354952395880     
  0.12360000000000000        -0.11624587941448693     
  0.12390000000000000        -0.11249360393523800     
  0.12419999999999999        -0.10431098204671159     
  0.12450000000000001         -9.0695716952183508E-002
  0.12480000000000001         -7.1685672415863058E-002
  0.12509999999999999         -4.8020102523265190E-002
  0.12540000000000001         -2.1418876995060565E-002
  0.12570000000000003          6.7773884248314787E-003
  0.12600000000000000          3.3468008801900782E-002
  0.12630000000000002          5.6388766522348116E-002
  0.12659999999999999          7.4901507228894798E-002
  0.12690000000000001          8.7416641992491953E-002
  0.12719999999999998          9.4604872196124165E-002
  0.12750000000000000          9.7006610807928551E-002
  0.12780000000000002          9.5873696995912458E-002
  0.12809999999999999          9.3843293843154915E-002
  0.12840000000000001          9.2003670421087161E-002
  0.12869999999999998          9.1191296005245059E-002
  0.12900000000000000          9.2269990923512540E-002
  0.12930000000000003          9.5289770944591540E-002
  0.12959999999999999          9.9275667878747545E-002
  0.12990000000000002         0.10297234817618857     
  0.13019999999999998         0.10556491190874735     
  0.13050000000000000         0.10676452240028786     
  0.13080000000000003         0.10559920666659539     
  0.13109999999999999         0.10277634513486679     
  0.13140000000000002          9.9822070183051489E-002
  0.13169999999999998          9.7187320802586893E-002
  0.13200000000000001          9.6454518495315208E-002
  0.13229999999999997          9.9613080180440627E-002
  0.13260000000000000         0.10648607687562882     
  0.13290000000000002         0.11637958392079828     
  0.13319999999999999         0.12957249150674771     
  0.13350000000000001         0.14445972086740985     
  0.13380000000000003         0.15837612470734919     
  0.13410000000000000         0.16885888362837523     
  0.13440000000000002         0.17543548180527274     
  0.13469999999999999         0.17694425443872919     
  0.13500000000000001         0.17184869803491359     
  0.13529999999999998         0.16085010588653029     
  0.13560000000000000         0.14661000450388098     
  0.13590000000000002         0.12921155720119731     
  0.13619999999999999         0.11058296700887073     
  0.13650000000000001          9.3251023884858855E-002
  0.13680000000000003          7.7606503317750625E-002
  0.13710000000000000          6.4269122416961963E-002
  0.13740000000000002          5.3460133486838687E-002
  0.13769999999999999          4.4758351398776410E-002
  0.13800000000000001          3.6825621987637835E-002
  0.13829999999999998          2.8511987193645238E-002
  0.13860000000000000          2.0115203717846347E-002
  0.13890000000000002          1.1457719643181079E-002
  0.13919999999999999          1.2390110689529819E-003
  0.13950000000000001         -8.4868374793680718E-003
  0.13979999999999998         -1.6324986256291720E-002
  0.14010000000000000         -2.2534043240883806E-002
  0.14040000000000002         -2.5959451346720147E-002
  0.14069999999999999         -2.5488311822688813E-002
  0.14100000000000001         -2.2303927714943359E-002
  0.14130000000000004         -1.6951061176470869E-002
  0.14160000000000000         -1.1459695733767634E-002
  0.14189999999999997         -6.8793779691458659E-003
  0.14219999999999999         -4.9343907018523101E-003
  0.14250000000000002         -8.4046383640998552E-003
  0.14279999999999998         -1.6011298177014160E-002
  0.14310000000000000         -2.8809717443562931E-002
  0.14339999999999997         -4.6264708813139731E-002
  0.14369999999999999         -6.6142034955312401E-002
  0.14400000000000002         -8.7273468929842432E-002
  0.14429999999999998        -0.10710014973188400     
  0.14460000000000001        -0.12422389371150656     
  0.14490000000000003        -0.13802990154361361     
  0.14520000000000000        -0.14708444291957143     
  0.14550000000000002        -0.15242598721713729     
  0.14579999999999999        -0.15446430164251607     
  0.14610000000000001        -0.15449455048547994     
  0.14640000000000003        -0.15372471137570920     
  0.14670000000000000        -0.15303246272479140     
  0.14699999999999996        -0.15327247556327850     
  0.14729999999999999        -0.15410916091753807     
  0.14760000000000001        -0.15575934550806220     
  0.14789999999999998        -0.15701371050168822     
  0.14820000000000000        -0.15702913341375940     