  -1.4999999999999999E-002     0.0000000000000000     
  -1.4700000000000000E-002     0.0000000000000000     
  -1.4400000000000000E-002     0.0000000000000000     
  -1.4100000000000000E-002     0.0000000000000000     
  -1.3800000000000000E-002     0.0000000000000000     
  -1.3500000000000000E-002     0.0000000000000000     
  -1.3200000000000000E-002     0.0000000000000000     
  -1.2899999999999998E-002     0.0000000000000000     
  -1.2600000000000000E-002     0.0000000000000000     
  -1.2299999999999998E-002     0.0000000000000000     
  -1.2000000000000000E-002     0.0000000000000000     
  -1.1699999999999999E-002     0.0000000000000000     
  -1.1399999999999999E-002     0.0000000000000000     
  -1.1099999999999999E-002     0.0000000000000000     
  -1.0799999999999999E-002     0.0000000000000000     
  -1.0499999999999999E-002     0.0000000000000000     
  -1.0199999999999999E-002     0.0000000000000000     
  -9.8999999999999991E-003     0.0000000000000000     
  -9.5999999999999992E-003     0.0000000000000000     
  -9.2999999999999992E-003     0.0000000000000000     
  -8.9999999999999993E-003     0.0000000000000000     
  -8.6999999999999994E-003     0.0000000000000000     
  -8.3999999999999995E-003     0.0000000000000000     
  -8.0999999999999996E-003     0.0000000000000000     
  -7.7999999999999988E-003     0.0000000000000000     
  -7.4999999999999997E-003     0.0000000000000000     
  -7.1999999999999998E-003     0.0000000000000000     
  -6.8999999999999981E-003     0.0000000000000000     
  -6.5999999999999982E-003     0.0000000000000000     
  -6.3000000000000000E-003     0.0000000000000000     
  -6.0000000000000001E-003     0.0000000000000000     
  -5.6999999999999985E-003     0.0000000000000000     
  -5.3999999999999986E-003     0.0000000000000000     
  -5.1000000000000004E-003     0.0000000000000000     
  -4.7999999999999987E-003     0.0000000000000000     
  -4.5000000000000005E-003     0.0000000000000000     
  -4.1999999999999989E-003     0.0000000000000000     
  -3.8999999999999990E-003     0.0000000000000000     
  -3.5999999999999990E-003     0.0000000000000000     
  -3.2999999999999991E-003     0.0000000000000000     
  -2.9999999999999992E-003     0.0000000000000000     
  -2.6999999999999993E-003     0.0000000000000000     
  -2.3999999999999994E-003     0.0000000000000000     
  -2.0999999999999977E-003     0.0000000000000000     
  -1.7999999999999995E-003     0.0000000000000000     
  -1.4999999999999979E-003     0.0000000000000000     
  -1.1999999999999997E-003     0.0000000000000000     
  -8.9999999999999976E-004     0.0000000000000000     
  -5.9999999999999810E-004     1.7529899655417808E-045
  -2.9999999999999992E-004    -7.8250173277743150E-045
   0.0000000000000000          1.0545260599354599E-036
   3.0000000000000165E-004    -6.2856085823271804E-036
   5.9999999999999984E-004    -5.8830782092613790E-036
   9.0000000000000149E-004     1.1442084957201302E-034
   1.2000000000000031E-003    -4.9242716840500816E-035
   1.5000000000000013E-003    -1.0455225818624879E-033
   1.8000000000000030E-003     2.4395186362021055E-033
   2.1000000000000012E-003     2.9652033183923270E-033
   2.3999999999999994E-003    -2.2316501223925327E-032
   2.7000000000000010E-003     2.4358260459953379E-032
   2.9999999999999992E-003     1.5944534976254409E-032
   3.3000000000000008E-003     1.3147871826759338E-031
   3.6000000000000025E-003     7.9200042994146963E-031
   3.9000000000000007E-003    -1.6958917249815377E-029
   4.2000000000000023E-003     7.3333475927382575E-029
   4.5000000000000005E-003     9.5323832560606714E-029
   4.7999999999999987E-003    -2.4866520815674036E-027
   5.1000000000000004E-003     1.2075114412557578E-026
   5.4000000000000020E-003    -1.8525729040579301E-026
   5.7000000000000037E-003    -1.0836315906777144E-025
   5.9999999999999984E-003     8.6737887883454704E-025
   6.3000000000000000E-003    -3.0864553097076274E-024
   6.6000000000000017E-003     5.4199519602115615E-024
   6.9000000000000034E-003     5.4055099579897477E-024
   7.2000000000000015E-003    -7.4147856309083213E-023
   7.5000000000000032E-003     2.8700528876198059E-022
   7.8000000000000014E-003    -6.9517713814201137E-022
   8.0999999999999996E-003     1.0027144489277366E-021
   8.4000000000000012E-003     8.7644372818946833E-023
   8.7000000000000029E-003    -5.4586899712971924E-021
   9.0000000000000011E-003     1.7895688819547712E-020
   9.2999999999999992E-003    -2.9391116402783544E-020
   9.6000000000000009E-003    -1.4273039088977930E-020
   9.8999999999999991E-003     2.9842225193105991E-019
   1.0200000000000001E-002    -1.2686023059598104E-018
   1.0500000000000002E-002     3.5611960319682897E-018
   1.0800000000000004E-002    -6.5574154632172753E-018
   1.1099999999999999E-002     2.1336947164013324E-018
   1.1400000000000000E-002     3.9282516677542159E-017
   1.1700000000000002E-002    -1.4853437317386396E-016
   1.2000000000000004E-002    -6.0027869475437204E-017
   1.2300000000000002E-002     4.1270538595619266E-015
   1.2600000000000000E-002    -3.1333811511783754E-014
   1.2900000000000002E-002     1.5977415720000407E-013
   1.3200000000000000E-002    -6.2248849952489495E-013
   1.3500000000000002E-002     1.8265933641562447E-012
   1.3800000000000003E-002    -3.4016204082884778E-012
   1.4100000000000001E-002    -2.6034696666033913E-013
   1.4400000000000000E-002     2.8850538267881821E-011
   1.4700000000000001E-002    -1.0790777365533072E-010
   1.4999999999999999E-002     1.6706278198701658E-010
   1.5300000000000001E-002     1.7979788463401890E-010
   1.5600000000000003E-002    -1.4050526367329126E-009
   1.5899999999999997E-002     2.0670609759893498E-009
   1.6199999999999999E-002     3.2331095760947964E-009
   1.6500000000000001E-002    -1.3780310262717921E-008
   1.6800000000000002E-002     4.3748555378031894E-010
   1.7100000000000004E-002     5.3972662876207953E-008
   1.7400000000000006E-002    -2.3646233283996674E-008
   1.7700000000000000E-002    -2.0337425632188484E-007
   1.8000000000000002E-002     2.6134271341987369E-009
   1.8300000000000004E-002     6.0097289594885508E-007
   1.8600000000000005E-002     3.6057323873385002E-007
   1.8900000000000000E-002    -1.3027566864698903E-006
   1.9200000000000002E-002    -1.7725842541965204E-006
   1.9500000000000003E-002     2.7310502490959039E-006
   1.9799999999999998E-002     1.1614361039562121E-005
   2.0100000000000000E-002     1.9695986364523740E-005
   2.0400000000000001E-002     2.5217483254301609E-005
   2.0700000000000003E-002     3.5579738426391234E-005
   2.0999999999999998E-002     6.1236700438932937E-005
   2.1299999999999999E-002     1.0541486723726590E-004
   2.1600000000000001E-002     1.6550913315718292E-004
   2.1900000000000003E-002     2.4625958816806447E-004
   2.2200000000000004E-002     3.6712261589444368E-004
   2.2500000000000006E-002     5.5389810723266127E-004
   2.2800000000000001E-002     8.2792865781945398E-004
   2.3100000000000002E-002     1.2107261020976447E-003
   2.3400000000000004E-002     1.7392595808154829E-003
   2.3699999999999999E-002     2.4708441987407489E-003
   2.4000000000000000E-002     3.4719545017864104E-003
   2.4300000000000002E-002     4.8093320926653567E-003
   2.4599999999999997E-002     6.5571167678291050E-003
   2.4900000000000005E-002     8.8069811697065962E-003
   2.5200000000000000E-002     1.1661839702712520E-002
   2.5499999999999995E-002     1.5216087032368073E-002
   2.5800000000000003E-002     1.9542589837214602E-002
   2.6099999999999998E-002     2.4692026966721327E-002
   2.6400000000000007E-002     3.0685845848606660E-002
   2.6700000000000002E-002     3.7491809683278497E-002
   2.6999999999999996E-002     4.4993478934336854E-002
   2.7300000000000005E-002     5.2973933672545923E-002
   2.7600000000000000E-002     6.1113346549137054E-002
   2.7900000000000008E-002     6.8984858899398663E-002
   2.8200000000000003E-002     7.6038852567022322E-002
   2.8499999999999998E-002     8.1602961079983494E-002
   2.8800000000000006E-002     8.4913142296951516E-002
   2.9100000000000001E-002     8.5164286476072854E-002
   2.9400000000000003E-002     8.1564612964059535E-002
   2.9700000000000004E-002     7.3392346762975125E-002
   3.0000000000000006E-002     6.0061812630951700E-002
   3.0300000000000001E-002     4.1207865061782402E-002
   3.0600000000000002E-002     1.6785290206199847E-002
   3.0900000000000004E-002    -1.2860254356049051E-002
   3.1199999999999999E-002    -4.6980645581257127E-002
   3.1500000000000007E-002    -8.4417954277083734E-002
   3.1800000000000002E-002   -0.12360546769474857     
   3.2099999999999997E-002   -0.16262769743663094     
   3.2400000000000005E-002   -0.19934162554853121     
   3.2700000000000000E-002   -0.23152548143870219     
   3.3000000000000002E-002   -0.25704035242208012     
   3.3300000000000003E-002   -0.27401432482031957     
   3.3599999999999998E-002   -0.28101626130425589     
   3.3900000000000000E-002   -0.27719479892605015     
   3.4200000000000001E-002   -0.26240772100115162     
   3.4500000000000003E-002   -0.23729559864724814     
   3.4799999999999998E-002   -0.20324353950359886     
   3.5099999999999999E-002   -0.16232390766733834     
   3.5400000000000001E-002   -0.11719049564635971     
   3.5699999999999996E-002    -7.0864439375967828E-002
   3.6000000000000004E-002    -2.6535129391454210E-002
   3.6299999999999999E-002     1.2668932710220475E-002
   3.6600000000000008E-002     4.3902333867662173E-002
   3.6900000000000002E-002     6.4810417726074876E-002
   3.7199999999999997E-002     7.3710203361283547E-002
   3.7500000000000006E-002     6.9705337494208264E-002
   3.7800000000000000E-002     5.2726000732201204E-002
   3.8100000000000009E-002     2.3525178553669590E-002
   3.8400000000000004E-002    -1.6368966528507486E-002
   3.8699999999999998E-002    -6.4689591636288984E-002
   3.9000000000000007E-002   -0.11854363259029969     
   3.9300000000000002E-002   -0.17460033340166575     
   3.9600000000000003E-002   -0.22927205323715263     
   3.9900000000000005E-002   -0.27885377481615459     
   4.0200000000000000E-002   -0.31967014161939450     
   4.0500000000000001E-002   -0.34825512864064218     
   4.0800000000000003E-002   -0.36155921323137219     
   4.1100000000000005E-002   -0.35712778670431872     
   4.1399999999999999E-002   -0.33321914172836981     
   4.1700000000000008E-002   -0.28892761552505380     
   4.2000000000000003E-002   -0.22430464690244786     
   4.2299999999999997E-002   -0.14037783484048014     
   4.2600000000000006E-002    -3.9144180814270138E-002
   4.2900000000000001E-002     7.6492868612136805E-002
   4.3200000000000002E-002    0.20286923709908394     
   4.3500000000000004E-002    0.33575299485424726     
   4.3799999999999999E-002    0.47058403636070079     
   4.4100000000000000E-002    0.60269266551130984     
   4.4400000000000002E-002    0.72756445629914268     
   4.4700000000000004E-002    0.84112036484633135     
   4.4999999999999998E-002    0.93984598207680914     
   4.5300000000000000E-002     1.0208826096139700     
   4.5600000000000002E-002     1.0820910963553867     
   4.5899999999999996E-002     1.1220554147512842     
   4.6200000000000005E-002     1.1400318180422699     
   4.6500000000000000E-002     1.1357591186746017     
   4.6799999999999994E-002     1.1092892918992898     
   4.7100000000000003E-002     1.0609309705682994     
   4.7399999999999998E-002    0.99117410486316215     
   4.7700000000000006E-002    0.90060556211786980     
   4.8000000000000001E-002    0.78992611414267011     
   4.8300000000000010E-002    0.66008180586141252     
   4.8600000000000004E-002    0.51241344376112830     
   4.8899999999999999E-002    0.34881210441084631     
   4.9200000000000008E-002    0.17192053855696818     
   4.9500000000000002E-002    -1.4727853196269578E-002
   4.9800000000000011E-002   -0.20664390976255551     
   5.0100000000000006E-002   -0.39838391656736871     
   5.0400000000000000E-002   -0.58366811448318856     
   5.0700000000000009E-002   -0.75560981263404292     
   5.1000000000000004E-002   -0.90710085908474702     
   5.1299999999999998E-002    -1.0312491687372733     
   5.1600000000000007E-002    -1.1218713557213287     
   5.1900000000000002E-002    -1.1739891804823361     
   5.2200000000000010E-002    -1.1842756309445441     
   5.2500000000000005E-002    -1.1513651646884733     
   5.2800000000000000E-002    -1.0761134659938347     
   5.3099999999999994E-002   -0.96174121224317688     
   5.3400000000000003E-002   -0.81367194928812059     
   5.3699999999999998E-002   -0.63919908029860184     
   5.4000000000000006E-002   -0.44715151350677124     
   5.4300000000000001E-002   -0.24740502332750039     
   5.4599999999999996E-002    -5.0290480542172770E-002
   5.4900000000000004E-002    0.13406235013878370     
   5.5199999999999999E-002    0.29625213237030323     
   5.5499999999999994E-002    0.42807179827577113     
   5.5800000000000002E-002    0.52297443325339343     
   5.6099999999999997E-002    0.57638043361307301     
   5.6400000000000006E-002    0.58585661853494131     
   5.6700000000000000E-002    0.55121922689612790     
   5.6999999999999995E-002    0.47454044397935685     
   5.7300000000000004E-002    0.36001095316184040     
   5.7599999999999998E-002    0.21369269584800360     
   5.7900000000000007E-002     4.3238033008807825E-002
   5.8200000000000002E-002   -0.14245991429225680     
   5.8499999999999996E-002   -0.33375004017183590     
   5.8800000000000005E-002   -0.52072531130207633     
   5.9100000000000000E-002   -0.69377827847650997     
   5.9400000000000008E-002   -0.84423691288537495     
   5.9700000000000003E-002   -0.96487343606894693     
   6.0000000000000012E-002    -1.0503081115853348     
   6.0300000000000006E-002    -1.0974359546635972     
   6.0600000000000001E-002    -1.1057429348447239     
   6.0900000000000010E-002    -1.0772614513122636     
   6.1200000000000004E-002    -1.0162454875778357     
   6.1500000000000013E-002   -0.92884892521167117     
   6.1800000000000008E-002   -0.82266557479691682     
   6.2100000000000002E-002   -0.70594722259263698     
   6.2399999999999997E-002   -0.58676946352764403     
   6.2700000000000006E-002   -0.47224885379341092     
   6.3000000000000000E-002   -0.36792776110527742     
   6.3300000000000009E-002   -0.27726858948738564     
   6.3600000000000004E-002   -0.20120418143608471     
   6.3899999999999998E-002   -0.13804265910428201     
   6.4199999999999993E-002    -8.3658174066333607E-002
   6.4500000000000002E-002    -3.2039594151375958E-002
   6.4800000000000010E-002     2.4093806651103555E-002
   6.5100000000000005E-002     9.2663958770304714E-002
   6.5400000000000000E-002    0.18130300975280125     
   6.5700000000000008E-002    0.29633349251287588     
   6.5999999999999989E-002    0.44189030048315464     
   6.6299999999999998E-002    0.61921745711175280     
   6.6600000000000006E-002    0.82618218899392804     
   6.6900000000000001E-002     1.0569664271307371     
   6.7199999999999996E-002     1.3020173350737949     
   6.7500000000000004E-002     1.5483239936872417     
   6.7800000000000013E-002     1.7800864036825050     
   6.8099999999999994E-002     1.9797321620473141     
   6.8400000000000002E-002     2.1290710040190595     
   6.8700000000000011E-002     2.2105360102122167     
   6.8999999999999992E-002     2.2087581229195168     
   6.9300000000000000E-002     2.1120803425128001     
   6.9600000000000009E-002     1.9137500587615670     
   6.9900000000000004E-002     1.6130340153215272     
   7.0199999999999999E-002     1.2158583444123459     
   7.0500000000000007E-002    0.73489195371618576     
   7.0800000000000016E-002    0.18916887134743229     
   7.1099999999999997E-002   -0.39675057031652083     
   7.1400000000000005E-002   -0.99413711121551585     
   7.1700000000000000E-002    -1.5718920278381023     
   7.1999999999999995E-002    -2.0987079208104609     
   7.2300000000000003E-002    -2.5450601656899288     
   7.2600000000000012E-002    -2.8851235003243323     
   7.2900000000000006E-002    -3.0986135103577386     
   7.3200000000000001E-002    -3.1720495324479576     
   7.3499999999999996E-002    -3.0996732810541228     
   7.3800000000000004E-002    -2.8837030026427168     
   7.4099999999999999E-002    -2.5338971696865955     
   7.4400000000000008E-002    -2.0669369765425616     
   7.4700000000000003E-002    -1.5052981427311409     
   7.5000000000000011E-002   -0.87564045503468790     
   7.5299999999999992E-002   -0.20719210909035365     
   7.5600000000000001E-002    0.46981120215148053     
   7.5900000000000009E-002     1.1256626875579414     
   7.6200000000000004E-002     1.7327755740072814     
   7.6499999999999999E-002     2.2670102187093448     
   7.6800000000000007E-002     2.7083780847665899     
   7.7099999999999988E-002     3.0417010877565112     
   7.7399999999999997E-002     3.2571790319507432     
   7.7700000000000005E-002     3.3503425226462236     
   7.8000000000000014E-002     3.3218524561398231     
   7.8299999999999995E-002     3.1772101027351010     
   7.8600000000000003E-002     2.9259507751066645     
   7.8900000000000012E-002     2.5808045949002132     
   7.9199999999999993E-002     2.1570744586574047     
   7.9500000000000001E-002     1.6717633066045843     
   7.9800000000000010E-002     1.1425598900157394     
   8.0100000000000018E-002    0.58711785303205921     
   8.0399999999999999E-002     2.2677900679274408E-002
   8.0700000000000008E-002   -0.53421300792838777     
   8.1000000000000003E-002    -1.0681827100505452     
   8.1299999999999997E-002    -1.5651638556781988     
   8.1600000000000006E-002    -2.0120496813978468     
   8.1900000000000014E-002    -2.3968319970076499     
   8.2199999999999995E-002    -2.7089200107632885     
   8.2500000000000004E-002    -2.9392628765288307     
   8.2799999999999999E-002    -3.0806291203530836     
   8.3100000000000007E-002    -3.1278205019370193     
   8.3400000000000002E-002    -3.0781605343043461     
   8.3700000000000011E-002    -2.9323291872478405     
   8.4000000000000005E-002    -2.6947031106424553     
   8.4300000000000000E-002    -2.3730053975536358     
   8.4599999999999995E-002    -1.9781347573241619     
   8.4900000000000003E-002    -1.5241714760358973     
   8.5199999999999998E-002    -1.0277419117841882     
   8.5500000000000007E-002   -0.50657349927127837     
   8.5800000000000001E-002     2.1655554649626183E-002
   8.6100000000000010E-002    0.54000944133308237     
   8.6399999999999991E-002     1.0331776180684917     
   8.6699999999999999E-002     1.4884122662100603     
   8.7000000000000008E-002     1.8958196703470258     
   8.7300000000000003E-002     2.2480967117569479     
   8.7599999999999997E-002     2.5401179870296549     
   8.7900000000000006E-002     2.7682402218601525     
   8.8200000000000014E-002     2.9296953765522238     
   8.8499999999999995E-002     3.0218873112068061     
   8.8800000000000004E-002     3.0416693774243710     
   8.9100000000000013E-002     2.9851887309709961     
   8.9399999999999993E-002     2.8482737619687422     
   8.9700000000000002E-002     2.6271915507217289     
   9.0000000000000011E-002     2.3193755212221561     
   9.0299999999999991E-002     1.9243995002583776     
   9.0600000000000000E-002     1.4455384054369140     
   9.0900000000000009E-002    0.89089739557662651     
   9.1200000000000017E-002    0.27384451102604990     
   9.1499999999999998E-002   -0.38672825799052779     
   9.1800000000000007E-002    -1.0665825634118649     
   9.2100000000000001E-002    -1.7370373057555373     
   9.2399999999999996E-002    -2.3664441172998498     
   9.2700000000000005E-002    -2.9221754154099755     
   9.3000000000000013E-002    -3.3727879617416590     
   9.3300000000000008E-002    -3.6902310951272583     
   9.3600000000000003E-002    -3.8520693887855830     
   9.3899999999999997E-002    -3.8435399642466743     
   9.4200000000000006E-002    -3.6590201961298052     
   9.4500000000000001E-002    -3.3027777769972757     
   9.4800000000000009E-002    -2.7891140069227505     
   9.5100000000000004E-002    -2.1420018740878080     
   9.5399999999999999E-002    -1.3940472650306597     
   9.5699999999999993E-002   -0.58428865918063455     
   9.6000000000000002E-002    0.24448020748305849     
   9.6300000000000011E-002     1.0480773471908795     
   9.6600000000000005E-002     1.7837642476577740     
   9.6900000000000000E-002     2.4132340019461926     
   9.7200000000000009E-002     2.9054391465367591     
   9.7499999999999989E-002     3.2386915776746039     
   9.7799999999999998E-002     3.4014258484562512     
   9.8100000000000007E-002     3.3926384550643576     
   9.8400000000000015E-002     3.2220745185146278     
   9.8699999999999996E-002     2.9087920279699753     
   9.9000000000000005E-002     2.4786925395124908     
   9.9300000000000013E-002     1.9619907205468861     
   9.9599999999999994E-002     1.3907948780509778     
   9.9900000000000003E-002    0.79650467938117575     
  0.10020000000000001         0.20685647551814976     
  0.10049999999999999        -0.35587611846192940     
  0.10080000000000000        -0.87544846751720506     
  0.10110000000000001         -1.3418800867675837     
  0.10140000000000000         -1.7512593319732304     
  0.10170000000000000         -2.1043152871436006     
  0.10200000000000001         -2.4043395591860341     
  0.10230000000000002         -2.6554036221841724     
  0.10260000000000000         -2.8608741848999513     
  0.10290000000000001         -3.0219497775310127     
  0.10320000000000000         -3.1365945438232599     
  0.10350000000000001         -3.1998157602961577     
  0.10380000000000000         -3.2046611411610955     
  0.10410000000000001         -3.1432468992384863     
  0.10440000000000001         -3.0084536173163143     
  0.10470000000000000         -2.7961390109884587     
  0.10500000000000000         -2.5067198359316420     
  0.10530000000000000         -2.1461048198091444     
  0.10560000000000000         -1.7261765062204131     
  0.10590000000000001         -1.2643560215832605     
  0.10620000000000000        -0.78215754328474874     
  0.10650000000000001        -0.30289274599013766     
  0.10679999999999999         0.15089906752552845     
  0.10710000000000000         0.56020635500315807     
  0.10740000000000001         0.91228246940283664     
  0.10770000000000000          1.2024974858157438     
  0.10800000000000000          1.4351846023241406     
  0.10830000000000001          1.6238930276071302     
  0.10859999999999999          1.7898498830787728     
  0.10890000000000000          1.9591718975984378     
  0.10920000000000001          2.1597585749562476     
  0.10950000000000001          2.4178464493467033     
  0.10979999999999999          2.7537131401897930     
  0.11009999999999999          3.1778607475067648     
  0.11040000000000001          3.6888806943268047     
  0.11070000000000001          4.2724919461344477     
  0.11100000000000000          4.9012189073696453     
  0.11130000000000000          5.5355534735871412     
  0.11160000000000002          6.1272974215248315     
  0.11190000000000001          6.6236648776059583     
  0.11220000000000001          6.9713192213344497     
  0.11250000000000000          7.1212287180911513     
  0.11280000000000000          7.0333338012519544     
  0.11309999999999999          6.6799855449474528     
  0.11340000000000001          6.0487656790251432     
  0.11369999999999998          5.1439552475011547     
  0.11400000000000000          3.9863972794593652     
  0.11430000000000000          2.6119833079076962     
  0.11460000000000002          1.0694564617731135     
  0.11489999999999999        -0.58308941291933980     
  0.11520000000000001         -2.2825770449859863     
  0.11550000000000001         -3.9647700913160566     
  0.11580000000000000         -5.5683183849162159     
  0.11609999999999999         -7.0387025107079459     
  0.11640000000000002         -8.3308630260212908     
  0.11670000000000001         -9.4103880235441650     
  0.11700000000000001         -10.254235301200390     
  0.11730000000000000         -10.850962674495399     
  0.11760000000000000         -11.198846853923236     
  0.11789999999999999         -11.303154029066995     
  0.11820000000000001         -11.174284972045450     
  0.11850000000000001         -10.825298345305082     
  0.11880000000000000         -10.268967662673921     
  0.11910000000000000         -9.5160608608896151     
  0.11940000000000002         -8.5750856685535339     
  0.11970000000000001         -7.4522528896717635     
  0.12000000000000001         -6.1519031729155866     
  0.12030000000000000         -4.6792869722592672     
  0.12060000000000000         -3.0433895687321422     
  0.12089999999999999         -1.2587194481896862     
  0.12119999999999999         0.65167796863012739     
  0.12150000000000001          2.6534166428209875     
  0.12180000000000001          4.7001843612753182     
  0.12210000000000000          6.7345133055328414     
  0.12239999999999999          8.6889591508711010     
  0.12270000000000002          10.488643681252560     
  0.12300000000000001          12.056062738403972     
  0.12330000000000001          13.316018148560985     
  0.12360000000000000          14.200408982250226     
  0.12390000000000000          14.653790521895040     
  0.12419999999999999          14.638061571094628     
  0.12450000000000001          14.135141418440629     
  0.12480000000000001          13.148965877866024     
  0.12509999999999999          11.706671752146059     
  0.12540000000000001          9.8573026968472490     
  0.12570000000000003          7.6686544656803610     
  0.12600000000000000          5.2245226064118970     
  0.12630000000000002          2.6207377982980571     
  0.12659999999999999         -4.0045367120972349E-002
  0.12690000000000001         -2.6526062587368036     
  0.12719999999999998         -5.1134729563209556     
  0.12750000000000000         -7.3259301433838218     
  0.12780000000000002         -9.2036962816368408     
  0.12809999999999999         -10.673388516385685     
  0.12840000000000001         -11.678170242380643     
  0.12869999999999998         -12.181054154820847     
  0.12900000000000000         -12.166280785584995     
  0.12930000000000003         -11.640188254212879     
  0.12959999999999999         -10.632629427942096     
  0.12990000000000002         -9.1964292810193982     
  0.13019999999999998         -7.4055118783378555     
  0.13050000000000000         -5.3521495018619136     
  0.13080000000000003         -3.1430559237750000     
  0.13109999999999999        -0.89425307564000744     
  0.13140000000000002          1.2755578821904363     
  0.13169999999999998          3.2511274943593556     
  0.13200000000000001          4.9275012197945145     
  0.13229999999999997          6.2172699195348633     
  0.13260000000000000          7.0555415397737651     
  0.13290000000000002          7.4037595046269686     
  0.13319999999999999          7.2533879521180911     
  0.13350000000000001          6.6267414308339907     
  0.13380000000000003          5.5750308212471227     
  0.13410000000000000          4.1756081706037085     
  0.13440000000000002          2.5272877282902493     
  0.13469999999999999         0.74398613021487991     
  0.13500000000000001         -1.0526348409413531     
  0.13529999999999998         -2.7411785239635096     
  0.13560000000000000         -4.2086548967686683     
  0.13590000000000002         -5.3583317002407966     
  0.13619999999999999         -6.1158352120647583     
  0.13650000000000001         -6.4341063729560632     
  0.13680000000000003         -6.2975745423163554     
  0.13710000000000000         -5.7233128746702366     
  0.13740000000000002         -4.7588396235253123     
  0.13769999999999999         -3.4790759202898629     
  0.13800000000000001         -1.9815423551383342     
  0.13829999999999998        -0.37859138908712076     
  0.13860000000000000          1.2112257529813129     
  0.13890000000000002          2.6718082527495124     
  0.13919999999999999          3.8983888767281329     
  0.13950000000000001          4.8055758647581666     
  0.13979999999999998          5.3335933873296115     
  0.14010000000000000          5.4524326514763839     
  0.14040000000000002          5.1643004595892927     
  0.14069999999999999          4.5029535447400653     
  0.14100000000000001          3.5301385044462372     
  0.14130000000000004          2.3300819472894387     
  0.14160000000000000          1.0026645689695450     
  0.14189999999999997        -0.34448656614472339     
  0.14219999999999999         -1.6052864850625330     
  0.14250000000000002         -2.6839957334213183     
  0.14279999999999998         -3.5024452333189577     
  0.14310000000000000         -4.0058193345873612     
  0.14339999999999997         -4.1663694523967818     
  0.14369999999999999         -3.9852473869220062     
  0.14400000000000002         -3.4915585631610901     
  0.14429999999999998         -2.7381694402102057     
  0.14460000000000001         -1.7967613986101032     
  0.14490000000000003        -0.75150275360363294     
  0.14520000000000000         0.30922776705195393     
  0.14550000000000002          1.3007023393174824     
  0.14579999999999999          2.1489925471552369     
  0.14610000000000001          2.7967965710426803     
  0.14640000000000003          3.2076912045317627     
  0.14670000000000000          3.3687517764180392     
  0.14699999999999996          3.2903382892748332     
  0.14729999999999999          3.0037424664865733     
  0.14760000000000001          2.5574693760729450     
  0.14789999999999998          2.0113675652511738     
  0.14820000000000000          1.4302666222091813     