  -1.4999999999999999E-002     0.0000000000000000     
  -1.4700000000000000E-002     0.0000000000000000     
  -1.4400000000000000E-002     0.0000000000000000     
  -1.4100000000000000E-002     0.0000000000000000     
  -1.3800000000000000E-002     0.0000000000000000     
  -1.3500000000000000E-002     0.0000000000000000     
  -1.3200000000000000E-002     0.0000000000000000     
  -1.2899999999999998E-002     0.0000000000000000     
  -1.2600000000000000E-002     0.0000000000000000     
  -1.2299999999999998E-002     0.0000000000000000     
  -1.2000000000000000E-002     0.0000000000000000     
  -1.1699999999999999E-002     0.0000000000000000     
  -1.1399999999999999E-002     0.0000000000000000     
  -1.1099999999999999E-002     0.0000000000000000     
  -1.0799999999999999E-002     0.0000000000000000     
  -1.0499999999999999E-002     0.0000000000000000     
  -1.0199999999999999E-002     0.0000000000000000     
  -9.8999999999999991E-003     0.0000000000000000     
  -9.5999999999999992E-003     0.0000000000000000     
  -9.2999999999999992E-003     0.0000000000000000     
  -8.9999999999999993E-003     0.0000000000000000     
  -8.6999999999999994E-003     0.0000000000000000     
  -8.3999999999999995E-003     0.0000000000000000     
  -8.0999999999999996E-003     0.0000000000000000     
  -7.7999999999999988E-003     0.0000000000000000     
  -7.4999999999999997E-003     0.0000000000000000     
  -7.1999999999999998E-003     0.0000000000000000     
  -6.8999999999999981E-003     0.0000000000000000     
  -6.5999999999999982E-003     0.0000000000000000     
  -6.3000000000000000E-003     0.0000000000000000     
  -6.0000000000000001E-003     0.0000000000000000     
  -5.6999999999999985E-003     0.0000000000000000     
  -5.3999999999999986E-003     0.0000000000000000     
  -5.1000000000000004E-003     0.0000000000000000     
  -4.7999999999999987E-003     0.0000000000000000     
  -4.5000000000000005E-003     0.0000000000000000     
  -4.1999999999999989E-003     0.0000000000000000     
  -3.8999999999999990E-003     0.0000000000000000     
  -3.5999999999999990E-003     0.0000000000000000     
  -3.2999999999999991E-003     0.0000000000000000     
  -2.9999999999999992E-003     0.0000000000000000     
  -2.6999999999999993E-003     0.0000000000000000     
  -2.3999999999999994E-003     0.0000000000000000     
  -2.0999999999999977E-003     0.0000000000000000     
  -1.7999999999999995E-003     0.0000000000000000     
  -1.4999999999999979E-003     0.0000000000000000     
  -1.1999999999999997E-003     0.0000000000000000     
  -8.9999999999999976E-004     0.0000000000000000     
  -5.9999999999999810E-004     0.0000000000000000     
  -2.9999999999999992E-004     0.0000000000000000     
   0.0000000000000000          0.0000000000000000     
   3.0000000000000165E-004     0.0000000000000000     
   5.9999999999999984E-004     0.0000000000000000     
   9.0000000000000149E-004     0.0000000000000000     
   1.2000000000000031E-003     0.0000000000000000     
   1.5000000000000013E-003     0.0000000000000000     
   1.8000000000000030E-003     0.0000000000000000     
   2.1000000000000012E-003     0.0000000000000000     
   2.3999999999999994E-003     0.0000000000000000     
   2.7000000000000010E-003     0.0000000000000000     
   2.9999999999999992E-003     0.0000000000000000     
   3.3000000000000008E-003     0.0000000000000000     
   3.6000000000000025E-003     0.0000000000000000     
   3.9000000000000007E-003     0.0000000000000000     
   4.2000000000000023E-003     0.0000000000000000     
   4.5000000000000005E-003     0.0000000000000000     
   4.7999999999999987E-003     0.0000000000000000     
   5.1000000000000004E-003     0.0000000000000000     
   5.4000000000000020E-003     0.0000000000000000     
   5.7000000000000037E-003     0.0000000000000000     
   5.9999999999999984E-003     0.0000000000000000     
   6.3000000000000000E-003     0.0000000000000000     
   6.6000000000000017E-003     0.0000000000000000     
   6.9000000000000034E-003     0.0000000000000000     
   7.2000000000000015E-003     0.0000000000000000     
   7.5000000000000032E-003     0.0000000000000000     
   7.8000000000000014E-003     0.0000000000000000     
   8.0999999999999996E-003     0.0000000000000000     
   8.4000000000000012E-003    -3.2042595469424448E-042
   8.7000000000000029E-003     2.0216922321999961E-041
   9.0000000000000011E-003     1.5654985854420753E-037
   9.2999999999999992E-003    -1.2767836189586608E-036
   9.6000000000000009E-003    -5.1958251126451422E-036
   9.8999999999999991E-003     1.3720056452282451E-034
   1.0200000000000001E-002    -3.6850395382924841E-034
   1.0500000000000002E-002    -2.0219691747079723E-033
   1.0800000000000004E-002     2.2099531854061681E-032
   1.1099999999999999E-002    -4.3806419072858604E-032
   1.1400000000000000E-002    -1.9340627345135514E-031
   1.1700000000000002E-002     6.8988940601782158E-031
   1.2000000000000004E-002     3.4740659092959324E-030
   1.2300000000000002E-002    -1.5573590551863609E-029
   1.2600000000000000E-002    -1.0766053298577932E-028
   1.2900000000000002E-002     1.1246766880553535E-027
   1.3200000000000000E-002    -3.9746702613146356E-027
   1.3500000000000002E-002     1.0247107436976572E-027
   1.3800000000000003E-002     5.9602205106631765E-026
   1.4100000000000001E-002    -3.5413344475615689E-025
   1.4400000000000000E-002     1.2615300316170150E-024
   1.4700000000000001E-002    -3.1978159691035328E-024
   1.4999999999999999E-002     5.6519520048597743E-024
   1.5300000000000001E-002    -4.1800044557237771E-024
   1.5600000000000003E-002    -2.4320204225885594E-023
   1.5899999999999997E-002     2.2889210428522169E-022
   1.6199999999999999E-002    -1.5589106477979431E-021
   1.6500000000000001E-002     9.1676295212112020E-021
   1.6800000000000002E-002    -4.7019834964306103E-020
   1.7100000000000004E-002     2.1481257619503254E-019
   1.7400000000000006E-002    -9.0106282120711880E-019
   1.7700000000000000E-002     3.5817272302799382E-018
   1.8000000000000002E-002    -1.3880310377001360E-017
   1.8300000000000004E-002     5.3556616754551756E-017
   1.8600000000000005E-002    -2.0766844288785048E-016
   1.8900000000000000E-002     8.0483956991237664E-016
   1.9200000000000002E-002    -3.0555237653220226E-015
   1.9500000000000003E-002     1.0991542189263822E-014
   1.9799999999999998E-002    -3.5688079163590310E-014
   2.0100000000000000E-002     9.6252078112899752E-014
   2.0400000000000001E-002    -1.7164130936338010E-013
   2.0700000000000003E-002    -8.1098451452457708E-014
   2.0999999999999998E-002     2.2350866250305322E-012
   2.1299999999999999E-002    -1.0391471258461699E-011
   2.1600000000000001E-002     2.7751472989988282E-011
   2.1900000000000003E-002    -3.1661560228083815E-011
   2.2200000000000004E-002    -8.1494868303226926E-011
   2.2500000000000006E-002     4.5860980725711656E-010
   2.2800000000000001E-002    -7.7411856207267474E-010
   2.3100000000000002E-002    -6.4607610404574689E-010
   2.3400000000000004E-002     5.0696296408612998E-009
   2.3699999999999999E-002    -4.9641622496483716E-009
   2.4000000000000000E-002    -1.5427594341396911E-008
   2.4300000000000002E-002     3.2855304197693469E-008
   2.4599999999999997E-002     3.8944851588596397E-008
   2.4900000000000005E-002    -1.2992565087570310E-007
   2.5200000000000000E-002    -1.5335967734966175E-007
   2.5499999999999995E-002     3.3074221603075619E-007
   2.5800000000000003E-002     5.9600696751001395E-007
   2.6099999999999998E-002    -4.9440297145560119E-007
   2.6400000000000007E-002    -1.8442684777272483E-006
   2.6700000000000002E-002     5.0132601469907037E-008
   2.6999999999999996E-002     6.6569776045117024E-006
   2.7300000000000005E-002     1.4320480565336875E-005
   2.7600000000000000E-002     1.9000943290606017E-005
   2.7900000000000008E-002     2.3924556602674876E-005
   2.8200000000000003E-002     3.8634641877192358E-005
   2.8499999999999998E-002     6.9263675278230513E-005
   2.8800000000000006E-002     1.1389909441427852E-004
   2.9100000000000001E-002     1.7143798462775726E-004
   2.9400000000000003E-002     2.5309738000859987E-004
   2.9700000000000004E-002     3.8061533884228599E-004
   3.0000000000000006E-002     5.7412137523440391E-004
   3.0300000000000001E-002     8.4868388120299537E-004
   3.0600000000000002E-002     1.2263651290778913E-003
   3.0900000000000004E-002     1.7476909971484503E-003
   3.1199999999999999E-002     2.4670484409533141E-003
   3.1500000000000007E-002     3.4400779231632582E-003
   3.1800000000000002E-002     4.7227767013717156E-003
   3.2099999999999997E-002     6.3826653740950926E-003
   3.2400000000000005E-002     8.5023212556350480E-003
   3.2700000000000000E-002     1.1166468352587718E-002
   3.3000000000000002E-002     1.4445889697227786E-002
   3.3300000000000003E-002     1.8392566200333818E-002
   3.3599999999999998E-002     2.3038434715568504E-002
   3.3900000000000000E-002     2.8383696849989551E-002
   3.4200000000000001E-002     3.4375881739803056E-002
   3.4500000000000003E-002     4.0887968102576180E-002
   3.4799999999999998E-002     4.7710104719334283E-002
   3.5099999999999999E-002     5.4547246025770234E-002
   3.5400000000000001E-002     6.1015035996084821E-002
   3.5699999999999996E-002     6.6635704044877134E-002
   3.6000000000000004E-002     7.0847781677468719E-002
   3.6299999999999999E-002     7.3033588667535065E-002
   3.6600000000000008E-002     7.2562690493550644E-002
   3.6900000000000002E-002     6.8841559201581887E-002
   3.7199999999999997E-002     6.1357878607412708E-002
   3.7500000000000006E-002     4.9743514685185702E-002
   3.7800000000000000E-002     3.3837079041754495E-002
   3.8100000000000009E-002     1.3750732200344354E-002
   3.8400000000000004E-002    -1.0094498982060354E-002
   3.8699999999999998E-002    -3.6964127643379183E-002
   3.9000000000000007E-002    -6.5804945543760998E-002
   3.9300000000000002E-002    -9.5276550835721369E-002
   3.9600000000000003E-002   -0.12382663073222150     
   3.9900000000000005E-002   -0.14977582522015748     
   4.0200000000000000E-002   -0.17145007361171585     
   4.0500000000000001E-002   -0.18732229060416938     
   4.0800000000000003E-002   -0.19611975700523043     
   4.1100000000000005E-002   -0.19696293679832558     
   4.1399999999999999E-002   -0.18946106147876557     
   4.1700000000000008E-002   -0.17377134556519236     
   4.2000000000000003E-002   -0.15063502126601105     
   4.2299999999999997E-002   -0.12133237977048328     
   4.2600000000000006E-002    -8.7613165035615809E-002
   4.2900000000000001E-002    -5.1580528736250145E-002
   4.3200000000000002E-002    -1.5539559184896100E-002
   4.3500000000000004E-002     1.8149179099433855E-002
   4.3799999999999999E-002     4.7224722579290397E-002
   4.4100000000000000E-002     6.9727640973169858E-002
   4.4400000000000002E-002     8.4111661596449325E-002
   4.4700000000000004E-002     8.9326510011002669E-002
   4.4999999999999998E-002     8.4887655692810871E-002
   4.5300000000000000E-002     7.0880554119520767E-002
   4.5600000000000002E-002     4.7983583777769699E-002
   4.5899999999999996E-002     1.7415598030809457E-002
   4.6200000000000005E-002    -1.9174444150873195E-002
   4.6500000000000000E-002    -5.9785225693698124E-002
   4.6799999999999994E-002   -0.10216981638533915     
   4.7100000000000003E-002   -0.14396019009152261     
   4.7399999999999998E-002   -0.18273303996013970     
   4.7700000000000006E-002   -0.21615028983046952     
   4.8000000000000001E-002   -0.24213335606340319     
   4.8300000000000010E-002   -0.25890978850349494     
   4.8600000000000004E-002   -0.26508065844346895     
   4.8899999999999999E-002   -0.25972516137839025     
   4.9200000000000008E-002   -0.24249435140267145     
   4.9500000000000002E-002   -0.21364870827079319     
   4.9800000000000011E-002   -0.17400720650855245     
   5.0100000000000006E-002   -0.12490858870803745     
   5.0400000000000000E-002    -6.8225209786034358E-002
   5.0700000000000009E-002    -6.2339146536261793E-003
   5.1000000000000004E-002     5.8570771358837842E-002
   5.1299999999999998E-002    0.12357369436315258     
   5.1600000000000007E-002    0.18619768284385418     
   5.1900000000000002E-002    0.24408363011121614     
   5.2200000000000010E-002    0.29521432861961427     
   5.2500000000000005E-002    0.33802652922955434     
   5.2800000000000000E-002    0.37146481878048948     
   5.3099999999999994E-002    0.39504232468984157     
   5.3400000000000003E-002    0.40882027155979261     
   5.3699999999999998E-002    0.41331534323181890     
   5.4000000000000006E-002    0.40945623544278165     
   5.4300000000000001E-002    0.39847902840184524     
   5.4599999999999996E-002    0.38177834703931612     
   5.4900000000000004E-002    0.36081226054711851     
   5.5199999999999999E-002    0.33696104039459807     
   5.5499999999999994E-002    0.31144665948502381     
   5.5800000000000002E-002    0.28527531767651665     
   5.6099999999999997E-002    0.25915592946559607     
   5.6400000000000006E-002    0.23352035991390169     
   5.6700000000000000E-002    0.20849462630485294     
   5.6999999999999995E-002    0.18392996624072377     
   5.7300000000000004E-002    0.15952467713400723     
   5.7599999999999998E-002    0.13485661194910170     
   5.7900000000000007E-002    0.10947439194116786     
   5.8200000000000002E-002     8.3007709618184239E-002
   5.8499999999999996E-002     5.5230067493455444E-002
   5.8800000000000005E-002     2.6200208066167064E-002
   5.9100000000000000E-002    -3.7118236176883757E-003
   5.9400000000000008E-002    -3.3856001847401389E-002
   5.9700000000000003E-002    -6.3246668601285125E-002
   6.0000000000000012E-002    -9.0673759808115428E-002
   6.0300000000000006E-002   -0.11480579121943307     
   6.0600000000000001E-002   -0.13427904478683853     
   6.0900000000000010E-002   -0.14791128838906997     
   6.1200000000000004E-002   -0.15483331023367769     
   6.1500000000000013E-002   -0.15460643880945485     
   6.1800000000000008E-002   -0.14734148688407792     
   6.2100000000000002E-002   -0.13372458996107028     
   6.2399999999999997E-002   -0.11500007080590716     
   6.2700000000000006E-002    -9.2933717414273267E-002
   6.3000000000000000E-002    -6.9620683027794436E-002
   6.3300000000000009E-002    -4.7292963590102592E-002
   6.3600000000000004E-002    -2.8132696386242207E-002
   6.3899999999999998E-002    -1.4047422191876097E-002
   6.4199999999999993E-002    -6.4990223984600940E-003
   6.4500000000000002E-002    -6.3189450793777061E-003
   6.4800000000000010E-002    -1.3648725791089666E-002
   6.5100000000000005E-002    -2.7951629677100708E-002
   6.5400000000000000E-002    -4.8021955208694664E-002
   6.5700000000000008E-002    -7.2092846289921103E-002
   6.5999999999999989E-002    -9.8093789709995077E-002
   6.6299999999999998E-002   -0.12382029141801607     
   6.6600000000000006E-002   -0.14706871550866485     
   6.6900000000000001E-002   -0.16587368380744713     
   6.7199999999999996E-002   -0.17870012814828787     
   6.7500000000000004E-002   -0.18450908399414606     
   6.7800000000000013E-002   -0.18281877665865470     
   6.8099999999999994E-002   -0.17371398601723051     
   6.8400000000000002E-002   -0.15787609548813814     
   6.8700000000000011E-002   -0.13643407931934853     
   6.8999999999999992E-002   -0.11074653647457949     
   6.9300000000000000E-002    -8.2496019853690622E-002
   6.9600000000000009E-002    -5.3546870902852123E-002
   6.9900000000000004E-002    -2.5608723835111327E-002
   7.0199999999999999E-002    -2.4866059575906572E-004
   7.0500000000000007E-002     2.1109124202259185E-002
   7.0800000000000016E-002     3.7341669492823373E-002
   7.1099999999999997E-002     4.7643085213394512E-002
   7.1400000000000005E-002     5.1569389384651831E-002
   7.1700000000000000E-002     4.8934234911498870E-002
   7.1999999999999995E-002     3.9723181057634178E-002
   7.2300000000000003E-002     2.4245310524739640E-002
   7.2600000000000012E-002     2.9290256483814944E-003
   7.2900000000000006E-002    -2.3838717243777723E-002
   7.3200000000000001E-002    -5.5605617614561786E-002
   7.3499999999999996E-002    -9.1930748414115943E-002
   7.3800000000000004E-002   -0.13240560791981426     
   7.4099999999999999E-002   -0.17658461175230564     
   7.4400000000000008E-002   -0.22403047237006599     
   7.4700000000000003E-002   -0.27418191244169798     
   7.5000000000000011E-002   -0.32614516045480324     
   7.5299999999999992E-002   -0.37873616734292420     
   7.5600000000000001E-002   -0.43043652361962748     
   7.5900000000000009E-002   -0.47931294956349624     
   7.6200000000000004E-002   -0.52302386752126528     
   7.6499999999999999E-002   -0.55884339754908630     
   7.6800000000000007E-002   -0.58388665080284752     
   7.7099999999999988E-002   -0.59537791002152018     
   7.7399999999999997E-002   -0.59072088330010064     
   7.7700000000000005E-002   -0.56775213696245219     
   7.8000000000000014E-002   -0.52505623944596824     
   7.8299999999999995E-002   -0.46209194254827801     
   7.8600000000000003E-002   -0.37935343078501815     
   7.8900000000000012E-002   -0.27849279554439599     
   7.9199999999999993E-002   -0.16215794497863251     
   7.9500000000000001E-002    -3.3838951004768227E-002
   7.9800000000000010E-002    0.10222227763060576     
   8.0100000000000018E-002    0.24123607053759127     
   8.0399999999999999E-002    0.37825738436046391     
   8.0700000000000008E-002    0.50851446813395684     
   8.1000000000000003E-002    0.62753804305379357     
   8.1299999999999997E-002    0.73132448395064187     
   8.1600000000000006E-002    0.81653102966784508     
   8.1900000000000014E-002    0.88054955061041773     
   8.2199999999999995E-002    0.92150187653908011     
   8.2500000000000004E-002    0.93826460015741420     
   8.2799999999999999E-002    0.93036354576736047     
   8.3100000000000007E-002    0.89795480443507936     
   8.3400000000000002E-002    0.84192058112746393     
   8.3700000000000011E-002    0.76390933383130966     
   8.4000000000000005E-002    0.66632009939116355     
   8.4300000000000000E-002    0.55230739424079600     
   8.4599999999999995E-002    0.42583649703963034     
   8.4900000000000003E-002    0.29170716772568295     
   8.5199999999999998E-002    0.15543450996222147     
   8.5500000000000007E-002     2.2901749783069178E-002
   8.5800000000000001E-002    -9.9987493532614088E-002
   8.6100000000000010E-002   -0.20767720887032828     
   8.6399999999999991E-002   -0.29535912905654371     
   8.6699999999999999E-002   -0.35948616769662201     
   8.7000000000000008E-002   -0.39822584813476442     
   8.7300000000000003E-002   -0.41177766922037584     
   8.7599999999999997E-002   -0.40235407048535282     
   8.7900000000000006E-002   -0.37399233415546534     
   8.8200000000000014E-002   -0.33240729087844678     
   8.8499999999999995E-002   -0.28438083182110691     
   8.8800000000000004E-002   -0.23700690195958229     
   8.9100000000000013E-002   -0.19696236894071248     
   8.9399999999999993E-002   -0.16971986413170476     
   8.9700000000000002E-002   -0.15895282476721775     
   9.0000000000000011E-002   -0.16602661569117916     
   9.0299999999999991E-002   -0.18966169471992059     
   9.0600000000000000E-002   -0.22611047834886586     
   9.0900000000000009E-002   -0.26948531801360764     
   9.1200000000000017E-002   -0.31222100747595471     
   9.1499999999999998E-002   -0.34591750879738847     
   9.1800000000000007E-002   -0.36223769109967874     
   9.2100000000000001E-002   -0.35374070498683208     
   9.2399999999999996E-002   -0.31475651835585239     
   9.2700000000000005E-002   -0.24193142363081188     
   9.3000000000000013E-002   -0.13467673643285272     
   9.3300000000000008E-002     4.5094233500161882E-003
   9.3600000000000003E-002    0.17021990689903010     
   9.3899999999999997E-002    0.35449381093584731     
   9.4200000000000006E-002    0.54728189344724043     
   9.4500000000000001E-002    0.73711852001392164     
   9.4800000000000009E-002    0.91175743735348469     
   9.5100000000000004E-002     1.0589323741336936     
   9.5399999999999999E-002     1.1673001805017389     
   9.5699999999999993E-002     1.2270696955431846     
   9.6000000000000002E-002     1.2305431930993391     
   9.6300000000000011E-002     1.1726124699198957     
   9.6600000000000005E-002     1.0511948905607289     
   9.6900000000000000E-002    0.86758859209283612     
   9.7200000000000009E-002    0.62642317843606021     
   9.7499999999999989E-002    0.33558288716475482     
   9.7799999999999998E-002     5.9918464612657291E-003
   9.8100000000000007E-002   -0.34883764938859879     
   9.8400000000000015E-002   -0.71337782197874355     
   9.8699999999999996E-002    -1.0707669756322205     
   9.9000000000000005E-002    -1.4037909997748270     
   9.9300000000000013E-002    -1.6957866088983635     
   9.9599999999999994E-002    -1.9314665517928828     
   9.9900000000000003E-002    -2.0976924785521254     
  0.10020000000000001         -2.1842738348565938     
  0.10049999999999999         -2.1845936321946420     
  0.10080000000000000         -2.0958591203758616     
  0.10110000000000001         -1.9192146996738626     
  0.10140000000000000         -1.6596296545244249     
  0.10170000000000000         -1.3256388496140996     
  0.10200000000000001        -0.92896604953425177     
  0.10230000000000002        -0.48395471228527831     
  0.10260000000000000         -6.9133969813249541E-003
  0.10290000000000001         0.48462756178940736     
  0.10320000000000000         0.97256475859832503     
  0.10350000000000001          1.4387520457785650     
  0.10380000000000000          1.8658158488693677     
  0.10410000000000001          2.2378060748954778     
  0.10440000000000001          2.5407324195736560     
  0.10470000000000000          2.7631670070597831     
  0.10500000000000000          2.8966052669338733     
  0.10530000000000000          2.9358836662248926     
  0.10560000000000000          2.8794226135729559     
  0.10590000000000001          2.7292336729585918     
  0.10620000000000000          2.4908501217220467     
  0.10650000000000001          2.1729854111807416     
  0.10679999999999999          1.7869678448973896     
  0.10710000000000000          1.3460923784516463     
  0.10740000000000001         0.86493295818212390     
  0.10770000000000000         0.35863414840226548     
  0.10800000000000000        -0.15787547316809897     
  0.10830000000000001        -0.67063814172161496     
  0.10859999999999999         -1.1670261622629052     
  0.10890000000000000         -1.6359053422163661     
  0.10920000000000001         -2.0676391004922436     
  0.10950000000000001         -2.4539104646485423     
  0.10979999999999999         -2.7875219780081024     
  0.11009999999999999         -3.0618816697314140     
  0.11040000000000001         -3.2704301416530162     
  0.11070000000000001         -3.4063268774853248     
  0.11100000000000000         -3.4624323369557097     
  0.11130000000000000         -3.4315837366037902     
  0.11160000000000002         -3.3068770412430446     
  0.11190000000000001         -3.0822296932084647     
  0.11220000000000001         -2.7536051179769436     
  0.11250000000000000         -2.3202633127608543     
  0.11280000000000000         -1.7858502207347584     
  0.11309999999999999         -1.1593903209650105     
  0.11340000000000001        -0.45593667881406885     
  0.11369999999999998         0.30300576548045938     
  0.11400000000000000          1.0896242058185872     
  0.11430000000000000          1.8708696748922167     
  0.11460000000000002          2.6099668226567272     
  0.11489999999999999          3.2686637310252609     
  0.11520000000000001          3.8097445388954592     
  0.11550000000000001          4.1993736687129637     
  0.11580000000000000          4.4101114244132615     
  0.11609999999999999          4.4234560264254021     
  0.11640000000000002          4.2316215599727673     
  0.11670000000000001          3.8386597851772146     
  0.11700000000000001          3.2605879757487592     
  0.11730000000000000          2.5248771107184727     
  0.11760000000000000          1.6692336993835055     
  0.11789999999999999         0.73910686395246894     
  0.11820000000000001        -0.21527947163908712     
  0.11850000000000001         -1.1420408217203584     
  0.11880000000000000         -1.9910119307568408     
  0.11910000000000000         -2.7166934794959419     
  0.11940000000000002         -3.2810462559330609     
  0.11970000000000001         -3.6559604197747042     
  0.12000000000000001         -3.8248607391111422     
  0.12030000000000000         -3.7833680164381587     
  0.12060000000000000         -3.5391637824097750     
  0.12089999999999999         -3.1113303361485549     
  0.12119999999999999         -2.5291928058111459     
  0.12150000000000001         -1.8304646583559370     
  0.12180000000000001         -1.0585843901068563     
  0.12210000000000000        -0.25995158636943272     
  0.12239999999999999         0.51861224888688862     
  0.12270000000000002          1.2327118801680115     
  0.12300000000000001          1.8431035981275818     
  0.12330000000000001          2.3179816108309543     
  0.12360000000000000          2.6349318884789614     
  0.12390000000000000          2.7821651911341667     
  0.12419999999999999          2.7588029818957907     
  0.12450000000000001          2.5746852628322432     
  0.12480000000000001          2.2496607078686033     
  0.12509999999999999          1.8119331753081322     
  0.12540000000000001          1.2955378797260066     
  0.12570000000000003         0.73765559807573244     
  0.12600000000000000         0.17597294660735496     
  0.12630000000000002        -0.35377306993804436     
  0.12659999999999999        -0.82037664415229927     
  0.12690000000000001         -1.1993969784841312     
  0.12719999999999998         -1.4742615721667720     
  0.12750000000000000         -1.6366420306525171     
  0.12780000000000002         -1.6863542081847254     
  0.12809999999999999         -1.6307380636464737     
  0.12840000000000001         -1.4834198318794967     
  0.12869999999999998         -1.2628617979507157     
  0.12900000000000000        -0.99045142110041628     
  0.12930000000000003        -0.68883392784164232     
  0.12959999999999999        -0.38058249917343412     
  0.12990000000000002         -8.7009914323825294E-002
  0.13019999999999998         0.17275119659392224     
  0.13050000000000000         0.38282883266616174     
  0.13080000000000003         0.53111553120317345     
  0.13109999999999999         0.60937130333820411     
  0.13140000000000002         0.61357332638573292     
  0.13169999999999998         0.54437665615150710     
  0.13200000000000001         0.40726806073919952     
  0.13229999999999997         0.21254408434355571     
  0.13260000000000000         -2.4846849806052937E-002
  0.13290000000000002        -0.28603655648176007     
  0.13319999999999999        -0.54907742534479675     
  0.13350000000000001        -0.78999124394796094     
  0.13380000000000003        -0.98456059724539458     
  0.13410000000000000         -1.1103489847036163     
  0.13440000000000002         -1.1486921967639632     
  0.13469999999999999         -1.0866607085586288     
  0.13500000000000001        -0.91850331675540531     
  0.13529999999999998        -0.64673944437209718     
  0.13560000000000000        -0.28276303644257089     
  0.13590000000000002         0.15372274085092347     
  0.13619999999999999         0.63584883528732561     
  0.13650000000000001          1.1314906434161736     
  0.13680000000000003          1.6059897881180933     
  0.13710000000000000          2.0245638634450978     
  0.13740000000000002          2.3552728779262386     
  0.13769999999999999          2.5719618829777966     
  0.13800000000000001          2.6561600940392709     
  0.13829999999999998          2.5987017979060094     
  0.13860000000000000          2.4004976969200396     
  0.13890000000000002          2.0723700734468351     
  0.13919999999999999          1.6343938586299989     
  0.13950000000000001          1.1140821018520359     
  0.13979999999999998         0.54421805818861202     
  0.14010000000000000         -3.9509432355684881E-002
  0.14040000000000002        -0.60153857417015821     
  0.14069999999999999         -1.1090677250680883     
  0.14100000000000001         -1.5341279456570851     
  0.14130000000000004         -1.8556028179357442     
  0.14160000000000000         -2.0610537373179447     
  0.14189999999999997         -2.1472198830921858     
  0.14219999999999999         -2.1196999340180556     
  0.14250000000000002         -1.9920454752944177     
  0.14279999999999998         -1.7844982592371257     
  0.14310000000000000         -1.5221807355151136     
  0.14339999999999997         -1.2321483504747737     
  0.14369999999999999        -0.94072973158707018     
  0.14400000000000002        -0.67151582309303515     
  0.14429999999999998        -0.44301807424820583     
  0.14460000000000001        -0.26707724669999877     
  0.14490000000000003        -0.14820602088687992     
  0.14520000000000000         -8.3269261585415283E-002
  0.14550000000000002         -6.2660107406910262E-002
  0.14579999999999999         -7.2133390975591599E-002
  0.14610000000000001         -9.4561900487356604E-002
  0.14640000000000003        -0.11230129320040680     
  0.14670000000000000        -0.10979918275948455     
  0.14699999999999996         -7.5629276859317252E-002
  0.14729999999999999         -3.8113026038678749E-003
  0.14760000000000001         0.10570421690236641     
  0.14789999999999998         0.24720740237008712     
  0.14820000000000000         0.40985471451763639     