  -1.4999999999999999E-002     0.0000000000000000     
  -1.4700000000000000E-002     0.0000000000000000     
  -1.4400000000000000E-002     0.0000000000000000     
  -1.4100000000000000E-002     0.0000000000000000     
  -1.3800000000000000E-002     0.0000000000000000     
  -1.3500000000000000E-002     0.0000000000000000     
  -1.3200000000000000E-002     0.0000000000000000     
  -1.2899999999999998E-002     0.0000000000000000     
  -1.2600000000000000E-002     0.0000000000000000     
  -1.2299999999999998E-002     0.0000000000000000     
  -1.2000000000000000E-002     0.0000000000000000     
  -1.1699999999999999E-002     0.0000000000000000     
  -1.1399999999999999E-002     0.0000000000000000     
  -1.1099999999999999E-002     0.0000000000000000     
  -1.0799999999999999E-002     0.0000000000000000     
  -1.0499999999999999E-002     0.0000000000000000     
  -1.0199999999999999E-002     0.0000000000000000     
  -9.8999999999999991E-003     0.0000000000000000     
  -9.5999999999999992E-003     0.0000000000000000     
  -9.2999999999999992E-003     0.0000000000000000     
  -8.9999999999999993E-003     0.0000000000000000     
  -8.6999999999999994E-003     0.0000000000000000     
  -8.3999999999999995E-003     0.0000000000000000     
  -8.0999999999999996E-003     0.0000000000000000     
  -7.7999999999999988E-003     0.0000000000000000     
  -7.4999999999999997E-003     0.0000000000000000     
  -7.1999999999999998E-003     0.0000000000000000     
  -6.8999999999999981E-003     0.0000000000000000     
  -6.5999999999999982E-003     0.0000000000000000     
  -6.3000000000000000E-003     0.0000000000000000     
  -6.0000000000000001E-003     0.0000000000000000     
  -5.6999999999999985E-003     0.0000000000000000     
  -5.3999999999999986E-003     0.0000000000000000     
  -5.1000000000000004E-003     0.0000000000000000     
  -4.7999999999999987E-003     0.0000000000000000     
  -4.5000000000000005E-003     0.0000000000000000     
  -4.1999999999999989E-003     0.0000000000000000     
  -3.8999999999999990E-003     0.0000000000000000     
  -3.5999999999999990E-003     0.0000000000000000     
  -3.2999999999999991E-003     0.0000000000000000     
  -2.9999999999999992E-003     0.0000000000000000     
  -2.6999999999999993E-003     0.0000000000000000     
  -2.3999999999999994E-003     0.0000000000000000     
  -2.0999999999999977E-003     0.0000000000000000     
  -1.7999999999999995E-003     0.0000000000000000     
  -1.4999999999999979E-003     0.0000000000000000     
  -1.1999999999999997E-003     0.0000000000000000     
  -8.9999999999999976E-004     0.0000000000000000     
  -5.9999999999999810E-004     0.0000000000000000     
  -2.9999999999999992E-004     0.0000000000000000     
   0.0000000000000000          0.0000000000000000     
   3.0000000000000165E-004     0.0000000000000000     
   5.9999999999999984E-004     0.0000000000000000     
   9.0000000000000149E-004     0.0000000000000000     
   1.2000000000000031E-003     0.0000000000000000     
   1.5000000000000013E-003     0.0000000000000000     
   1.8000000000000030E-003     0.0000000000000000     
   2.1000000000000012E-003     0.0000000000000000     
   2.3999999999999994E-003     0.0000000000000000     
   2.7000000000000010E-003     0.0000000000000000     
   2.9999999999999992E-003     0.0000000000000000     
   3.3000000000000008E-003     0.0000000000000000     
   3.6000000000000025E-003     0.0000000000000000     
   3.9000000000000007E-003     0.0000000000000000     
   4.2000000000000023E-003     0.0000000000000000     
   4.5000000000000005E-003     0.0000000000000000     
   4.7999999999999987E-003     0.0000000000000000     
   5.1000000000000004E-003     0.0000000000000000     
   5.4000000000000020E-003     0.0000000000000000     
   5.7000000000000037E-003     0.0000000000000000     
   5.9999999999999984E-003     0.0000000000000000     
   6.3000000000000000E-003     0.0000000000000000     
   6.6000000000000017E-003     0.0000000000000000     
   6.9000000000000034E-003     0.0000000000000000     
   7.2000000000000015E-003     0.0000000000000000     
   7.5000000000000032E-003     0.0000000000000000     
   7.8000000000000014E-003    -9.8740042803639397E-044
   8.0999999999999996E-003     5.4099578625756084E-041
   8.4000000000000012E-003     4.3163929739463042E-039
   8.7000000000000029E-003    -1.5003941978774953E-036
   9.0000000000000011E-003    -9.8581039728769540E-036
   9.2999999999999992E-003     2.0781049499529582E-034
   9.6000000000000009E-003    -7.1296699593535412E-034
   9.8999999999999991E-003    -5.4297146321489584E-033
   1.0200000000000001E-002     4.6628730362641465E-032
   1.0500000000000002E-002    -9.6449244131646831E-032
   1.0800000000000004E-002    -4.2612230060318255E-031
   1.1099999999999999E-002     3.5474832134380177E-030
   1.1400000000000000E-002    -1.3032677806571055E-029
   1.1700000000000002E-002     3.8984834997021789E-029
   1.2000000000000004E-002    -6.6978931961715994E-029
   1.2300000000000002E-002    -6.6243747723083650E-028
   1.2600000000000000E-002     7.5502863229273960E-027
   1.2900000000000002E-002    -3.5746509378435546E-026
   1.3200000000000000E-002     6.5879382050926476E-026
   1.3500000000000002E-002     2.2823537836321767E-025
   1.3800000000000003E-002    -2.0616336601651458E-024
   1.4100000000000001E-002     6.8750459741209003E-024
   1.4400000000000000E-002    -8.2525025940862314E-024
   1.4700000000000001E-002    -3.1613578176014616E-023
   1.4999999999999999E-002     2.0129978605251690E-022
   1.5300000000000001E-002    -5.3696915654132214E-022
   1.5600000000000003E-002     5.3190183301805642E-022
   1.5899999999999997E-002     2.0140726655577754E-021
   1.6199999999999999E-002    -1.3193249381075051E-020
   1.6500000000000001E-002     5.1793876422520954E-020
   1.6800000000000002E-002    -2.0869787823364615E-019
   1.7100000000000004E-002     9.9404452372100958E-019
   1.7400000000000006E-002    -5.0206708632127818E-018
   1.7700000000000000E-002     2.4122935426849711E-017
   1.8000000000000002E-002    -1.0630068189531750E-016
   1.8300000000000004E-002     4.2595493878409018E-016
   1.8600000000000005E-002    -1.5322388865878954E-015
   1.8900000000000000E-002     4.7590189975416041E-015
   1.9200000000000002E-002    -1.1368405820032321E-014
   1.9500000000000003E-002     1.0950363080422019E-014
   1.9799999999999998E-002     7.9700185190848692E-014
   2.0100000000000000E-002    -6.2611042137177822E-013
   2.0400000000000001E-002     2.6843121174022171E-012
   2.0700000000000003E-002    -7.7339046845221170E-012
   2.0999999999999998E-002     1.2465922240060543E-011
   2.1299999999999999E-002     9.0140642851776974E-012
   2.1600000000000001E-002    -1.2152643587429484E-010
   2.1900000000000003E-002     3.3231875127562020E-010
   2.2200000000000004E-002    -2.0608980122980767E-010
   2.2500000000000006E-002    -1.3225812162134340E-009
   2.2800000000000001E-002     3.7222376476809783E-009
   2.3100000000000002E-002     7.2708566867526049E-011
   2.3400000000000004E-002    -1.6279875166891346E-008
   2.3699999999999999E-002     1.5303032573372866E-008
   2.4000000000000000E-002     5.1638821192274271E-008
   2.4300000000000002E-002    -7.4518505637774832E-008
   2.4599999999999997E-002    -1.8452989466840234E-007
   2.4900000000000005E-002     1.6336711531420071E-007
   2.5200000000000000E-002     5.9909252188218967E-007
   2.5499999999999995E-002    -6.6950931845083041E-008
   2.5800000000000003E-002    -1.5780355535605953E-006
   2.6099999999999998E-002    -9.0981206445639648E-007
   2.6400000000000007E-002     4.4965878545296654E-006
   2.6700000000000002E-002     1.2483177068850441E-005
   2.6999999999999996E-002     1.8449165290337477E-005
   2.7300000000000005E-002     2.3016545317998491E-005
   2.7600000000000000E-002     3.4383396286498699E-005
   2.7900000000000008E-002     6.0676825123451498E-005
   2.8200000000000003E-002     1.0250168277040704E-004
   2.8499999999999998E-002     1.5763003551501798E-004
   2.8800000000000006E-002     2.3315407805156799E-004
   2.9100000000000001E-002     3.4861961274520634E-004
   2.9400000000000003E-002     5.2606426886086209E-004
   2.9700000000000004E-002     7.8244030918098552E-004
   3.0000000000000006E-002     1.1371820982397343E-003
   3.0300000000000001E-002     1.6256373491186074E-003
   3.0600000000000002E-002     2.2999921309985994E-003
   3.0900000000000004E-002     3.2177007963234468E-003
   3.1199999999999999E-002     4.4357269591068981E-003
   3.1500000000000007E-002     6.0186091364160159E-003
   3.1800000000000002E-002     8.0455641602954243E-003
   3.2099999999999997E-002     1.0603039277623377E-002
   3.2400000000000005E-002     1.3767990639469582E-002
   3.2700000000000000E-002     1.7597798164697101E-002
   3.3000000000000002E-002     2.2128405788957032E-002
   3.3300000000000003E-002     2.7367283950660255E-002
   3.3599999999999998E-002     3.3274342072201417E-002
   3.3900000000000000E-002     3.9737965632130910E-002
   3.4200000000000001E-002     4.6562998434876428E-002
   3.4500000000000003E-002     5.3465765778107285E-002
   3.4799999999999998E-002     6.0072677688049789E-002
   3.5099999999999999E-002     6.5916230637590292E-002
   3.5400000000000001E-002     7.0439686575566207E-002
   3.5699999999999996E-002     7.3021301901492447E-002
   3.6000000000000004E-002     7.3012982094942655E-002
   3.6299999999999999E-002     6.9793893280666625E-002
   3.6600000000000008E-002     6.2821206223894130E-002
   3.6900000000000002E-002     5.1684568228037783E-002
   3.7199999999999997E-002     3.6172620488291084E-002
   3.7500000000000006E-002     1.6341294091699293E-002
   3.7800000000000000E-002    -7.4420777603343771E-003
   3.8100000000000009E-002    -3.4477391236789404E-002
   3.8400000000000004E-002    -6.3729353507327322E-002
   3.8699999999999998E-002    -9.3867838371931939E-002
   3.9000000000000007E-002   -0.12332127994507475     
   3.9300000000000002E-002   -0.15035701454869965     
   3.9600000000000003E-002   -0.17321871705788872     
   3.9900000000000005E-002   -0.19027264371581015     
   4.0200000000000000E-002   -0.20013562084686098     
   4.0500000000000001E-002   -0.20180283399163262     
   4.0800000000000003E-002   -0.19475350078006123     
   4.1100000000000005E-002   -0.17904347367751167     
   4.1399999999999999E-002   -0.15533268427138902     
   4.1700000000000008E-002   -0.12487825120136870     
   4.2000000000000003E-002    -8.9441523077645066E-002
   4.2299999999999997E-002    -5.1172817108305457E-002
   4.2600000000000006E-002    -1.2499303819092984E-002
   4.2900000000000001E-002     2.4057588850661435E-002
   4.3200000000000002E-002     5.6070189919919834E-002
   4.3500000000000004E-002     8.1365511265039464E-002
   4.3799999999999999E-002     9.8193671079173761E-002
   4.4100000000000000E-002    0.10531984109098920     
   4.4400000000000002E-002    0.10207389830190318     
   4.4700000000000004E-002     8.8432819293881387E-002
   4.4999999999999998E-002     6.4995869144390012E-002
   4.5300000000000000E-002     3.2935839369420225E-002
   4.5600000000000002E-002    -6.0645925526079236E-003
   4.5899999999999996E-002    -4.9934303775169039E-002
   4.6200000000000005E-002    -9.6316978890248470E-002
   4.6500000000000000E-002   -0.14268891045802493     
   4.6799999999999994E-002   -0.18645625327001239     
   4.7100000000000003E-002   -0.22508853521347888     
   4.7399999999999998E-002   -0.25628590542950580     
   4.7700000000000006E-002   -0.27806552083338176     
   4.8000000000000001E-002   -0.28884734371954934     
   4.8300000000000010E-002   -0.28751671720495509     
   4.8600000000000004E-002   -0.27354595875483845     
   4.8899999999999999E-002   -0.24706655114749571     
   4.9200000000000008E-002   -0.20879929753720772     
   4.9500000000000002E-002   -0.16006285648713592     
   4.9800000000000011E-002   -0.10273705336702994     
   5.0100000000000006E-002    -3.9093487065050517E-002
   5.0400000000000000E-002     2.8237755835693875E-002
   5.0700000000000009E-002     9.6458702497729115E-002
   5.1000000000000004E-002    0.16286911924554995     
   5.1299999999999998E-002    0.22492359629675437     
   5.1600000000000007E-002    0.28041757873600814     
   5.1900000000000002E-002    0.32764648727499873     
   5.2200000000000010E-002    0.36542827214285434     
   5.2500000000000005E-002    0.39321918686596513     
   5.2800000000000000E-002    0.41107067509691192     
   5.3099999999999994E-002    0.41954713432727686     
   5.3400000000000003E-002    0.41968109930773817     
   5.3699999999999998E-002    0.41280357298162257     
   5.4000000000000006E-002    0.40043624835218378     
   5.4300000000000001E-002    0.38415622338686373     
   5.4599999999999996E-002    0.36538375463643685     
   5.4900000000000004E-002    0.34533205024484392     
   5.5199999999999999E-002    0.32492646486892951     
   5.5499999999999994E-002    0.30470283946308441     
   5.5800000000000002E-002    0.28481664720644218     
   5.6099999999999997E-002    0.26506724179733171     
   5.6400000000000006E-002    0.24496059819470045     
   5.6700000000000000E-002    0.22377909792969347     
   5.6999999999999995E-002    0.20072723246635221     
   5.7300000000000004E-002    0.17507804853751185     
   5.7599999999999998E-002    0.14624063438424822     
   5.7900000000000007E-002    0.11389252422115223     
   5.8200000000000002E-002     7.8128326243178003E-002
   5.8499999999999996E-002     3.9497426321173347E-002
   5.8800000000000005E-002    -1.0075637074068019E-003
   5.9100000000000000E-002    -4.2005658882741305E-002
   5.9400000000000008E-002    -8.1780509463361808E-002
   5.9700000000000003E-002   -0.11842038197882218     
   6.0000000000000012E-002   -0.15003471738149171     
   6.0300000000000006E-002   -0.17489551654899857     
   6.0600000000000001E-002   -0.19164985080797925     
   6.0900000000000010E-002   -0.19951822916626435     
   6.1200000000000004E-002   -0.19833017548114207     
   6.1500000000000013E-002   -0.18861756271998442     
   6.1800000000000008E-002   -0.17160067512705579     
   6.2100000000000002E-002   -0.14907813482380358     
   6.2399999999999997E-002   -0.12332383677352637     
   6.2700000000000006E-002    -9.6778939641881237E-002
   6.3000000000000000E-002    -7.1841357275855153E-002
   6.3300000000000009E-002    -5.0713204262592536E-002
   6.3600000000000004E-002    -3.5104388903303335E-002
   6.3899999999999998E-002    -2.6148079588261257E-002
   6.4199999999999993E-002    -2.4287220700702643E-002
   6.4500000000000002E-002    -2.9184367116886517E-002
   6.4800000000000010E-002    -3.9936496985157603E-002
   6.5100000000000005E-002    -5.5119486361035586E-002
   6.5400000000000000E-002    -7.2950499202380253E-002
   6.5700000000000008E-002    -9.1594256086051873E-002
   6.5999999999999989E-002   -0.10924994586860502     
   6.6299999999999998E-002   -0.12435392325350331     
   6.6600000000000006E-002   -0.13579416830879271     
   6.6900000000000001E-002   -0.14292873040958459     
   6.7199999999999996E-002   -0.14562599723790418     
   6.7500000000000004E-002   -0.14422269899460671     
   6.7800000000000013E-002   -0.13940703593388859     
   6.8099999999999994E-002   -0.13219847865048334     
   6.8400000000000002E-002   -0.12373777869697739     
   6.8700000000000011E-002   -0.11509641478181565     
   6.8999999999999992E-002   -0.10725857485181077     
   6.9300000000000000E-002   -0.10096334464264972     
   6.9600000000000009E-002    -9.6635754567815826E-002
   6.9900000000000004E-002    -9.4430711833589531E-002
   7.0199999999999999E-002    -9.4187165161744954E-002
   7.0500000000000007E-002    -9.5523459805727851E-002
   7.0800000000000016E-002    -9.7942106739987100E-002
   7.1099999999999997E-002   -0.10091764970481511     
   7.1400000000000005E-002   -0.10404885415397774     
   7.1700000000000000E-002   -0.10712769509884866     
   7.1999999999999995E-002   -0.11018372651041648     
   7.2300000000000003E-002   -0.11358466588528227     
   7.2600000000000012E-002   -0.11804844812725837     
   7.2900000000000006E-002   -0.12455371300183737     
   7.3200000000000001E-002   -0.13419842079455085     
   7.3499999999999996E-002   -0.14808743976990682     
   7.3800000000000004E-002   -0.16720162322605894     
   7.4099999999999999E-002   -0.19218886364855969     
   7.4400000000000008E-002   -0.22317892686770588     
   7.4700000000000003E-002   -0.25965083626730656     
   7.5000000000000011E-002   -0.30032146633432211     
   7.5299999999999992E-002   -0.34316700775614201     
   7.5600000000000001E-002   -0.38548733967165111     
   7.5900000000000009E-002   -0.42406098816435067     
   7.6200000000000004E-002   -0.45528837833626451     
   7.6499999999999999E-002   -0.47543308817460350     
   7.6800000000000007E-002   -0.48105857517955541     
   7.7099999999999988E-002   -0.46932711460200194     
   7.7399999999999997E-002   -0.43809341513072109     
   7.7700000000000005E-002   -0.38621993403489002     
   7.8000000000000014E-002   -0.31380820664151371     
   7.8299999999999995E-002   -0.22214483094108750     
   7.8600000000000003E-002   -0.11360911516832767     
   7.8900000000000012E-002     8.4229263147647324E-003
   7.9199999999999993E-002    0.13973713132050977     
   7.9500000000000001E-002    0.27554715381547956     
   7.9800000000000010E-002    0.41082393740904799     
   8.0100000000000018E-002    0.54053609267614633     
   8.0399999999999999E-002    0.65983519176055649     
   8.0700000000000008E-002    0.76423930838562748     
   8.1000000000000003E-002    0.84978388076011824     
   8.1299999999999997E-002    0.91309389427485987     
   8.1600000000000006E-002    0.95153595904826194     
   8.1900000000000014E-002    0.96324620671221073     
   8.2199999999999995E-002    0.94709509437493455     
   8.2500000000000004E-002    0.90285392390617647     
   8.2799999999999999E-002    0.83138083477285873     
   8.3100000000000007E-002    0.73457124968833032     
   8.3400000000000002E-002    0.61543093641307234     
   8.3700000000000011E-002    0.47818528265597893     
   8.4000000000000005E-002    0.32808730478811077     
   8.4300000000000000E-002    0.17136074790396380     
   8.4599999999999995E-002     1.4760821346613752E-002
   8.4900000000000003E-002   -0.13480649858124130     
   8.5199999999999998E-002   -0.27055098006685596     
   8.5500000000000007E-002   -0.38656769495437993     
   8.5800000000000001E-002   -0.47833706314099245     
   8.6100000000000010E-002   -0.54292742090427826     
   8.6399999999999991E-002   -0.57942804623587552     
   8.6699999999999999E-002   -0.58901218698214575     
   8.7000000000000008E-002   -0.57468838697480129     
   8.7300000000000003E-002   -0.54112213441548418     
   8.7599999999999997E-002   -0.49398021091042799     
   8.7900000000000006E-002   -0.43931861338446565     
   8.8200000000000014E-002   -0.38292471547808493     
   8.8499999999999995E-002   -0.32950539884034868     
   8.8800000000000004E-002   -0.28235658356527960     
   8.9100000000000013E-002   -0.24297037827816720     
   8.9399999999999993E-002   -0.21074817286796757     
   8.9700000000000002E-002   -0.18330249010469510     
   9.0000000000000011E-002   -0.15681794922672349     
   9.0299999999999991E-002   -0.12645936020987469     
   9.0600000000000000E-002    -8.7108211601678476E-002
   9.0900000000000009E-002    -3.4112642715182710E-002
   9.1200000000000017E-002     3.6111543398102013E-002
   9.1499999999999998E-002    0.12557430030770361     
   9.1800000000000007E-002    0.23436505042356698     
   9.2100000000000001E-002    0.36032140336799917     
   9.2399999999999996E-002    0.49910368102147828     
   9.2700000000000005E-002    0.64454878623522938     
   9.3000000000000013E-002    0.78898914022689592     
   9.3300000000000008E-002    0.92359065791983164     
   9.3600000000000003E-002     1.0389877957389806     
   9.3899999999999997E-002     1.1260199783708591     
   9.4200000000000006E-002     1.1761861997513621     
   9.4500000000000001E-002     1.1821280949593813     
   9.4800000000000009E-002     1.1382472611836638     
   9.5100000000000004E-002     1.0411136930798914     
   9.5399999999999999E-002    0.88971560793821969     
   9.5699999999999993E-002    0.68569662726916047     
   9.6000000000000002E-002    0.43349105719480557     
   9.6300000000000011E-002    0.14035590578729570     
   9.6600000000000005E-002   -0.18390412089091535     
   9.6900000000000000E-002   -0.52730546703060022     
   9.7200000000000009E-002   -0.87602219668335057     
   9.7499999999999989E-002    -1.2151231551701782     
   9.7799999999999998E-002    -1.5292585801549226     
   9.8100000000000007E-002    -1.8033419506320743     
   9.8400000000000015E-002    -2.0235715697432481     
   9.8699999999999996E-002    -2.1780569135785202     
   9.9000000000000005E-002    -2.2573839605269841     
   9.9300000000000013E-002    -2.2552491157879997     
   9.9599999999999994E-002    -2.1687668779569482     
   9.9900000000000003E-002    -1.9986078405349321     
  0.10020000000000001         -1.7489568971353806     
  0.10049999999999999         -1.4271992216703713     
  0.10080000000000000         -1.0437645769562769     
  0.10110000000000001        -0.61164321291272616     
  0.10140000000000000        -0.14560842372073265     
  0.10170000000000000         0.33808505524596322     
  0.10200000000000001         0.82233678566925461     
  0.10230000000000002          1.2899646789359758     
  0.10260000000000000          1.7241784208037179     
  0.10290000000000001          2.1092878553096899     
  0.10320000000000000          2.4313485015683858     
  0.10350000000000001          2.6785211597989833     
  0.10380000000000000          2.8417310466676526     
  0.10410000000000001          2.9151873718345693     
  0.10440000000000001          2.8964566073847626     
  0.10470000000000000          2.7864866899312366     
  0.10500000000000000          2.5896030997437327     
  0.10530000000000000          2.3132920277326403     
  0.10560000000000000          1.9676570759569612     
  0.10590000000000001          1.5645765106494058     
  0.10620000000000000          1.1171011359684604     
  0.10650000000000001         0.63887464570843555     
  0.10679999999999999         0.14322994949905654     
  0.10710000000000000        -0.35736407221716221     
  0.10740000000000001        -0.85146998241742733     
  0.10770000000000000         -1.3288466762726010     
  0.10800000000000000         -1.7804291958901186     
  0.10830000000000001         -2.1979044126183540     
  0.10859999999999999         -2.5732387132279628     
  0.10890000000000000         -2.8982064724090555     
  0.10920000000000001         -3.1640317924116226     
  0.10950000000000001         -3.3610628362827408     
  0.10979999999999999         -3.4788318092339696     
  0.11009999999999999         -3.5064391709892231     
  0.11040000000000001         -3.4332470462012057     
  0.11070000000000001         -3.2499773654649071     
  0.11100000000000000         -2.9500045420199066     
  0.11130000000000000         -2.5308435317576921     
  0.11160000000000002         -1.9955087613597220     
  0.11190000000000001         -1.3536449790515044     
  0.11220000000000001        -0.62242949809743731     
  0.11250000000000000         0.17336308775555398     
  0.11280000000000000          1.0019024234164391     
  0.11309999999999999          1.8255027651577498     
  0.11340000000000001          2.6026274684388730     
  0.11369999999999998          3.2905801748188974     
  0.11400000000000000          3.8484082054751756     
  0.11430000000000000          4.2401097612225254     
  0.11460000000000002          4.4377216260882193     
  0.11489999999999999          4.4238229670408833     
  0.11520000000000001          4.1934040474048810     
  0.11550000000000001          3.7548597156480827     
  0.11580000000000000          3.1298654670187593     
  0.11609999999999999          2.3521400645503183     
  0.11640000000000002          1.4653867917870602     
  0.11670000000000001         0.52039214096984110     
  0.11700000000000001        -0.42850755680371921     
  0.11730000000000000         -1.3271952756627605     
  0.11760000000000000         -2.1254707854110424     
  0.11789999999999999         -2.7802432518436557     
  0.11820000000000001         -3.2582638075556116     
  0.11850000000000001         -3.5379993870492301     
  0.11880000000000000         -3.6106488680854207     
  0.11910000000000000         -3.4803981224575944     
  0.11940000000000002         -3.1635993079841018     
  0.11970000000000001         -2.6871917627922741     
  0.12000000000000001         -2.0867741931373294     
  0.12030000000000000         -1.4039530065125185     
  0.12060000000000000        -0.68353481378772152     
  0.12089999999999999          2.9222582983317674E-002
  0.12119999999999999         0.69158027694119095     
  0.12150000000000001          1.2658900829788129     
  0.12180000000000001          1.7218508181221170     
  0.12210000000000000          2.0382513221260568     
  0.12239999999999999          2.2039197916756597     
  0.12270000000000002          2.2181895962540961     
  0.12300000000000001          2.0907421608767525     
  0.12330000000000001          1.8403761024345462     
  0.12360000000000000          1.4935272606700878     
  0.12390000000000000          1.0820214984044321     
  0.12419999999999999         0.64009681694008225     
  0.12450000000000001         0.20213896797132525     
  0.12480000000000001        -0.19981766666237022     
  0.12509999999999999        -0.53882600652722545     
  0.12540000000000001        -0.79484564625275667     
  0.12570000000000003        -0.95564532186379303     
  0.12600000000000000         -1.0171469648801137     
  0.12630000000000002        -0.98340384539727399     
  0.12659999999999999        -0.86596850824149496     
  0.12690000000000001        -0.68220708568502464     
  0.12719999999999998        -0.45337890514895329     
  0.12750000000000000        -0.20309372368482437     
  0.12780000000000002          4.4575852311302691E-002
  0.12809999999999999         0.26681133296905735     
  0.12840000000000001         0.44350018725095575     
  0.12869999999999998         0.55851501429560402     
  0.12900000000000000         0.60042689575625352     
  0.12930000000000003         0.56301539152138869     
  0.12959999999999999         0.44558798821226481     
  0.12990000000000002         0.25323944870861681     
  0.13019999999999998         -3.2856149825754299E-003
  0.13050000000000000        -0.30829378453102912     
  0.13080000000000003        -0.64156873186509100     
  0.13109999999999999        -0.97916357608518945     
  0.13140000000000002         -1.2949796402709592     
  0.13169999999999998         -1.5623368420156492     
  0.13200000000000001         -1.7557284902986190     
  0.13229999999999997         -1.8528427314998828     
  0.13260000000000000         -1.8364988411975383     
  0.13290000000000002         -1.6966193030268479     
  0.13319999999999999         -1.4314019512245826     
  0.13350000000000001         -1.0480531987552602     
  0.13380000000000003        -0.56305042947556960     
  0.13410000000000000         -1.1768672401060165E-003
  0.13440000000000002         0.60593723179717141     
  0.13469999999999999          1.2220353618406585     
  0.13500000000000001          1.8090278954399954     
  0.13529999999999998          2.3296246736370305     
  0.13560000000000000          2.7502514605004569     
  0.13590000000000002          3.0439302512588897     
  0.13619999999999999          3.1921298762906773     
  0.13650000000000001          3.1858487257562071     
  0.13680000000000003          3.0260110868931989     
  0.13710000000000000          2.7235573797633061     
  0.13740000000000002          2.2984909981385933     
  0.13769999999999999          1.7776268577050924     
  0.13800000000000001          1.1923945883775815     
  0.13829999999999998         0.57671290496593053     
  0.13860000000000000         -3.5263221440913622E-002
  0.13890000000000002        -0.61161506429343859     
  0.13919999999999999         -1.1251745474652226     
  0.13950000000000001         -1.5548823832696872     
  0.13979999999999998         -1.8863004855030794     
  0.14010000000000000         -2.1123172040447380     
  0.14040000000000002         -2.2334024594710584     
  0.14069999999999999         -2.2568250308537050     
  0.14100000000000001         -2.1950835664179480     
  0.14130000000000004         -2.0641821117663550     
  0.14160000000000000         -1.8823409938736337     
  0.14189999999999997         -1.6681857107272466     
  0.14219999999999999         -1.4386137555018910     
  0.14250000000000002         -1.2075334346989433     
  0.14279999999999998        -0.98491353593541930     
  0.14310000000000000        -0.77635797092539638     
  0.14339999999999997        -0.58349082866260371     
  0.14369999999999999        -0.40437129836966396     
  0.14400000000000002        -0.23457803910084596     
  0.14429999999999998         -6.8951937935313401E-002
  0.14460000000000001          9.7126925865821029E-002
  0.14490000000000003         0.26634840121377890     
  0.14520000000000000         0.43852378500808836     
  0.14550000000000002         0.61037446529817674     
  0.14579999999999999         0.77535235146483394     
  0.14610000000000001         0.92464504055712293     
  0.14640000000000003          1.0483357426270468     
  0.14670000000000000          1.1365751193785354     
  0.14699999999999996          1.1815550557460288     
  0.14729999999999999          1.1790563627186532     
  0.14760000000000001          1.1290172811268722     
  0.14789999999999998          1.0357460514889834     
  0.14820000000000000         0.90794234177961342     