  -1.4999999999999999E-002     0.0000000000000000     
  -1.4700000000000000E-002     0.0000000000000000     
  -1.4400000000000000E-002     0.0000000000000000     
  -1.4100000000000000E-002     0.0000000000000000     
  -1.3800000000000000E-002     0.0000000000000000     
  -1.3500000000000000E-002     0.0000000000000000     
  -1.3200000000000000E-002     0.0000000000000000     
  -1.2899999999999998E-002     0.0000000000000000     
  -1.2600000000000000E-002     0.0000000000000000     
  -1.2299999999999998E-002     0.0000000000000000     
  -1.2000000000000000E-002     0.0000000000000000     
  -1.1699999999999999E-002     0.0000000000000000     
  -1.1399999999999999E-002     0.0000000000000000     
  -1.1099999999999999E-002     0.0000000000000000     
  -1.0799999999999999E-002     0.0000000000000000     
  -1.0499999999999999E-002     0.0000000000000000     
  -1.0199999999999999E-002     0.0000000000000000     
  -9.8999999999999991E-003     0.0000000000000000     
  -9.5999999999999992E-003     0.0000000000000000     
  -9.2999999999999992E-003     0.0000000000000000     
  -8.9999999999999993E-003     0.0000000000000000     
  -8.6999999999999994E-003     0.0000000000000000     
  -8.3999999999999995E-003     0.0000000000000000     
  -8.0999999999999996E-003     4.5128370777075049E-042
  -7.7999999999999988E-003     4.8027490093972455E-042
  -7.4999999999999997E-003     3.5239751852765527E-038
  -7.1999999999999998E-003    -1.7610136462841501E-037
  -6.8999999999999981E-003     5.3631066527203217E-037
  -6.5999999999999982E-003    -1.0199716524119155E-036
  -6.3000000000000000E-003     1.6564127772748273E-035
  -6.0000000000000001E-003    -1.3632577141557354E-034
  -5.6999999999999985E-003     8.2359351532518810E-034
  -5.3999999999999986E-003    -3.1227873374575519E-033
  -5.1000000000000004E-003    -1.5789948883328877E-032
  -4.7999999999999987E-003     2.8125756544518111E-031
  -4.5000000000000005E-003    -1.9670751799914088E-030
  -4.1999999999999989E-003     8.8867706886747577E-030
  -3.8999999999999990E-003    -2.8312496466320192E-029
  -3.5999999999999990E-003     6.5710311002545857E-029
  -3.2999999999999991E-003    -1.2077075042288299E-028
  -2.9999999999999992E-003     2.4722996357484359E-028
  -2.6999999999999993E-003    -7.9253909411427016E-028
  -2.3999999999999994E-003     2.7832216483718423E-027
  -2.0999999999999977E-003    -7.8429924171563598E-027
  -1.7999999999999995E-003     1.6339845333589444E-026
  -1.4999999999999979E-003    -2.3342379127338137E-026
  -1.1999999999999997E-003     1.6937845522997541E-026
  -8.9999999999999976E-004     8.5724465171875154E-027
  -5.9999999999999810E-004    -1.0986688306043500E-026
  -2.9999999999999992E-004    -1.6334481565769570E-025
   0.0000000000000000          8.0920030884630402E-025
   3.0000000000000165E-004    -2.2205033126424250E-024
   5.9999999999999984E-004     4.1021565629742366E-024
   9.0000000000000149E-004    -4.0429750681306852E-024
   1.2000000000000031E-003    -5.6946130962179179E-024
   1.5000000000000013E-003     4.3874808003206460E-023
   1.8000000000000030E-003    -1.4866797455205887E-022
   2.1000000000000012E-003     3.8650091311414519E-022
   2.3999999999999994E-003    -8.5166549513360290E-022
   2.7000000000000010E-003     1.6246049772210886E-021
   2.9999999999999992E-003    -2.6056878567057209E-021
   3.3000000000000008E-003     3.1132702901718931E-021
   3.6000000000000025E-003    -1.5802789634019534E-021
   3.9000000000000007E-003    -1.5499152429191028E-021
   4.2000000000000023E-003    -1.5917012712208930E-020
   4.5000000000000005E-003     1.7908611280772394E-019
   4.7999999999999987E-003    -9.7583813279076614E-019
   5.1000000000000004E-003     3.9355128720046128E-018
   5.4000000000000020E-003    -1.2980510311974610E-017
   5.7000000000000037E-003     3.5532512720478745E-017
   5.9999999999999984E-003    -7.5070442884014345E-017
   6.3000000000000000E-003     7.4054397819529379E-017
   6.6000000000000017E-003     3.5153809036755992E-016
   6.9000000000000034E-003    -2.8713640015396386E-015
   7.2000000000000015E-003     1.3041393099967806E-014
   7.5000000000000032E-003    -4.3559431803929715E-014
   7.8000000000000014E-003     9.6783247660492493E-014
   8.0999999999999996E-003    -1.7949957730773268E-015
   8.4000000000000012E-003    -1.3549334491007310E-012
   8.7000000000000029E-003     8.3646998113277324E-012
   9.0000000000000011E-003    -3.1857390703345464E-011
   9.2999999999999992E-003     7.8380241130172762E-011
   9.6000000000000009E-003    -7.1075410409386292E-011
   9.8999999999999991E-003    -3.5410558304612982E-010
   1.0200000000000001E-002     1.8351810764943450E-009
   1.0500000000000002E-002    -3.5149592465111505E-009
   1.0800000000000004E-002    -1.5113704373544731E-009
   1.1099999999999999E-002     2.3529130619035028E-008
   1.1400000000000000E-002    -3.9753087711751446E-008
   1.1700000000000002E-002    -4.4643721322736381E-008
   1.2000000000000004E-002     2.2674190450146177E-007
   1.2300000000000002E-002    -4.2348282558161076E-008
   1.2600000000000000E-002    -7.9629916136976009E-007
   1.2900000000000002E-002     3.1522564450137058E-007
   1.3200000000000000E-002     2.4009542653919738E-006
   1.3500000000000002E-002    -1.1785981944442665E-007
   1.3800000000000003E-002    -6.9318520521354090E-006
   1.4100000000000001E-002    -5.0657353614868173E-006
   1.4400000000000000E-002     2.1337570811543766E-005
   1.4700000000000001E-002     7.5241869465477731E-005
   1.4999999999999999E-002     1.4670668274759552E-004
   1.5300000000000001E-002     2.3091158779843979E-004
   1.5600000000000003E-002     3.4129828147803838E-004
   1.5899999999999997E-002     5.0941099367893749E-004
   1.6199999999999999E-002     7.8112210049975477E-004
   1.6500000000000001E-002     1.2113076365961538E-003
   1.6800000000000002E-002     1.8635443473835511E-003
   1.7100000000000004E-002     2.8211381228323180E-003
   1.7400000000000006E-002     4.2008991897536365E-003
   1.7700000000000000E-002     6.1646827013727675E-003
   1.8000000000000002E-002     8.9268555540216697E-003
   1.8300000000000004E-002     1.2754960824009967E-002
   1.8600000000000005E-002     1.7967911822892604E-002
   1.8900000000000000E-002     2.4934256543907282E-002
   1.9200000000000002E-002     3.4069276319361130E-002
   1.9500000000000003E-002     4.5821709230216834E-002
   1.9799999999999998E-002     6.0635436726399095E-002
   2.0100000000000000E-002     7.8894091691705914E-002
   2.0400000000000001E-002    0.10085662123492195     
   2.0700000000000003E-002    0.12657688976254305     
   2.0999999999999998E-002    0.15579457409247097     
   2.1299999999999999E-002    0.18780318050233938     
   2.1600000000000001E-002    0.22132922007524736     
   2.1900000000000003E-002    0.25441012909427096     
   2.2200000000000004E-002    0.28429992170667762     
   2.2500000000000006E-002    0.30743178623385681     
   2.2800000000000001E-002    0.31942915285810020     
   2.3100000000000002E-002    0.31525072145760458     
   2.3400000000000004E-002    0.28940663910305364     
   2.3699999999999999E-002    0.23630397727190733     
   2.4000000000000000E-002    0.15075355353686079     
   2.4300000000000002E-002     2.8541483041757083E-002
   2.4599999999999997E-002   -0.13287779255106480     
   2.4900000000000005E-002   -0.33368566352173451     
   2.5200000000000000E-002   -0.57106453811800240     
   2.5499999999999995E-002   -0.83869698569143147     
   2.5800000000000003E-002    -1.1264631955874038     
   2.6099999999999998E-002    -1.4204642658980065     
   2.6400000000000007E-002    -1.7034142212382717     
   2.6700000000000002E-002    -1.9553874410145760     
   2.6999999999999996E-002    -2.1549962879141975     
   2.7300000000000005E-002    -2.2808936535092830     
   2.7600000000000000E-002    -2.3135180606749919     
   2.7900000000000008E-002    -2.2368949606574029     
   2.8200000000000003E-002    -2.0404610068777065     
   2.8499999999999998E-002    -1.7204028569662684     
   2.8800000000000006E-002    -1.2808644839778975     
   2.9100000000000001E-002   -0.73427767106478059     
   2.9400000000000003E-002   -0.10103512447118373     
   2.9700000000000004E-002    0.59111582585319722     
   3.0000000000000006E-002     1.3091095987994685     
   3.0300000000000001E-002     2.0165407410195257     
   3.0600000000000002E-002     2.6761194526155099     
   3.0900000000000004E-002     3.2526268540647232     
   3.1199999999999999E-002     3.7152004796370228     
   3.1500000000000007E-002     4.0395129078636129     
   3.1800000000000002E-002     4.2096915029360282     
   3.2099999999999997E-002     4.2190154197597733     
   3.2400000000000005E-002     4.0703176601761095     
   3.2700000000000000E-002     3.7754836000011229     
   3.3000000000000002E-002     3.3539927277162169     
   3.3300000000000003E-002     2.8313665341341530     
   3.3599999999999998E-002     2.2371152872799445     
   3.3900000000000000E-002     1.6022970818907167     
   3.4200000000000001E-002    0.95764658703544714     
   3.4500000000000003E-002    0.33159800369877007     
   3.4799999999999998E-002   -0.25152365394713833     
   3.5099999999999999E-002   -0.77217561748156149     
   3.5400000000000001E-002    -1.2164873506264038     
   3.5699999999999996E-002    -1.5763926921110281     
   3.6000000000000004E-002    -1.8491804682418360     
   3.6299999999999999E-002    -2.0372787494382538     
   3.6600000000000008E-002    -2.1473370910831111     
   3.6900000000000002E-002    -2.1890859091348007     
   3.7199999999999997E-002    -2.1749832769957402     
   3.7500000000000006E-002    -2.1189068489597260     
   3.7800000000000000E-002    -2.0354012176079692     
   3.8100000000000009E-002    -1.9391634724825400     
   3.8400000000000004E-002    -1.8439987443824397     
   3.8699999999999998E-002    -1.7622731069741158     
   3.9000000000000007E-002    -1.7043985198429930     
   3.9300000000000002E-002    -1.6777390759690527     
   3.9600000000000003E-002    -1.6862379978413147     
   3.9900000000000005E-002    -1.7298080703494580     
   4.0200000000000000E-002    -1.8035055357409200     
   4.0500000000000001E-002    -1.8976957470370963     
   4.0800000000000003E-002    -1.9978809898652461     
   4.1100000000000005E-002    -2.0850194329997418     
   4.1399999999999999E-002    -2.1371559822145301     
   4.1700000000000008E-002    -2.1302864918927651     
   4.2000000000000003E-002    -2.0404074354611281     
   4.2299999999999997E-002    -1.8462206404172758     
   4.2600000000000006E-002    -1.5309263330802034     
   4.2900000000000001E-002    -1.0851660979360864     
   4.3200000000000002E-002   -0.50909796638131410     
   4.3500000000000004E-002    0.18670036630804496     
   4.3799999999999999E-002    0.98008381795405475     
   4.4100000000000000E-002     1.8380928605305766     
   4.4400000000000002E-002     2.7185261194265888     
   4.4700000000000004E-002     3.5720762007876630     
   4.4999999999999998E-002     4.3461951917842381     
   4.5300000000000000E-002     4.9887319030249788     
   4.5600000000000002E-002     5.4520275416296089     
   4.5899999999999996E-002     5.6972356219540856     
   4.6200000000000005E-002     5.6974917605954829     
   4.6500000000000000E-002     5.4402209862618971     
   4.6799999999999994E-002     4.9287940403702049     
   4.7100000000000003E-002     4.1822529752802549     
   4.7399999999999998E-002     3.2337693728405301     
   4.7700000000000006E-002     2.1286389035266962     
   4.8000000000000001E-002    0.92043237818385237     
   4.8300000000000010E-002   -0.33276397700598115     
   4.8600000000000004E-002    -1.5720898987415497     
   4.8899999999999999E-002    -2.7421238943755930     
   4.9200000000000008E-002    -3.7940763153881640     
   4.9500000000000002E-002    -4.6874591444250999     
   4.9800000000000011E-002    -5.3926531418331862     
   5.0100000000000006E-002    -5.8903452842524437     
   5.0400000000000000E-002    -6.1711627112765077     
   5.0700000000000009E-002    -6.2355941261106445     
   5.1000000000000004E-002    -6.0907556424051688     
   5.1299999999999998E-002    -5.7498974554840210     
   5.1600000000000007E-002    -5.2308423193570759     
   5.1900000000000002E-002    -4.5536310748196742     
   5.2200000000000010E-002    -3.7414296946024361     
   5.2500000000000005E-002    -2.8190974614817907     
   5.2800000000000000E-002    -1.8132557799160227     
   5.3099999999999994E-002   -0.75362618847095897     
   5.3400000000000003E-002    0.32786347556385348     
   5.3699999999999998E-002     1.3962840116938269     
   5.4000000000000006E-002     2.4137384081067843     
   5.4300000000000001E-002     3.3412461870746699     
   5.4599999999999996E-002     4.1393715925221208     
   5.4900000000000004E-002     4.7707237577989172     
   5.5199999999999999E-002     5.2029590513619048     
   5.5499999999999994E-002     5.4110873556873056     
   5.5800000000000002E-002     5.3802518183321562     
   5.6099999999999997E-002     5.1085730426115159     
   5.6400000000000006E-002     4.6078779036981281     
   5.6700000000000000E-002     3.9045010358405552     
   5.6999999999999995E-002     3.0390092354022733     
   5.7300000000000004E-002     2.0630237823084951     
   5.7599999999999998E-002     1.0370500600546120     
   5.7900000000000007E-002     2.6250802226085945E-002
   5.8200000000000002E-002   -0.90537681834183825     
   5.8499999999999996E-002    -1.6982818126059882     
   5.8800000000000005E-002    -2.3034649542141281     
   5.9100000000000000E-002    -2.6863727740791266     
   5.9400000000000008E-002    -2.8284139666697286     
   5.9700000000000003E-002    -2.7306266435846909     
   6.0000000000000012E-002    -2.4122014252917934     
   6.0300000000000006E-002    -1.9086686766971850     
   6.0600000000000001E-002    -1.2704966090540866     
   6.0900000000000010E-002   -0.55707515645882610     
   6.1200000000000004E-002    0.16754337243186229     
   6.1500000000000013E-002    0.83943271399890362     
   6.1800000000000008E-002     1.4016403637951813     
   6.2100000000000002E-002     1.8075767616398681     
   6.2399999999999997E-002     2.0249916237977370     
   6.2700000000000006E-002     2.0394689851229773     
   6.3000000000000000E-002     1.8541703526878708     
   6.3300000000000009E-002     1.4903077936773710     
   6.3600000000000004E-002    0.98551263651077026     
   6.3899999999999998E-002    0.38926715416072444     
   6.4199999999999993E-002   -0.23993050290573834     
   6.4500000000000002E-002   -0.83983290723522575     
   6.4800000000000010E-002    -1.3509707267184345     
   6.5100000000000005E-002    -1.7200085264860183     
   6.5400000000000000E-002    -1.9055969099365031     
   6.5700000000000008E-002    -1.8826782430043001     
   6.5999999999999989E-002    -1.6432332408887618     
   6.6299999999999998E-002    -1.1994481004989686     
   6.6600000000000006E-002   -0.58215449037297640     
   6.6900000000000001E-002    0.16236981719831622     
   6.7199999999999996E-002    0.97378457902277094     
   6.7500000000000004E-002     1.7852814777332788     
   6.7800000000000013E-002     2.5283113768799605     
   6.8099999999999994E-002     3.1377194628721647     
   6.8400000000000002E-002     3.5603952806820600     
   6.8700000000000011E-002     3.7575142803549548     
   6.8999999999999992E-002     3.7091864139535167     
   6.9300000000000000E-002     3.4173586762707062     
   6.9600000000000009E-002     2.9033190038863257     
   6.9900000000000004E-002     2.2074900218684963     
   7.0199999999999999E-002     1.3843620278536604     
   7.0500000000000007E-002    0.49661107639748048     
   7.0800000000000016E-002   -0.38970774206885461     
   7.1099999999999997E-002    -1.2131698316421446     
   7.1400000000000005E-002    -1.9217678366894919     
   7.1700000000000000E-002    -2.4775956408220470     
   7.1999999999999995E-002    -2.8603729027545257     
   7.2300000000000003E-002    -3.0680464530299227     
   7.2600000000000012E-002    -3.1159342331022053     
   7.2900000000000006E-002    -3.0343554080327699     
   7.3200000000000001E-002    -2.8645106008089951     
   7.3499999999999996E-002    -2.6532739689462863     
   7.3800000000000004E-002    -2.4486506830959192     
   7.4099999999999999E-002    -2.2944304295304150     
   7.4400000000000008E-002    -2.2259054739013981     
   7.4700000000000003E-002    -2.2677002682654348     
   7.5000000000000011E-002    -2.4312524747059658     
   7.5299999999999992E-002    -2.7151658314648905     
   7.5600000000000001E-002    -3.1060182604466426     
   7.5900000000000009E-002    -3.5793700663610615     
   7.6200000000000004E-002    -4.1034089874097930     
   7.6499999999999999E-002    -4.6404667010498049     
   7.6800000000000007E-002    -5.1498768203166012     
   7.7099999999999988E-002    -5.5911465354057484     
   7.7399999999999997E-002    -5.9245458901210366     
   7.7700000000000005E-002    -6.1140744238018394     
   7.8000000000000014E-002    -6.1277402427970395     
   7.8299999999999995E-002    -5.9389032709007585     
   7.8600000000000003E-002    -5.5273158006042191     
   7.8900000000000012E-002    -4.8795117384171203     
   7.9199999999999993E-002    -3.9906294249563290     
   7.9500000000000001E-002    -2.8644800480358490     
   7.9800000000000010E-002    -1.5148934337421449     
   8.0100000000000018E-002     3.2965855818598566E-002
   8.0399999999999999E-002     1.7436266893604535     
   8.0700000000000008E-002     3.5696710854833982     
   8.1000000000000003E-002     5.4539115537940059     
   8.1299999999999997E-002     7.3311659965471501     
   8.1600000000000006E-002     9.1293642536678750     
   8.1900000000000014E-002     10.774735503285534     
   8.2199999999999995E-002     12.194175759862599     
   8.2500000000000004E-002     13.319895632983119     
   8.2799999999999999E-002     14.094171574901184     
   8.3100000000000007E-002     14.471826953634920     
   8.3400000000000002E-002     14.424083852299084     
   8.3700000000000011E-002     13.940646889108125     
   8.4000000000000005E-002     13.030093071057507     
   8.4300000000000000E-002     11.719543244148573     
   8.4599999999999995E-002     10.054378846682356     
   8.4900000000000003E-002     8.0938665275793849     
   8.5199999999999998E-002     5.9087896548133347     
   8.5500000000000007E-002     3.5796394607404816     
   8.5800000000000001E-002     1.1884540594772295     
   8.6100000000000010E-002    -1.1807925470814586     
   8.6399999999999991E-002    -3.4462813907815537     
   8.6699999999999999E-002    -5.5346995078461294     
   8.7000000000000008E-002    -7.3776856794714281     
   8.7300000000000003E-002    -8.9181690671385532     
   8.7599999999999997E-002    -10.110662761313153     
   8.7900000000000006E-002    -10.919229612760063     
   8.8200000000000014E-002    -11.323351079514200     
   8.8499999999999995E-002    -11.314804038893699     
   8.8800000000000004E-002    -10.898171683701648     
   8.9100000000000013E-002    -10.095369205165669     
   8.9399999999999993E-002    -8.9407858853086797     
   8.9700000000000002E-002    -7.4842469961265792     
   9.0000000000000011E-002    -5.7913479106359986     
   9.0299999999999991E-002    -3.9386157371872779     
   9.0600000000000000E-002    -2.0139118511330114     
   9.0900000000000009E-002   -0.11246068626362038     
   9.1200000000000017E-002     1.6687145992556145     
   9.1499999999999998E-002     3.2348732964725979     
   9.1800000000000007E-002     4.4992381830205375     
   9.2100000000000001E-002     5.3897145746524568     
   9.2399999999999996E-002     5.8533552885817937     
   9.2700000000000005E-002     5.8614032064154671     
   9.3000000000000013E-002     5.4126895615127628     
   9.3300000000000008E-002     4.5335195422796986     
   9.3600000000000003E-002     3.2790687155222762     
   9.3899999999999997E-002     1.7296212673926430     
   9.4200000000000006E-002    -1.5325781454061826E-002
   9.4500000000000001E-002    -1.8406786192653919     
   9.4800000000000009E-002    -3.6255157905126540     
   9.5100000000000004E-002    -5.2508342838201649     
   9.5399999999999999E-002    -6.6068293312501316     
   9.5699999999999993E-002    -7.6020576586875208     
   9.6000000000000002E-002    -8.1693783081982669     
   9.6300000000000011E-002    -8.2709504908912201     
   9.6600000000000005E-002    -7.9003814770081551     
   9.6900000000000000E-002    -7.0845444307893590     
   9.7200000000000009E-002    -5.8806467025879066     
   9.7499999999999989E-002    -4.3719467657631172     
   9.7799999999999998E-002    -2.6634170984681589     
   9.8100000000000007E-002   -0.87117235227634460     
   9.8400000000000015E-002    0.88381030008868988     
   9.8699999999999996E-002     2.4854634663240178     
   9.9000000000000005E-002     3.8333877705350465     
   9.9300000000000013E-002     4.8463744006919693     
   9.9599999999999994E-002     5.4723413345724232     
   9.9900000000000003E-002     5.6910803975516213     
  0.10020000000000001          5.5129315169419550     
  0.10049999999999999          4.9822505324195152     
  0.10080000000000000          4.1691589024554556     
  0.10110000000000001          3.1638259312710915     
  0.10140000000000000          2.0716438851835104     
  0.10170000000000000         0.99909529011608611     
  0.10200000000000001          4.7490730694176753E-002
  0.10230000000000002        -0.69594183958298683     
  0.10260000000000000         -1.1683574054325023     
  0.10290000000000001         -1.3332965826019465     
  0.10320000000000000         -1.1852634529141852     
  0.10350000000000001        -0.75017487664398352     
  0.10380000000000000         -7.9611934580066379E-002
  0.10410000000000001         0.75242299705595328     
  0.10440000000000001          1.6574465273062422     
  0.10470000000000000          2.5446289373429121     
  0.10500000000000000          3.3261599488510836     
  0.10530000000000000          3.9276118624021095     
  0.10560000000000000          4.2977091973694996     
  0.10590000000000001          4.4075397681485367     
  0.10620000000000000          4.2571621606026255     
  0.10650000000000001          3.8738655629431289     
  0.10679999999999999          3.3040907417871725     
  0.10710000000000000          2.6136759361321009     
  0.10740000000000001          1.8748057363018891     
  0.10770000000000000          1.1584338614984298     
  0.10800000000000000         0.53056288974058996     
  0.10830000000000001          3.8399818347728015E-002
  0.10859999999999999        -0.28813111597331076     
  0.10890000000000000        -0.43918608843629481     
  0.10920000000000001        -0.42898909736309176     
  0.10950000000000001        -0.28609986460952380     
  0.10979999999999999         -5.3076842792679435E-002
  0.11009999999999999         0.22024230617126281     
  0.11040000000000001         0.48633789613711592     
  0.11070000000000001         0.70071832715064908     
  0.11100000000000000         0.83063640235771530     
  0.11130000000000000         0.85685206853076390     
  0.11160000000000002         0.77227442223813458     
  0.11190000000000001         0.58507250378525044     
  0.11220000000000001         0.31350673105636917     
  0.11250000000000000         -1.7982197884110845E-002
  0.11280000000000000        -0.37989520843930041     
  0.11309999999999999        -0.74422214980585577     
  0.11340000000000001         -1.0872481373958898     
  0.11369999999999998         -1.3897622216870638     
  0.11400000000000000         -1.6410256597721469     
  0.11430000000000000         -1.8377450778773317     
  0.11460000000000002         -1.9823385764202484     
  0.11489999999999999         -2.0840759819334775     
  0.11520000000000001         -2.1546452469736552     
  0.11550000000000001         -2.2076061817524120     
  0.11580000000000000         -2.2572127256467804     
  0.11609999999999999         -2.3139781948163747     
  0.11640000000000002         -2.3868648195372151     
  0.11670000000000001         -2.4808056785252308     
  0.11700000000000001         -2.5954612621836448     
  0.11730000000000000         -2.7278090762131995     
  0.11760000000000000         -2.8700430522816687     
  0.11789999999999999         -3.0115156532796004     
  0.11820000000000001         -3.1409022700830853     
  0.11850000000000001         -3.2462027287840334     
  0.11880000000000000         -3.3169115865916670     
  0.11910000000000000         -3.3454004354544642     
  0.11940000000000002         -3.3284403465376786     
  0.11970000000000001         -3.2665994616077305     
  0.12000000000000001         -3.1646946768880109     
  0.12030000000000000         -3.0310583871486374     
  0.12060000000000000         -2.8748992188339413     
  0.12089999999999999         -2.7058075659527820     
  0.12119999999999999         -2.5294756638252411     
  0.12150000000000001         -2.3477517676607671     
  0.12180000000000001         -2.1579503310814214     
  0.12210000000000000         -1.9497313417266344     
  0.12239999999999999         -1.7111064336251420     
  0.12270000000000002         -1.4272327315444071     
  0.12300000000000001         -1.0835632824015120     
  0.12330000000000001        -0.67275699263570532     
  0.12360000000000000        -0.19166259307224576     
  0.12390000000000000         0.35218611352375140     
  0.12419999999999999         0.94220747284568396     
  0.12450000000000001          1.5571296124545588     
  0.12480000000000001          2.1691679166249402     
  0.12509999999999999          2.7532784573071734     
  0.12540000000000001          3.2901362532156631     
  0.12570000000000003          3.7690244758752414     
  0.12600000000000000          4.1939850267805117     
  0.12630000000000002          4.5814433438607498     
  0.12659999999999999          4.9593369780466912     
  0.12690000000000001          5.3633225851380306     
  0.12719999999999998          5.8284670534472163     
  0.12750000000000000          6.3827859988947404     
  0.12780000000000002          7.0402952555014719     
  0.12809999999999999          7.7937861980851402     
  0.12840000000000001          8.6121986921137967     
  0.12869999999999998          9.4421569893775512     
  0.12900000000000000          10.209462204812400     
  0.12930000000000003          10.828367350566491     
  0.12959999999999999          11.213276385596362     
  0.12990000000000002          11.287195775914316     
  0.13019999999999998          10.996314488785231     
  0.13050000000000000          10.317815229424372     
  0.13080000000000003          9.2646996122662770     
  0.13109999999999999          7.8894870238878294     
  0.13140000000000002          6.2764382719220109     
  0.13169999999999998          4.5336041538910870     
  0.13200000000000001          2.7794611761562553     
  0.13229999999999997          1.1237536751282229     
  0.13260000000000000        -0.34791162501531919     
  0.13290000000000002         -1.5888975636095815     
  0.13319999999999999         -2.6055832900365630     
  0.13350000000000001         -3.4587914716552608     
  0.13380000000000003         -4.2633215904034829     
  0.13410000000000000         -5.1765617838792588     
  0.13440000000000002         -6.3781014960619711     
  0.13469999999999999         -8.0476650589719814     
  0.13500000000000001         -10.336042765353112     
  0.13529999999999998         -13.333924035995825     
  0.13560000000000000         -17.050833176311549     
  0.13590000000000002         -21.394162811896159     
  0.13619999999999999         -26.159991653606181     
  0.13650000000000001         -31.042071733541363     
  0.13680000000000003         -35.642743500804372     
  0.13710000000000000         -39.503493809196030     
  0.13740000000000002         -42.147760844604129     
  0.13769999999999999         -43.120075525536407     
  0.13800000000000001         -42.038106486767937     
  0.13829999999999998         -38.637764800052771     
  0.13860000000000000         -32.804508900199174     
  0.13890000000000002         -24.604462027362814     
  0.13919999999999999         -14.289966246481640     
  0.13950000000000001         -2.2898956872479808     
  0.13979999999999998          10.808110257039829     
  0.14010000000000000          24.302506268642681     
  0.14040000000000002          37.427313960139436     
  0.14069999999999999          49.403139710279000     
  0.14100000000000001          59.504088751584916     
  0.14130000000000004          67.106215314025732     
  0.14160000000000000          71.732420585188649     
  0.14189999999999997          73.094146552945631     
  0.14219999999999999          71.098838145142864     
  0.14250000000000002          65.860898678173939     
  0.14279999999999998          57.690822693692468     
  0.14310000000000000          47.058814528920564     
  0.14339999999999997          34.571311917782161     
  0.14369999999999999          20.921613351373015     
  0.14400000000000002          6.8364109475053336     
  0.14429999999999998         -6.9576711696754572     
  0.14460000000000001         -19.787682140794242     
  0.14490000000000003         -31.073373543688355     
  0.14520000000000000         -40.344702153968022     
  0.14550000000000002         -47.274506349252057     
  0.14579999999999999         -51.681959491120502     
  0.14610000000000001         -53.529453014029770     
  0.14640000000000003         -52.925044709612649     
  0.14670000000000000         -50.093275312875896     
  0.14699999999999996         -45.359054676965549     
  0.14729999999999999         -39.123951746900794     
  0.14760000000000001         -31.827553029846200     
  0.14789999999999998         -23.927349710069596     
  0.14820000000000000         -15.868721682133309     