  -1.4999999999999999E-002     0.0000000000000000     
  -1.4700000000000000E-002     0.0000000000000000     
  -1.4400000000000000E-002     0.0000000000000000     
  -1.4100000000000000E-002     0.0000000000000000     
  -1.3800000000000000E-002     0.0000000000000000     
  -1.3500000000000000E-002     0.0000000000000000     
  -1.3200000000000000E-002     0.0000000000000000     
  -1.2899999999999998E-002     0.0000000000000000     
  -1.2600000000000000E-002     0.0000000000000000     
  -1.2299999999999998E-002     0.0000000000000000     
  -1.2000000000000000E-002     0.0000000000000000     
  -1.1699999999999999E-002     0.0000000000000000     
  -1.1399999999999999E-002     0.0000000000000000     
  -1.1099999999999999E-002     0.0000000000000000     
  -1.0799999999999999E-002     0.0000000000000000     
  -1.0499999999999999E-002     0.0000000000000000     
  -1.0199999999999999E-002     0.0000000000000000     
  -9.8999999999999991E-003     0.0000000000000000     
  -9.5999999999999992E-003     0.0000000000000000     
  -9.2999999999999992E-003     0.0000000000000000     
  -8.9999999999999993E-003     0.0000000000000000     
  -8.6999999999999994E-003     0.0000000000000000     
  -8.3999999999999995E-003     0.0000000000000000     
  -8.0999999999999996E-003     0.0000000000000000     
  -7.7999999999999988E-003     0.0000000000000000     
  -7.4999999999999997E-003     0.0000000000000000     
  -7.1999999999999998E-003     0.0000000000000000     
  -6.8999999999999981E-003     0.0000000000000000     
  -6.5999999999999982E-003     0.0000000000000000     
  -6.3000000000000000E-003     0.0000000000000000     
  -6.0000000000000001E-003     0.0000000000000000     
  -5.6999999999999985E-003     0.0000000000000000     
  -5.3999999999999986E-003     0.0000000000000000     
  -5.1000000000000004E-003     0.0000000000000000     
  -4.7999999999999987E-003     0.0000000000000000     
  -4.5000000000000005E-003     0.0000000000000000     
  -4.1999999999999989E-003     0.0000000000000000     
  -3.8999999999999990E-003     0.0000000000000000     
  -3.5999999999999990E-003     0.0000000000000000     
  -3.2999999999999991E-003     0.0000000000000000     
  -2.9999999999999992E-003     0.0000000000000000     
  -2.6999999999999993E-003     0.0000000000000000     
  -2.3999999999999994E-003     0.0000000000000000     
  -2.0999999999999977E-003     0.0000000000000000     
  -1.7999999999999995E-003     0.0000000000000000     
  -1.4999999999999979E-003     0.0000000000000000     
  -1.1999999999999997E-003     0.0000000000000000     
  -8.9999999999999976E-004     0.0000000000000000     
  -5.9999999999999810E-004     0.0000000000000000     
  -2.9999999999999992E-004     0.0000000000000000     
   0.0000000000000000          0.0000000000000000     
   3.0000000000000165E-004     0.0000000000000000     
   5.9999999999999984E-004     0.0000000000000000     
   9.0000000000000149E-004     0.0000000000000000     
   1.2000000000000031E-003     0.0000000000000000     
   1.5000000000000013E-003     0.0000000000000000     
   1.8000000000000030E-003     0.0000000000000000     
   2.1000000000000012E-003     0.0000000000000000     
   2.3999999999999994E-003     0.0000000000000000     
   2.7000000000000010E-003     0.0000000000000000     
   2.9999999999999992E-003     0.0000000000000000     
   3.3000000000000008E-003     0.0000000000000000     
   3.6000000000000025E-003     0.0000000000000000     
   3.9000000000000007E-003     0.0000000000000000     
   4.2000000000000023E-003     0.0000000000000000     
   4.5000000000000005E-003     0.0000000000000000     
   4.7999999999999987E-003     0.0000000000000000     
   5.1000000000000004E-003     0.0000000000000000     
   5.4000000000000020E-003     0.0000000000000000     
   5.7000000000000037E-003     0.0000000000000000     
   5.9999999999999984E-003     0.0000000000000000     
   6.3000000000000000E-003     0.0000000000000000     
   6.6000000000000017E-003     0.0000000000000000     
   6.9000000000000034E-003     0.0000000000000000     
   7.2000000000000015E-003     0.0000000000000000     
   7.5000000000000032E-003     0.0000000000000000     
   7.8000000000000014E-003     0.0000000000000000     
   8.0999999999999996E-003     0.0000000000000000     
   8.4000000000000012E-003     0.0000000000000000     
   8.7000000000000029E-003     0.0000000000000000     
   9.0000000000000011E-003    -1.3173679865656979E-043
   9.2999999999999992E-003     1.1856807995332451E-041
   9.6000000000000009E-003     2.5157278753746878E-038
   9.8999999999999991E-003     7.0025637350470998E-037
   1.0200000000000001E-002    -8.7800794652427147E-037
   1.0500000000000002E-002    -1.3270156137366766E-034
   1.0800000000000004E-002     6.3898750851517087E-034
   1.1099999999999999E-002     5.6356737466360204E-033
   1.1400000000000000E-002    -3.7167965059312893E-032
   1.1700000000000002E-002    -1.3369635550113988E-031
   1.2000000000000004E-002     1.7831048888499071E-030
   1.2300000000000002E-002    -1.5656141811731693E-030
   1.2600000000000000E-002    -5.0846753693324340E-029
   1.2900000000000002E-002     2.6755100017903506E-028
   1.3200000000000000E-002     5.1352906255433328E-029
   1.3500000000000002E-002    -6.0932653349801835E-027
   1.3800000000000003E-002     2.6995866547949359E-026
   1.4100000000000001E-002    -1.9161309573645261E-026
   1.4400000000000000E-002    -3.1891461591853836E-025
   1.4700000000000001E-002     1.6353001752370641E-024
   1.4999999999999999E-002    -3.0995690086049752E-024
   1.5300000000000001E-002    -4.7733411438612016E-024
   1.5600000000000003E-002     4.8829084236963846E-023
   1.5899999999999997E-002    -1.4500221220996990E-022
   1.6199999999999999E-002     1.3333623022573095E-022
   1.6500000000000001E-002     7.2724679441716520E-022
   1.6800000000000002E-002    -4.3553348610365873E-021
   1.7100000000000004E-002     1.4962416777655115E-020
   1.7400000000000006E-002    -4.6328472342391440E-020
   1.7700000000000000E-002     1.6764871379037097E-019
   1.8000000000000002E-002    -7.2247053618008637E-019
   1.8300000000000004E-002     3.2185201214204765E-018
   1.8600000000000005E-002    -1.3749214300498159E-017
   1.8900000000000000E-002     5.6412093925863677E-017
   1.9200000000000002E-002    -2.2837529333050865E-016
   1.9500000000000003E-002     9.3010159281515444E-016
   1.9799999999999998E-002    -3.7939794545974359E-015
   2.0100000000000000E-002     1.5074764065071580E-014
   2.0400000000000001E-002    -5.5931100194606134E-014
   2.0700000000000003E-002     1.8356598830043674E-013
   2.0999999999999998E-002    -4.8939960393776017E-013
   2.1299999999999999E-002     8.4359076039870808E-013
   2.1600000000000001E-002     3.6566205604535525E-013
   2.1900000000000003E-002    -9.3710080426276730E-012
   2.2200000000000004E-002     3.7862375454316214E-011
   2.2500000000000006E-002    -7.7864235195399252E-011
   2.2800000000000001E-002     1.1934450321435020E-011
   2.3100000000000002E-002     4.4644986322018801E-010
   2.3400000000000004E-002    -1.2321766235300969E-009
   2.3699999999999999E-002     3.9932704128452810E-010
   2.4000000000000000E-002     5.2718477955036971E-009
   2.4300000000000002E-002    -9.6459550176355731E-009
   2.4599999999999997E-002    -1.1093299729995485E-008
   2.4900000000000005E-002     4.6779894486008406E-008
   2.5200000000000000E-002     1.6336509458267656E-008
   2.5499999999999995E-002    -1.7206824004092543E-007
   2.5800000000000003E-002    -9.0114354258486182E-008
   2.6099999999999998E-002     4.6437306525842115E-007
   2.6400000000000007E-002     4.9821759728372124E-007
   2.6700000000000002E-002    -8.7708366399881169E-007
   2.6999999999999996E-002    -1.8615274758014894E-006
   2.7300000000000005E-002     1.1016705668237808E-006
   2.7600000000000000E-002     8.2994421997521195E-006
   2.7900000000000008E-002     1.5156062678619959E-005
   2.8200000000000003E-002     1.8771413928476869E-005
   2.8499999999999998E-002     2.4485453643425704E-005
   2.8800000000000006E-002     4.2007822318760461E-005
   2.9100000000000001E-002     7.5216121446712624E-005
   2.9400000000000003E-002     1.2067778427597467E-004
   2.9700000000000004E-002     1.7914939899182447E-004
   3.0000000000000006E-002     2.6501211031845751E-004
   3.0300000000000001E-002     4.0034590578984989E-004
   3.0600000000000002E-002     6.0280966481132225E-004
   3.0900000000000004E-002     8.8636044635441002E-004
   3.1199999999999999E-002     1.2756527168930624E-003
   3.1500000000000007E-002     1.8144381816785492E-003
   3.1800000000000002E-002     2.5567420928949399E-003
   3.2099999999999997E-002     3.5554318167200652E-003
   3.2400000000000005E-002     4.8656986293299440E-003
   3.2700000000000000E-002     6.5568491038846960E-003
   3.3000000000000002E-002     8.7119979880092811E-003
   3.3300000000000003E-002     1.1412408197769905E-002
   3.3599999999999998E-002     1.4723409000640137E-002
   3.3900000000000000E-002     1.8692687913063034E-002
   3.4200000000000001E-002     2.3349277188171518E-002
   3.4500000000000003E-002     2.8689135687556766E-002
   3.4799999999999998E-002     3.4651338895411006E-002
   3.5099999999999999E-002     4.1100804343213601E-002
   3.5400000000000001E-002     4.7822520884379480E-002
   3.5699999999999996E-002     5.4521855416668846E-002
   3.6000000000000004E-002     6.0815515143615773E-002
   3.6299999999999999E-002     6.6228589963237883E-002
   3.6600000000000008E-002     7.0208453003761190E-002
   3.6900000000000002E-002     7.2155954921171217E-002
   3.7199999999999997E-002     7.1467780892945504E-002
   3.7500000000000006E-002     6.7580699605148647E-002
   3.7800000000000000E-002     6.0014655096393754E-002
   3.8100000000000009E-002     4.8437393424831075E-002
   3.8400000000000004E-002     3.2725426405987940E-002
   3.8699999999999998E-002     1.3020624201373886E-002
   3.9000000000000007E-002    -1.0235904164556664E-002
   3.9300000000000002E-002    -3.6309398508650885E-002
   3.9600000000000003E-002    -6.4162200881861003E-002
   3.9900000000000005E-002    -9.2490810822187380E-002
   4.0200000000000000E-002   -0.11980394453794418     
   4.0500000000000001E-002   -0.14450589443176887     
   4.0800000000000003E-002   -0.16502604446675406     
   4.1100000000000005E-002   -0.17994691712576588     
   4.1399999999999999E-002   -0.18811572788379874     
   4.1700000000000008E-002   -0.18876072805315541     
   4.2000000000000003E-002   -0.18157134615729670     
   4.2299999999999997E-002   -0.16676560463960780     
   4.2600000000000006E-002   -0.14511171873046053     
   4.2900000000000001E-002   -0.11786952954289751     
   4.3200000000000002E-002    -8.6703862182635288E-002
   4.3500000000000004E-002    -5.3606021821252507E-002
   4.3799999999999999E-002    -2.0740821634180846E-002
   4.4100000000000000E-002     9.7098837381447128E-003
   4.4400000000000002E-002     3.5692218055681291E-002
   4.4700000000000004E-002     5.5445516402816607E-002
   4.4999999999999998E-002     6.7610361384931317E-002
   4.5300000000000000E-002     7.1279440486171741E-002
   4.5600000000000002E-002     6.6085443098938379E-002
   4.5899999999999996E-002     5.2216923397646803E-002
   4.6200000000000005E-002     3.0374952789744003E-002
   4.6500000000000000E-002     1.7339527936510940E-003
   4.6799999999999994E-002    -3.2116038557820095E-002
   4.7100000000000003E-002    -6.9264781350520499E-002
   4.7399999999999998E-002   -0.10761296313160279     
   4.7700000000000006E-002   -0.14496252174517243     
   4.8000000000000001E-002   -0.17908381911855564     
   4.8300000000000010E-002   -0.20783274505081617     
   4.8600000000000004E-002   -0.22931612850385424     
   4.8899999999999999E-002   -0.24195199146877738     
   4.9200000000000008E-002   -0.24452096909753418     
   4.9500000000000002E-002   -0.23628173262950586     
   4.9800000000000011E-002   -0.21701361059039781     
   5.0100000000000006E-002   -0.18704510718805686     
   5.0400000000000000E-002   -0.14726115252874097     
   5.0700000000000009E-002    -9.9024495999758363E-002
   5.1000000000000004E-002    -4.4152045772218353E-002
   5.1299999999999998E-002     1.5199330006274075E-002
   5.1600000000000007E-002     7.6688843727458142E-002
   5.1900000000000002E-002    0.13786071174764197     
   5.2200000000000010E-002    0.19637827988984616     
   5.2500000000000005E-002    0.25014773124177381     
   5.2800000000000000E-002    0.29735775994711972     
   5.3099999999999994E-002    0.33663694370348579     
   5.3400000000000003E-002    0.36710403724031271     
   5.3699999999999998E-002    0.38836101916224280     
   5.4000000000000006E-002    0.40049370685895264     
   5.4300000000000001E-002    0.40397065928340731     
   5.4599999999999996E-002    0.39956881954166490     
   5.4900000000000004E-002    0.38834070015509725     
   5.5199999999999999E-002    0.37146481820809002     
   5.5499999999999994E-002    0.35013786825502852     
   5.5800000000000002E-002    0.32550499077176392     
   5.6099999999999997E-002    0.29858389512311567     
   5.6400000000000006E-002    0.27025502612048091     
   5.6700000000000000E-002    0.24120945658476645     
   5.6999999999999995E-002    0.21191644063433712     
   5.7300000000000004E-002    0.18265005543839100     
   5.7599999999999998E-002    0.15354085213374732     
   5.7900000000000007E-002    0.12460247250150200     
   5.8200000000000002E-002     9.5795203875407811E-002
   5.8499999999999996E-002     6.7070471891187061E-002
   5.8800000000000005E-002     3.8414233398432904E-002
   5.9100000000000000E-002     9.9565175538775131E-003
   5.9400000000000008E-002    -1.8010339575264572E-002
   5.9700000000000003E-002    -4.5023078480904408E-002
   6.0000000000000012E-002    -7.0397464823432065E-002
   6.0300000000000006E-002    -9.3286258665120830E-002
   6.0600000000000001E-002   -0.11273522097612400     
   6.0900000000000010E-002   -0.12772622986966103     
   6.1200000000000004E-002   -0.13735397974131441     
   6.1500000000000013E-002   -0.14092199442133463     
   6.1800000000000008E-002   -0.13799477474994115     
   6.2100000000000002E-002   -0.12860369208974803     
   6.2399999999999997E-002   -0.11327626711179628     
   6.2700000000000006E-002    -9.2996189585109176E-002
   6.3000000000000000E-002    -6.9291757680597740E-002
   6.3300000000000009E-002    -4.4068610257441444E-002
   6.3600000000000004E-002    -1.9444283105275378E-002
   6.3899999999999998E-002     2.3241068895642160E-003
   6.4199999999999993E-002     1.9132249813477394E-002
   6.4500000000000002E-002     2.9198382863553855E-002
   6.4800000000000010E-002     3.1221717815317129E-002
   6.5100000000000005E-002     2.4591103666820685E-002
   6.5400000000000000E-002     9.3362467629821248E-003
   6.5700000000000008E-002    -1.3799261715582288E-002
   6.5999999999999989E-002    -4.3323470068634268E-002
   6.6299999999999998E-002    -7.7244033370653636E-002
   6.6600000000000006E-002   -0.11318860278308925     
   6.6900000000000001E-002   -0.14854397015547008     
   6.7199999999999996E-002   -0.18074109091073243     
   6.7500000000000004E-002   -0.20739881085012382     
   6.7800000000000013E-002   -0.22646330090433672     
   6.8099999999999994E-002   -0.23643660379467879     
   6.8400000000000002E-002   -0.23638365791679689     
   6.8700000000000011E-002   -0.22595356368419778     
   6.8999999999999992E-002   -0.20551317703233365     
   6.9300000000000000E-002   -0.17598508293062129     
   6.9600000000000009E-002   -0.13881634105187882     
   6.9900000000000004E-002    -9.5924632643016178E-002
   7.0199999999999999E-002    -4.9459426296913835E-002
   7.0500000000000007E-002    -1.8041752737345176E-003
   7.0800000000000016E-002     4.4544439070224755E-002
   7.1099999999999997E-002     8.7239939949386683E-002
   7.1400000000000005E-002    0.12408528342922534     
   7.1700000000000000E-002    0.15316994665873626     
   7.1999999999999995E-002    0.17302876844576032     
   7.2300000000000003E-002    0.18253757732324513     
   7.2600000000000012E-002    0.18103372618108082     
   7.2900000000000006E-002    0.16836344920861021     
   7.3200000000000001E-002    0.14472290012262051     
   7.3499999999999996E-002    0.11067467782776311     
   7.3800000000000004E-002     6.7090194259677133E-002
   7.4099999999999999E-002     1.5007364333861895E-002
   7.4400000000000008E-002    -4.4350757706670012E-002
   7.4700000000000003E-002   -0.10967674992711199     
   7.5000000000000011E-002   -0.17962069066730926     
   7.5299999999999992E-002   -0.25267060425358590     
   7.5600000000000001E-002   -0.32722259395025255     
   7.5900000000000009E-002   -0.40156258767012343     
   7.6200000000000004E-002   -0.47369291760709276     
   7.6499999999999999E-002   -0.54137640252995234     
   7.6800000000000007E-002   -0.60216452068849513     
   7.7099999999999988E-002   -0.65337226492434908     
   7.7399999999999997E-002   -0.69217941415296214     
   7.7700000000000005E-002   -0.71578702686555185     
   7.8000000000000014E-002   -0.72158822022377578     
   7.8299999999999995E-002   -0.70743408374058991     
   7.8600000000000003E-002   -0.67174863215211056     
   7.8900000000000012E-002   -0.61375268773964864     
   7.9199999999999993E-002   -0.53377132225975676     
   7.9500000000000001E-002   -0.43319122942528981     
   7.9800000000000010E-002   -0.31441582433701148     
   8.0100000000000018E-002   -0.18090226897102579     
   8.0399999999999999E-002    -3.6922820713801659E-002
   8.0700000000000008E-002    0.11256914824264277     
   8.1000000000000003E-002    0.26224208250216069     
   8.1299999999999997E-002    0.40688450078020300     
   8.1600000000000006E-002    0.54155460624738350     
   8.1900000000000014E-002    0.66173285804918502     
   8.2199999999999995E-002    0.76364333948025143     
   8.2500000000000004E-002    0.84432959193862633     
   8.2799999999999999E-002    0.90175615472536819     
   8.3100000000000007E-002    0.93478127893817087     
   8.3400000000000002E-002    0.94296147109916428     
   8.3700000000000011E-002    0.92659946341121779     
   8.4000000000000005E-002    0.88666264106335979     
   8.4300000000000000E-002    0.82470605889159798     
   8.4599999999999995E-002    0.74295993593847454     
   8.4900000000000003E-002    0.64417295406070751     
   8.5199999999999998E-002    0.53165498612689532     
   8.5500000000000007E-002    0.40947248413450332     
   8.5800000000000001E-002    0.28230572493920986     
   8.6100000000000010E-002    0.15530869898973121     
   8.6399999999999991E-002     3.3987827998592506E-002
   8.6699999999999999E-002    -7.6081161730609734E-002
   8.7000000000000008E-002   -0.16967429452347715     
   8.7300000000000003E-002   -0.24230904929167729     
   8.7599999999999997E-002   -0.29070496903073223     
   8.7900000000000006E-002   -0.31322186041725797     
   8.8200000000000014E-002   -0.31013061494044813     
   8.8499999999999995E-002   -0.28379912623224207     
   8.8800000000000004E-002   -0.23862450483421116     
   8.9100000000000013E-002   -0.18078438034572991     
   8.9399999999999993E-002   -0.11785582980419801     
   8.9700000000000002E-002    -5.8005577686092463E-002
   9.0000000000000011E-002    -9.1705647321571639E-003
   9.0299999999999991E-002     2.1564722162180399E-002
   9.0600000000000000E-002     2.8867848968778621E-002
   9.0900000000000009E-002     9.7871368643943253E-003
   9.1200000000000017E-002    -3.5810068110943796E-002
   9.1499999999999998E-002   -0.10497706283271652     
   9.1800000000000007E-002   -0.19199544506642119     
   9.2100000000000001E-002   -0.28878462779041114     
   9.2399999999999996E-002   -0.38549438025697430     
   9.2700000000000005E-002   -0.47146171453367447     
   9.3000000000000013E-002   -0.53610133528586934     
   9.3300000000000008E-002   -0.56995197141787446     
   9.3600000000000003E-002   -0.56568149206151186     
   9.3899999999999997E-002   -0.51860232166847398     
   9.4200000000000006E-002   -0.42721001473303216     
   9.4500000000000001E-002   -0.29349951084501119     
   9.4800000000000009E-002   -0.12279388696999205     
   9.5100000000000004E-002     7.6494664011154276E-002
   9.5399999999999999E-002    0.29341419597266366     
   9.5699999999999993E-002    0.51529488826230396     
   9.6000000000000002E-002    0.72837751130780037     
   9.6300000000000011E-002    0.91869753960214307     
   9.6600000000000005E-002     1.0730274245435312     
   9.6900000000000000E-002     1.1795554042862424     
   9.7200000000000009E-002     1.2286970319415067     
   9.7499999999999989E-002     1.2136005318221392     
   9.7799999999999998E-002     1.1306686941153377     
   9.8100000000000007E-002    0.97999336617696464     
   9.8400000000000015E-002    0.76519499870732277     
   9.8699999999999996E-002    0.49352646163490910     
   9.9000000000000005E-002    0.17582058399534883     
   9.9300000000000013E-002   -0.17420242284582993     
   9.9599999999999994E-002   -0.54053570644683790     
   9.9900000000000003E-002   -0.90555005009381984     
  0.10020000000000001         -1.2510381992287212     
  0.10049999999999999         -1.5591040796072051     
  0.10080000000000000         -1.8131071263016347     
  0.10110000000000001         -1.9986980678368989     
  0.10140000000000000         -2.1045604047161355     
  0.10170000000000000         -2.1230024369292670     
  0.10200000000000001         -2.0503751318419026     
  0.10230000000000002         -1.8871905355049607     
  0.10260000000000000         -1.6381180282868193     
  0.10290000000000001         -1.3116063471581372     
  0.10320000000000000        -0.91941329657909643     
  0.10350000000000001        -0.47611585373474252     
  0.10380000000000000          1.6268524140460663E-003
  0.10410000000000001         0.49585437611434746     
  0.10440000000000001         0.98806026840221295     
  0.10470000000000000          1.4598102189699262     
  0.10500000000000000          1.8933629257470821     
  0.10530000000000000          2.2724131851875073     
  0.10560000000000000          2.5827111937600895     
  0.10590000000000001          2.8125041519925658     
  0.10620000000000000          2.9528572930507746     
  0.10650000000000001          2.9980536566652951     
  0.10679999999999999          2.9458738495041050     
  0.10710000000000000          2.7976546720986413     
  0.10740000000000001          2.5581077354598194     
  0.10770000000000000          2.2350728509899005     
  0.10800000000000000          1.8392979147576480     
  0.10830000000000001          1.3838201064774205     
  0.10859999999999999         0.88321035376610491     
  0.10890000000000000         0.35294646436584987     
  0.10920000000000001        -0.19111747016757508     
  0.10950000000000001        -0.73349781809578107     
  0.10979999999999999         -1.2597256071369640     
  0.11009999999999999         -1.7566269123677645     
  0.11040000000000001         -2.2124853859640523     
  0.11070000000000001         -2.6170229578948740     
  0.11100000000000000         -2.9613706361754732     
  0.11130000000000000         -3.2379105057881348     
  0.11160000000000002         -3.4398641088314212     
  0.11190000000000001         -3.5610367112788031     
  0.11220000000000001         -3.5957667884023259     
  0.11250000000000000         -3.5389491769161663     
  0.11280000000000000         -3.3862715521134832     
  0.11309999999999999         -3.1347596841875531     
  0.11340000000000001         -2.7832940168434868     
  0.11369999999999998         -2.3334997588774797     
  0.11400000000000000         -1.7907006163406254     
  0.11430000000000000         -1.1646899372197588     
  0.11460000000000002        -0.47022313969645957     
  0.11489999999999999         0.27281216683434906     
  0.11520000000000001          1.0393474813762751     
  0.11550000000000001          1.7998783795725588     
  0.11580000000000000          2.5218494658441677     
  0.11609999999999999          3.1712018719558892     
  0.11640000000000002          3.7142714623693864     
  0.11670000000000001          4.1202091632136337     
  0.11700000000000001          4.3632757563757423     
  0.11730000000000000          4.4248516522181660     
  0.11760000000000000          4.2951159484164574     
  0.11789999999999999          3.9743025801894838     
  0.11820000000000001          3.4732415059966102     
  0.11850000000000001          2.8129346134770130     
  0.11880000000000000          2.0236597991053920     
  0.11910000000000000          1.1436359157333018     
  0.11940000000000002         0.21664785600966691     
  0.11970000000000001        -0.71064713662958900     
  0.12000000000000001         -1.5911376189743371     
  0.12030000000000000         -2.3800242143596315     
  0.12060000000000000         -3.0375418113396000     
  0.12089999999999999         -3.5309674398830171     
  0.12119999999999999         -3.8364718459440166     
  0.12150000000000001         -3.9404616860513855     
  0.12180000000000001         -3.8402610114347180     
  0.12210000000000000         -3.5442595139158861     
  0.12239999999999999         -3.0711538812051002     
  0.12270000000000002         -2.4489230349786011     
  0.12300000000000001         -1.7136050127480360     
  0.12330000000000001        -0.90702339138387011     
  0.12360000000000000         -7.4331567460101333E-002
  0.12390000000000000         0.73836460529238868     
  0.12419999999999999          1.4868596558690852     
  0.12450000000000001          2.1312660227793851     
  0.12480000000000001          2.6383689162191080     
  0.12509999999999999          2.9838176571363442     
  0.12540000000000001          3.1533570025374891     
  0.12570000000000003          3.1437611481655279     
  0.12600000000000000          2.9627498985013503     
  0.12630000000000002          2.6279832875292923     
  0.12659999999999999          2.1659401285413398     
  0.12690000000000001          1.6099182819672422     
  0.12719999999999998         0.99716425354474492     
  0.12750000000000000         0.36624896741040358     
  0.12780000000000002        -0.24542576836987495     
  0.12809999999999999        -0.80434113451481548     
  0.12840000000000001         -1.2827899045538849     
  0.12869999999999998         -1.6603199853907944     
  0.12900000000000000         -1.9245386083278766     
  0.12930000000000003         -2.0709232105418991     
  0.12959999999999999         -2.1025187930993301     
  0.12990000000000002         -2.0289852743328218     
  0.13019999999999998         -1.8648548335176658     
  0.13050000000000000         -1.6281262462808148     
  0.13080000000000003         -1.3390210038827870     
  0.13109999999999999         -1.0183628439200825     
  0.13140000000000002        -0.68650730986338537     
  0.13169999999999998        -0.36235759647871457     
  0.13200000000000001         -6.2805966980558500E-002
  0.13229999999999997         0.19744533493116323     
  0.13260000000000000         0.40685084099524482     
  0.13290000000000002         0.55714531121057542     
  0.13319999999999999         0.64307629858098214     
  0.13350000000000001         0.66331041437030169     
  0.13380000000000003         0.62082688480781223     
  0.13410000000000000         0.52255861251923152     
  0.13440000000000002         0.37952367521962665     
  0.13469999999999999         0.20648455509307040     
  0.13500000000000001          2.1214922398506725E-002
  0.13529999999999998        -0.15642284847091861     
  0.13560000000000000        -0.30628588196390916     
  0.13590000000000002        -0.40943072098987981     
  0.13619999999999999        -0.44977708730417826     
  0.13650000000000001        -0.41617939531050807     
  0.13680000000000003        -0.30337487898753862     
  0.13710000000000000        -0.11296423054105925     
  0.13740000000000002         0.14573108820127395     
  0.13769999999999999         0.45649407539713482     
  0.13800000000000001         0.79741662534460944     
  0.13829999999999998          1.1422213700542276     
  0.13860000000000000          1.4624158567220094     
  0.13890000000000002          1.7297094851180017     
  0.13919999999999999          1.9186556868286599     
  0.13950000000000001          2.0089115508401716     
  0.13979999999999998          1.9867792498089005     
  0.14010000000000000          1.8468352320126902     
  0.14040000000000002          1.5928444369519712     
  0.14069999999999999          1.2371898047371561     
  0.14100000000000001         0.80000498264080555     
  0.14130000000000004         0.30831478332847156     
  0.14160000000000000        -0.20625791223794615     
  0.14189999999999997        -0.71009048110058215     
  0.14219999999999999         -1.1699603499929492     
  0.14250000000000002         -1.5558545101958827     
  0.14279999999999998         -1.8431443031297454     
  0.14310000000000000         -2.0145796711093036     
  0.14339999999999997         -2.0619784688508149     
  0.14369999999999999         -1.9866953639942766     
  0.14400000000000002         -1.7997277858987910     
  0.14429999999999998         -1.5208620027204665     
  0.14460000000000001         -1.1765876087057241     
  0.14490000000000003        -0.79829335649220479     
  0.14520000000000000        -0.41942874822270076     
  0.14550000000000002         -7.2020899836121782E-002
  0.14579999999999999         0.21577519438849585     
  0.14610000000000001         0.42245037664986473     
  0.14640000000000003         0.53513413949844058     
  0.14670000000000000         0.55037799502385409     
  0.14699999999999996         0.47476117864498923     
  0.14729999999999999         0.32387188245249010     
  0.14760000000000001         0.12026774031996418     
  0.14789999999999998        -0.10875107570856316     
  0.14820000000000000        -0.33436687600558190     