  -1.4999999999999999E-002     0.0000000000000000     
  -1.4700000000000000E-002     0.0000000000000000     
  -1.4400000000000000E-002     0.0000000000000000     
  -1.4100000000000000E-002     0.0000000000000000     
  -1.3800000000000000E-002     0.0000000000000000     
  -1.3500000000000000E-002     0.0000000000000000     
  -1.3200000000000000E-002     0.0000000000000000     
  -1.2899999999999998E-002     0.0000000000000000     
  -1.2600000000000000E-002     0.0000000000000000     
  -1.2299999999999998E-002     0.0000000000000000     
  -1.2000000000000000E-002     0.0000000000000000     
  -1.1699999999999999E-002     0.0000000000000000     
  -1.1399999999999999E-002     0.0000000000000000     
  -1.1099999999999999E-002     0.0000000000000000     
  -1.0799999999999999E-002     0.0000000000000000     
  -1.0499999999999999E-002     0.0000000000000000     
  -1.0199999999999999E-002     0.0000000000000000     
  -9.8999999999999991E-003     0.0000000000000000     
  -9.5999999999999992E-003     0.0000000000000000     
  -9.2999999999999992E-003     0.0000000000000000     
  -8.9999999999999993E-003     0.0000000000000000     
  -8.6999999999999994E-003     0.0000000000000000     
  -8.3999999999999995E-003     0.0000000000000000     
  -8.0999999999999996E-003     0.0000000000000000     
  -7.7999999999999988E-003     0.0000000000000000     
  -7.4999999999999997E-003     0.0000000000000000     
  -7.1999999999999998E-003     0.0000000000000000     
  -6.8999999999999981E-003     0.0000000000000000     
  -6.5999999999999982E-003     0.0000000000000000     
  -6.3000000000000000E-003     0.0000000000000000     
  -6.0000000000000001E-003     0.0000000000000000     
  -5.6999999999999985E-003     0.0000000000000000     
  -5.3999999999999986E-003     0.0000000000000000     
  -5.1000000000000004E-003     2.2154244944578793E-058
  -4.7999999999999987E-003    -8.0616927051628370E-045
  -4.5000000000000005E-003     5.7822063917621361E-044
  -4.1999999999999989E-003     1.5242550720537957E-037
  -3.8999999999999990E-003    -1.9422830064262220E-036
  -3.5999999999999990E-003     1.0486036503483649E-036
  -3.2999999999999991E-003     2.4489615773408504E-035
  -2.9999999999999992E-003    -7.3848678336047068E-037
  -2.6999999999999993E-003    -1.3922174175360802E-034
  -2.3999999999999994E-003    -4.7978442503413652E-034
  -2.0999999999999977E-003     4.3407331235537342E-033
  -1.7999999999999995E-003    -5.6788124491942443E-033
  -1.4999999999999979E-003    -6.6641072645866762E-033
  -1.1999999999999997E-003    -7.1167992870566934E-033
  -8.9999999999999976E-004     1.7675534682083609E-031
  -5.9999999999999810E-004    -2.3186205236290229E-031
  -2.9999999999999992E-004    -2.8247611314655238E-030
   0.0000000000000000          1.9441813146606917E-029
   3.0000000000000165E-004    -6.3407259761437385E-029
   5.9999999999999984E-004     1.0386651868279106E-028
   9.0000000000000149E-004     2.1780791544116584E-029
   1.2000000000000031E-003    -4.9468815273658099E-028
   1.5000000000000013E-003     6.8836727840728905E-028
   1.8000000000000030E-003     2.4537262751275914E-027
   2.1000000000000012E-003    -1.4910554003266144E-026
   2.3999999999999994E-003     4.0245367647766223E-026
   2.7000000000000010E-003    -7.0161244910833175E-026
   2.9999999999999992E-003     1.1014627308700810E-025
   3.3000000000000008E-003    -2.6513930757065088E-025
   3.6000000000000025E-003     1.2935872877398538E-025
   3.9000000000000007E-003     6.9643703212843933E-024
   4.2000000000000023E-003    -5.6470881449201506E-023
   4.5000000000000005E-003     2.5107291741113345E-022
   4.7999999999999987E-003    -6.7018636523405515E-022
   5.1000000000000004E-003     4.5450024609844475E-022
   5.4000000000000020E-003     5.8785224570659057E-021
   5.7000000000000037E-003    -3.8224456368581236E-020
   5.9999999999999984E-003     1.4858222970633707E-019
   6.3000000000000000E-003    -4.3788623641073410E-019
   6.6000000000000017E-003     1.0423779860834961E-018
   6.9000000000000034E-003    -2.0655247730524517E-018
   7.2000000000000015E-003     3.6428742843603250E-018
   7.5000000000000032E-003    -7.3977811271706265E-018
   7.8000000000000014E-003     2.4707774574178749E-017
   8.0999999999999996E-003    -1.1175292360997453E-016
   8.4000000000000012E-003     4.9707488824835617E-016
   8.7000000000000029E-003    -1.9817574181514513E-015
   9.0000000000000011E-003     6.9009204903682135E-015
   9.2999999999999992E-003    -1.9873705896650399E-014
   9.6000000000000009E-003     3.8583924720496362E-014
   9.8999999999999991E-003     1.7277099137057364E-014
   1.0200000000000001E-002    -6.1565486797108484E-013
   1.0500000000000002E-002     3.4626562449618311E-012
   1.0800000000000004E-002    -1.2254813774051833E-011
   1.1099999999999999E-002     2.6959410133114300E-011
   1.1400000000000000E-002    -1.2626379590761296E-011
   1.1700000000000002E-002    -1.6213410021595416E-010
   1.2000000000000004E-002     6.5075753480689160E-010
   1.2300000000000002E-002    -9.0865157669653001E-010
   1.2600000000000000E-002    -1.5006689832267602E-009
   1.2900000000000002E-002     8.3014120917560434E-009
   1.3200000000000000E-002    -7.5351219111236553E-009
   1.3500000000000002E-002    -2.7119114451054927E-008
   1.3800000000000003E-002     5.9581027439803304E-008
   1.4100000000000001E-002     6.3221244493763754E-008
   1.4400000000000000E-002    -2.4689114266571228E-007
   1.4700000000000001E-002    -2.5170782061793150E-007
   1.4999999999999999E-002     6.7100853487055659E-007
   1.5300000000000001E-002     1.0584405248141248E-006
   1.5600000000000003E-002    -1.2168305204479020E-006
   1.5899999999999997E-002    -3.5189530094267003E-006
   1.6199999999999999E-002     1.5236064777746722E-006
   1.6500000000000001E-002     1.6034883063092443E-005
   1.6800000000000002E-002     3.1757626896086069E-005
   1.7100000000000004E-002     4.2018849748703189E-005
   1.7400000000000006E-002     5.5911493946478778E-005
   1.7700000000000000E-002     9.2367937295698810E-005
   1.8000000000000002E-002     1.6026469676327519E-004
   1.8300000000000004E-002     2.5502895529026879E-004
   1.8600000000000005E-002     3.8050665577170193E-004
   1.8900000000000000E-002     5.6571868527808059E-004
   1.9200000000000002E-002     8.5300521443659912E-004
   1.9500000000000003E-002     1.2772873757416993E-003
   1.9799999999999998E-002     1.8706984109527144E-003
   2.0100000000000000E-002     2.6895024241360070E-003
   2.0400000000000001E-002     3.8237829910720807E-003
   2.0700000000000003E-002     5.3769088851876017E-003
   2.0999999999999998E-002     7.4499341862056751E-003
   2.1299999999999999E-002     1.0155283721616270E-002
   2.1600000000000001E-002     1.3635134122037377E-002
   2.1900000000000003E-002     1.8045536863128715E-002
   2.2200000000000004E-002     2.3519625427488918E-002
   2.2500000000000006E-002     3.0152724388447925E-002
   2.2800000000000001E-002     3.8006870990165885E-002
   2.3100000000000002E-002     4.7092142133365621E-002
   2.3400000000000004E-002     5.7316439318480190E-002
   2.3699999999999999E-002     6.8437387693216528E-002
   2.4000000000000000E-002     8.0050510127314137E-002
   2.4300000000000002E-002     9.1583404594130599E-002
   2.4599999999999997E-002    0.10228086536149210     
   2.4900000000000005E-002    0.11117465225507814     
   2.5200000000000000E-002    0.11709920393604815     
   2.5499999999999995E-002    0.11874802390101982     
   2.5800000000000003E-002    0.11477751923340405     
   2.6099999999999998E-002    0.10387296803444017     
   2.6400000000000007E-002     8.4848431700829813E-002
   2.6700000000000002E-002     5.6806629481041496E-002
   2.6999999999999996E-002     1.9277005174836926E-002
   2.7300000000000005E-002    -2.7656053970672258E-002
   2.7600000000000000E-002    -8.3222997890185377E-002
   2.7900000000000008E-002   -0.14592208192748224     
   2.8200000000000003E-002   -0.21349236221308590     
   2.8499999999999998E-002   -0.28297563794256692     
   2.8800000000000006E-002   -0.35085092877930013     
   2.9100000000000001E-002   -0.41319595127504788     
   2.9400000000000003E-002   -0.46598530600547727     
   2.9700000000000004E-002   -0.50537631163395158     
   3.0000000000000006E-002   -0.52804335714408979     
   3.0300000000000001E-002   -0.53152438362273879     
   3.0600000000000002E-002   -0.51438381350661944     
   3.0900000000000004E-002   -0.47647838728426184     
   3.1199999999999999E-002   -0.41905083217312716     
   3.1500000000000007E-002   -0.34470622885459995     
   3.1800000000000002E-002   -0.25727030143382373     
   3.2099999999999997E-002   -0.16142575454518376     
   3.2400000000000005E-002    -6.2544575742559824E-002
   3.2700000000000000E-002     3.3762288737418607E-002
   3.3000000000000002E-002    0.12213082733090025     
   3.3300000000000003E-002    0.19765864411524459     
   3.3599999999999998E-002    0.25648331010762965     
   3.3900000000000000E-002    0.29603348880677377     
   3.4200000000000001E-002    0.31489817466432285     
   3.4500000000000003E-002    0.31322491921601808     
   3.4799999999999998E-002    0.29255661863512189     
   3.5099999999999999E-002    0.25556141523324982     
   3.5400000000000001E-002    0.20607798216196371     
   3.5699999999999996E-002    0.14878339142860511     
   3.6000000000000004E-002     8.8762276578717186E-002
   3.6299999999999999E-002     3.1349454155917882E-002
   3.6600000000000008E-002    -1.8161751596529073E-002
   3.6900000000000002E-002    -5.4868113990625821E-002
   3.7199999999999997E-002    -7.4343072047505565E-002
   3.7500000000000006E-002    -7.3109499740177122E-002
   3.7800000000000000E-002    -4.8709529049132436E-002
   3.8100000000000009E-002     2.8191336933554913E-004
   3.8400000000000004E-002     7.3813378326990670E-002
   3.8699999999999998E-002    0.17053559827034406     
   3.9000000000000007E-002    0.28776811051264317     
   3.9300000000000002E-002    0.42127616163097092     
   3.9600000000000003E-002    0.56576052643906427     
   3.9900000000000005E-002    0.71499314573626238     
   4.0200000000000000E-002    0.86167009646454784     
   4.0500000000000001E-002    0.99816770652304820     
   4.0800000000000003E-002     1.1167733140826759     
   4.1100000000000005E-002     1.2098452464005744     
   4.1399999999999999E-002     1.2704552983564474     
   4.1700000000000008E-002     1.2924210380447805     
   4.2000000000000003E-002     1.2708526198709591     
   4.2299999999999997E-002     1.2024816829891898     
   4.2600000000000006E-002     1.0855821962406507     
   4.2900000000000001E-002    0.92050779409179617     
   4.3200000000000002E-002    0.70977897823644331     
   4.3500000000000004E-002    0.45790334991897497     
   4.3799999999999999E-002    0.17183496806506457     
   4.4100000000000000E-002   -0.13919783365804708     
   4.4400000000000002E-002   -0.46401013964488014     
   4.4700000000000004E-002   -0.78958562209889704     
   4.4999999999999998E-002    -1.1015558965174355     
   4.5300000000000000E-002    -1.3847680622398844     
   4.5600000000000002E-002    -1.6240973818967783     
   4.5899999999999996E-002    -1.8052525699691957     
   4.6200000000000005E-002    -1.9158092777106532     
   4.6500000000000000E-002    -1.9463835893145969     
   4.6799999999999994E-002    -1.8912972096303045     
   4.7100000000000003E-002    -1.7492232208063005     
   4.7399999999999998E-002    -1.5237574523170114     
   4.7700000000000006E-002    -1.2236623831325384     
   4.8000000000000001E-002   -0.86260029170623309     
   4.8300000000000010E-002   -0.45828612486693787     
   4.8600000000000004E-002    -3.1668317683083577E-002
   4.8899999999999999E-002    0.39426843652716115     
   4.9200000000000008E-002    0.79631171773845233     
   4.9500000000000002E-002     1.1519962055374429     
   4.9800000000000011E-002     1.4412992412425885     
   5.0100000000000006E-002     1.6482787298733999     
   5.0400000000000000E-002     1.7614933229088912     
   5.0700000000000009E-002     1.7749355885520379     
   5.1000000000000004E-002     1.6883480354642355     
   5.1299999999999998E-002     1.5068654848003618     
   5.1600000000000007E-002     1.2408463891223260     
   5.1900000000000002E-002    0.90488673320793922     
   5.2200000000000010E-002    0.51662728540225700     
   5.2500000000000005E-002     9.5983274887055187E-002
   5.2800000000000000E-002   -0.33652350266942399     
   5.3099999999999994E-002   -0.76083457353700590     
   5.3400000000000003E-002    -1.1584191011684082     
   5.3699999999999998E-002    -1.5134702332832177     
   5.4000000000000006E-002    -1.8133176925706698     
   5.4300000000000001E-002    -2.0488940637174684     
   5.4599999999999996E-002    -2.2152425058582850     
   5.4900000000000004E-002    -2.3110722210377617     
   5.5199999999999999E-002    -2.3380318735220884     
   5.5499999999999994E-002    -2.3002160635349771     
   5.5800000000000002E-002    -2.2036021826377996     
   5.6099999999999997E-002    -2.0548764407265057     
   5.6400000000000006E-002    -1.8603006626365550     
   5.6700000000000000E-002    -1.6252851612630819     
   5.6999999999999995E-002    -1.3539223910416376     
   5.7300000000000004E-002    -1.0487952594419214     
   5.7599999999999998E-002   -0.71111272748136056     
   5.7900000000000007E-002   -0.34101516429020662     
   5.8200000000000002E-002     6.1245428753684050E-002
   5.8499999999999996E-002    0.49443384170643795     
   5.8800000000000005E-002    0.95535683722852294     
   5.9100000000000000E-002     1.4378613009221881     
   5.9400000000000008E-002     1.9320549478948570     
   5.9700000000000003E-002     2.4233483495509391     
   6.0000000000000012E-002     2.8928333635421248     
   6.0300000000000006E-002     3.3181482357299950     
   6.0600000000000001E-002     3.6736474732711559     
   6.0900000000000010E-002     3.9322739071935104     
   6.1200000000000004E-002     4.0674202645922515     
   6.1500000000000013E-002     4.0548727566558922     
   6.1800000000000008E-002     3.8758599754501279     
   6.2100000000000002E-002     3.5186424302440589     
   6.2399999999999997E-002     2.9801488138464598     
   6.2700000000000006E-002     2.2683117896034002     
   6.3000000000000000E-002     1.4025703391338056     
   6.3300000000000009E-002    0.41379096484871197     
   6.3600000000000004E-002   -0.65662876379342261     
   6.3899999999999998E-002    -1.7587487404943496     
   6.4199999999999993E-002    -2.8361035813625817     
   6.4500000000000002E-002    -3.8291419318644766     
   6.4800000000000010E-002    -4.6800754239834950     
   6.5100000000000005E-002    -5.3357865478021846     
   6.5400000000000000E-002    -5.7516981848087134     
   6.5700000000000008E-002    -5.8959256673482576     
   6.5999999999999989E-002    -5.7511483641252008     
   6.6299999999999998E-002    -5.3164922333532445     
   6.6600000000000006E-002    -4.6081563866733202     
   6.6900000000000001E-002    -3.6581060782943755     
   6.7199999999999996E-002    -2.5129075538453423     
   6.7500000000000004E-002    -1.2307640306799135     
   6.7800000000000013E-002    0.12238066528356385     
   6.8099999999999994E-002     1.4760017039531890     
   6.8400000000000002E-002     2.7601474583999126     
   6.8700000000000011E-002     3.9085188444705263     
   6.8999999999999992E-002     4.8613922501799456     
   6.9300000000000000E-002     5.5703698994475852     
   6.9600000000000009E-002     5.9998060717185018     
   6.9900000000000004E-002     6.1276756604486735     
   7.0199999999999999E-002     5.9479829164361462     
   7.0500000000000007E-002     5.4701229623641536     
   7.0800000000000016E-002     4.7182905147363527     
   7.1099999999999997E-002     3.7311737547971813     
   7.1400000000000005E-002     2.5593128885829097     
   7.1700000000000000E-002     1.2633241673555953     
   7.1999999999999995E-002    -8.8914464674228672E-002
   7.2300000000000003E-002    -1.4266822801261325     
   7.2600000000000012E-002    -2.6789828205820032     
   7.2900000000000006E-002    -3.7787659317905811     
   7.3200000000000001E-002    -4.6679851581837495     
   7.3499999999999996E-002    -5.2995540260507727     
   7.3800000000000004E-002    -5.6413432503148186     
   7.4099999999999999E-002    -5.6787892720499320     
   7.4400000000000008E-002    -5.4144202817276703     
   7.4700000000000003E-002    -4.8689987214748767     
   7.5000000000000011E-002    -4.0798142081043034     
   7.5299999999999992E-002    -3.0970302450363429     
   7.5600000000000001E-002    -1.9813875368971536     
   7.5900000000000009E-002   -0.79884153851014617     
   7.6200000000000004E-002    0.38430757203109234     
   7.6499999999999999E-002     1.5046397124185542     
   7.6800000000000007E-002     2.5072324552564629     
   7.7099999999999988E-002     3.3486850095327827     
   7.7399999999999997E-002     3.9981689011232371     
   7.7700000000000005E-002     4.4396163874113981     
   7.8000000000000014E-002     4.6708704947652695     
   7.8299999999999995E-002     4.7019030782227631     
   7.8600000000000003E-002     4.5536553925215575     
   7.8900000000000012E-002     4.2537925723406937     
   7.9199999999999993E-002     3.8341556533911518     
   7.9500000000000001E-002     3.3287800763420359     
   7.9800000000000010E-002     2.7692863401764054     
   8.0100000000000018E-002     2.1843845689835910     
   8.0399999999999999E-002     1.5987516798972068     
   8.0700000000000008E-002     1.0312998679031602     
   8.1000000000000003E-002    0.49714206947314343     
   8.1299999999999997E-002     7.0515527832040814E-003
   8.1600000000000006E-002   -0.43169006857556219     
   8.1900000000000014E-002   -0.81251389535812446     
   8.2199999999999995E-002    -1.1303425599902543     
   8.2500000000000004E-002    -1.3805983944519413     
   8.2799999999999999E-002    -1.5581810278360659     
   8.3100000000000007E-002    -1.6592495358893773     
   8.3400000000000002E-002    -1.6803591271519775     
   8.3700000000000011E-002    -1.6199149002455253     
   8.4000000000000005E-002    -1.4803431221288166     
   8.4300000000000000E-002    -1.2673932570803779     
   8.4599999999999995E-002   -0.99116340506750245     
   8.4900000000000003E-002   -0.66706816209725406     
   8.5199999999999998E-002   -0.31485311634624635     
   8.5500000000000007E-002     4.1420529377927007E-002
   8.5800000000000001E-002    0.37512362565548557     
   8.6100000000000010E-002    0.65889978751376177     
   8.6399999999999991E-002    0.86475789998132180     
   8.6699999999999999E-002    0.96715975819131295     
   8.7000000000000008E-002    0.94442602178484891     
   8.7300000000000003E-002    0.77916745396712073     
   8.7599999999999997E-002    0.46085564018471542     
   8.7900000000000006E-002    -1.3929684498734801E-002
   8.8200000000000014E-002   -0.64151457385397115     
   8.8499999999999995E-002    -1.4088644816661382     
   8.8800000000000004E-002    -2.2945280533209815     
   8.9100000000000013E-002    -3.2693505133073799     
   8.9399999999999993E-002    -4.2953721689371172     
   8.9700000000000002E-002    -5.3278208749988503     
   9.0000000000000011E-002    -6.3158283617455941     
   9.0299999999999991E-002    -7.2041106088734699     
   9.0600000000000000E-002    -7.9366115971183913     
   9.0900000000000009E-002    -8.4578870888025737     
   9.1200000000000017E-002    -8.7168487532892467     
   9.1499999999999998E-002    -8.6716302903307199     
   9.1800000000000007E-002    -8.2912830624376284     
   9.2100000000000001E-002    -7.5595092530164703     
   9.2399999999999996E-002    -6.4784565367920539     
   9.2700000000000005E-002    -5.0678321157625792     
   9.3000000000000013E-002    -3.3664855804319829     
   9.3300000000000008E-002    -1.4313106348264195     
   9.3600000000000003E-002    0.66681111924950898     
   9.3899999999999997E-002     2.8443802537152751     
   9.4200000000000006E-002     5.0117408966049179     
   9.4500000000000001E-002     7.0789838569946726     
   9.4800000000000009E-002     8.9582867020325612     
   9.5100000000000004E-002     10.572164828744409     
   9.5399999999999999E-002     11.857358163423061     
   9.5699999999999993E-002     12.766064738524005     
   9.6000000000000002E-002     13.271378544256905     
   9.6300000000000011E-002     13.365208610365759     
   9.6600000000000005E-002     13.057874648222228     
   9.6900000000000000E-002     12.378813724102141     
   9.7200000000000009E-002     11.369989414942321     
   9.7499999999999989E-002     10.084049309982184     
   9.7799999999999998E-002     8.5804759817940131     
   9.8100000000000007E-002     6.9194190968304534     
   9.8400000000000015E-002     5.1610698061731286     
   9.8699999999999996E-002     3.3605984037139227     
   9.9000000000000005E-002     1.5651590731017910     
   9.9300000000000013E-002   -0.18371120271975108     
   9.9599999999999994E-002    -1.8522491979746820     
   9.9900000000000003E-002    -3.4137220548290195     
  0.10020000000000001         -4.8451715577954673     
  0.10049999999999999         -6.1270041142485372     
  0.10080000000000000         -7.2391608573028847     
  0.10110000000000001         -8.1618072718148511     
  0.10140000000000000         -8.8744612979913722     
  0.10170000000000000         -9.3538447024348255     
  0.10200000000000001         -9.5788955906026256     
  0.10230000000000002         -9.5324058658555231     
  0.10260000000000000         -9.2010145522197124     
  0.10290000000000001         -8.5825863737140935     
  0.10320000000000000         -7.6878101117066588     
  0.10350000000000001         -6.5407455362183358     
  0.10380000000000000         -5.1818556147706403     
  0.10410000000000001         -3.6672099547535923     
  0.10440000000000001         -2.0656805244295069     
  0.10470000000000000        -0.45540879719532962     
  0.10500000000000000          1.0814784689666865     
  0.10530000000000000          2.4638120648622466     
  0.10560000000000000          3.6177642846382847     
  0.10590000000000001          4.4839119272639900     
  0.10620000000000000          5.0206316445987316     
  0.10650000000000001          5.2073576921848419     
  0.10679999999999999          5.0486324227464685     
  0.10710000000000000          4.5703132840552252     
  0.10740000000000001          3.8184074296269443     
  0.10770000000000000          2.8585033292950008     
  0.10800000000000000          1.7660596221465887     
  0.10830000000000001         0.62175923387608489     
  0.10859999999999999        -0.49207208719961554     
  0.10890000000000000         -1.5007800687830095     
  0.10920000000000001         -2.3402462740141781     
  0.10950000000000001         -2.9611320116779645     
  0.10979999999999999         -3.3325782945524494     
  0.11009999999999999         -3.4405849496580201     
  0.11040000000000001         -3.2912140104934617     
  0.11070000000000001         -2.9066350680779918     
  0.11100000000000000         -2.3209872775283040     
  0.11130000000000000         -1.5815780082612598     
  0.11160000000000002        -0.74137510245112259     
  0.11190000000000001         0.14521681453327556     
  0.11220000000000001          1.0225377842689247     
  0.11250000000000000          1.8406326396375063     
  0.11280000000000000          2.5570076423991686     
  0.11309999999999999          3.1367926512661084     
  0.11340000000000001          3.5566846405844426     
  0.11369999999999998          3.8043242347532344     
  0.11400000000000000          3.8779240129337480     
  0.11430000000000000          3.7862923516591769     
  0.11460000000000002          3.5458605825889484     
  0.11489999999999999          3.1806584355588940     
  0.11520000000000001          2.7206584609289806     
  0.11550000000000001          2.1967794902421480     
  0.11580000000000000          1.6411294668240499     
  0.11609999999999999          1.0851485232593003     
  0.11640000000000002         0.55529586948297815     
  0.11670000000000001          7.4685480218991823E-002
  0.11700000000000001        -0.33953139877009214     
  0.11730000000000000        -0.67830626590201071     
  0.11760000000000000        -0.93687517783927243     
  0.11789999999999999         -1.1168970523726702     
  0.11820000000000001         -1.2269001814135039     
  0.11850000000000001         -1.2778811424980785     
  0.11880000000000000         -1.2841785444451628     
  0.11910000000000000         -1.2614606550638412     
  0.11940000000000002         -1.2239376921873946     
  0.11970000000000001         -1.1863547661610294     
  0.12000000000000001         -1.1594850526713236     
  0.12030000000000000         -1.1500989185114316     
  0.12060000000000000         -1.1634334624579550     
  0.12089999999999999         -1.1988512696985110     
  0.12119999999999999         -1.2530958993291308     
  0.12150000000000001         -1.3217932062994386     
  0.12180000000000001         -1.3960863007508029     
  0.12210000000000000         -1.4675106122328252     
  0.12239999999999999         -1.5287097410542076     
  0.12270000000000002         -1.5710777358644661     
  0.12300000000000001         -1.5892699735321445     
  0.12330000000000001         -1.5792413304486532     
  0.12360000000000000         -1.5380827459096167     
  0.12390000000000000         -1.4663034847703387     
  0.12419999999999999         -1.3651608481275244     
  0.12450000000000001         -1.2377467658812984     
  0.12480000000000001         -1.0880406797764510     
  0.12509999999999999        -0.91922243368937306     
  0.12540000000000001        -0.73664052614147280     
  0.12570000000000003        -0.54574329340222594     
  0.12600000000000000        -0.34941929048197345     
  0.12630000000000002        -0.15168848892909575     
  0.12659999999999999          4.2646167910718527E-002
  0.12690000000000001         0.23087296453519041     
  0.12719999999999998         0.41013707999780041     
  0.12750000000000000         0.57662827431232433     
  0.12780000000000002         0.72826448013588918     
  0.12809999999999999         0.86299484647510749     
  0.12840000000000001         0.97871079536193828     
  0.12869999999999998          1.0746137999355749     
  0.12900000000000000          1.1502451991935867     
  0.12930000000000003          1.2068995444795871     
  0.12959999999999999          1.2456760639519828     
  0.12990000000000002          1.2671215707490457     
  0.13019999999999998          1.2751433893904085     
  0.13050000000000000          1.2725020516165368     
  0.13080000000000003          1.2605082660273361     
  0.13109999999999999          1.2434126811928099     
  0.13140000000000002          1.2235345159041773     
  0.13169999999999998          1.2019279396412286     
  0.13200000000000001          1.1815860606587958     
  0.13229999999999997          1.1632119751336722     
  0.13260000000000000          1.1472216037700047     
  0.13290000000000002          1.1340163233222662     
  0.13319999999999999          1.1224099994955647     
  0.13350000000000001          1.1123666295455741     
  0.13380000000000003          1.1022038113755852     
  0.13410000000000000          1.0892024987711866     
  0.13440000000000002          1.0728785821799078     
  0.13469999999999999          1.0508568162301584     
  0.13500000000000001          1.0206066261617905     
  0.13529999999999998         0.98212497319187297     
  0.13560000000000000         0.93335400745702801     
  0.13590000000000002         0.87289546441565735     
  0.13619999999999999         0.80184034883960287     
  0.13650000000000001         0.71997193854730512     
  0.13680000000000003         0.62812314915667744     
  0.13710000000000000         0.52827130532939248     
  0.13740000000000002         0.42171078088366043     
  0.13769999999999999         0.31233983846295599     
  0.13800000000000001         0.20346674391864811     
  0.13829999999999998          9.7281818003681977E-002
  0.13860000000000000         -1.2377661789065254E-003
  0.13890000000000002         -8.9231124633188288E-002
  0.13919999999999999        -0.16585577097559398     
  0.13950000000000001        -0.22950783937246361     
  0.13979999999999998        -0.28240131440122673     
  0.14010000000000000        -0.32899468265696147     
  0.14040000000000002        -0.37414752487345887     
  0.14069999999999999        -0.42658739183242744     
  0.14100000000000001        -0.49450718026484203     
  0.14130000000000004        -0.58548639549808912     
  0.14160000000000000        -0.70734159140551522     
  0.14189999999999997        -0.86233381065377712     
  0.14219999999999999         -1.0503879512421996     
  0.14250000000000002         -1.2685757564768780     
  0.14279999999999998         -1.5075782183225450     
  0.14310000000000000         -1.7572711295153165     
  0.14339999999999997         -2.0066434851771398     
  0.14369999999999999         -2.2430314429152580     
  0.14400000000000002         -2.4586815114844822     
  0.14429999999999998         -2.6488730032367065     
  0.14460000000000001         -2.8113926786896832     
  0.14490000000000003         -2.9505907251783179     
  0.14520000000000000         -3.0727401755683341     
  0.14550000000000002         -3.1845327258332907     
  0.14579999999999999         -3.2925439626590403     
  0.14610000000000001         -3.3978586915529787     
  0.14640000000000003         -3.4971140188913017     
  0.14670000000000000         -3.5818015008280604     
  0.14699999999999996         -3.6353629652104527     
  0.14729999999999999         -3.6391466862157476     
  0.14760000000000001         -3.5743681386574617     
  0.14789999999999998         -3.4216179014505284     
  0.14820000000000000         -3.1692468412650010     