  -1.4999999999999999E-002     0.0000000000000000     
  -1.4700000000000000E-002     3.4950191868947087E-007
  -1.4400000000000000E-002    -4.6423663804923904E-007
  -1.4100000000000000E-002    -1.5656552427458708E-005
  -1.3800000000000000E-002     3.6562427861580180E-006
  -1.3500000000000000E-002     7.0066527797437215E-005
  -1.3200000000000000E-002     6.4710329989370351E-005
  -1.2899999999999998E-002     7.5214830207449576E-006
  -1.2600000000000000E-002    -4.8279701682725233E-005
  -1.2299999999999998E-002    -2.8168905074629580E-005
  -1.2000000000000000E-002     1.1376164547463647E-004
  -1.1699999999999999E-002     3.5051403087406276E-004
  -1.1399999999999999E-002     7.9349977377397385E-004
  -1.1099999999999999E-002     1.2586756691215719E-003
  -1.0799999999999999E-002     1.5582952243169852E-003
  -1.0499999999999999E-002     2.1275587531273512E-003
  -1.0199999999999999E-002     3.2877126735852019E-003
  -9.8999999999999991E-003     4.6570243438718122E-003
  -9.5999999999999992E-003     6.3205954279932901E-003
  -9.2999999999999992E-003     9.1449316673383445E-003
  -8.9999999999999993E-003     1.3214624053797450E-002
  -8.6999999999999994E-003     1.8260741529410811E-002
  -8.3999999999999995E-003     2.4805112613611843E-002
  -8.0999999999999996E-003     3.3875235006929086E-002
  -7.7999999999999988E-003     4.5554394458030036E-002
  -7.4999999999999997E-003     5.9152490941462868E-002
  -7.1999999999999998E-003     7.5163724856088798E-002
  -6.8999999999999981E-003     9.3327158547044153E-002
  -6.5999999999999982E-003    0.11184710392070495     
  -6.3000000000000000E-003    0.12870183846419148     
  -6.0000000000000001E-003    0.14074083493881995     
  -5.6999999999999985E-003    0.14325945450170749     
  -5.3999999999999986E-003    0.12880945208124217     
  -5.1000000000000004E-003     8.7765936963331903E-002
  -4.7999999999999987E-003     8.6094842909417296E-003
  -4.5000000000000005E-003   -0.12290838271747920     
  -4.1999999999999989E-003   -0.32280515115510011     
  -3.8999999999999990E-003   -0.60933222851783786     
  -3.5999999999999990E-003    -1.0006082138729298     
  -3.2999999999999991E-003    -1.5119420870320421     
  -2.9999999999999992E-003    -2.1543279705670058     
  -2.6999999999999993E-003    -2.9309753539149437     
  -2.3999999999999994E-003    -3.8340873556349648     
  -2.0999999999999977E-003    -4.8400287978524927     
  -1.7999999999999995E-003    -5.9073467260484209     
  -1.4999999999999979E-003    -6.9740006746236505     
  -1.1999999999999997E-003    -7.9551486079798961     
  -8.9999999999999976E-004    -8.7463467271840756     
  -5.9999999999999810E-004    -9.2256580231800971     
  -2.9999999999999992E-004    -9.2614561028508007     
   0.0000000000000000         -8.7225418104995889     
   3.0000000000000165E-004    -7.4896377218376102     
   5.9999999999999984E-004    -5.4718785045545868     
   9.0000000000000149E-004    -2.6202511508953163     
   1.2000000000000031E-003     1.0562987614443542     
   1.5000000000000013E-003     5.4792312831566772     
   1.8000000000000030E-003     10.494295906311496     
   2.1000000000000012E-003     15.868260999410076     
   2.3999999999999994E-003     21.298211469809321     
   2.7000000000000010E-003     26.425573624304654     
   2.9999999999999992E-003     30.858192309318390     
   3.3000000000000008E-003     34.202197466418049     
   3.6000000000000025E-003     36.093695728011824     
   3.9000000000000007E-003     36.235632682851382     
   4.2000000000000023E-003     34.430634889403414     
   4.5000000000000005E-003     30.606495971441486     
   4.7999999999999987E-003     24.835245063246930     
   5.1000000000000004E-003     17.336984809481727     
   5.4000000000000020E-003     8.4725368056678612     
   5.7000000000000037E-003    -1.2780711652152412     
   5.9999999999999984E-003    -11.351635580088114     
   6.3000000000000000E-003    -21.141364449018401     
   6.6000000000000017E-003    -30.046500300061972     
   6.9000000000000034E-003    -37.521474381027019     
   7.2000000000000015E-003    -43.117613723409043     
   7.5000000000000032E-003    -46.519267276719347     
   7.8000000000000014E-003    -47.566961692202263     
   8.0999999999999996E-003    -46.266440472938307     
   8.4000000000000012E-003    -42.781674424001082     
   8.7000000000000029E-003    -37.417313762362674     
   9.0000000000000011E-003    -30.588118004798446     
   9.2999999999999992E-003    -22.778485959002850     
   9.6000000000000009E-003    -14.504133607615255     
   9.8999999999999991E-003    -6.2706353261843173     
   1.0200000000000001E-002     1.4649458405859512     
   1.0500000000000002E-002     8.3229531221461919     
   1.0800000000000004E-002     14.021006274929931     
   1.1099999999999999E-002     18.382457321214964     
   1.1400000000000000E-002     21.338395627533075     
   1.1700000000000002E-002     22.919875271412842     
   1.2000000000000004E-002     23.238749854397525     
   1.2300000000000002E-002     22.471254264755444     
   1.2600000000000000E-002     20.834378462553296     
   1.2900000000000002E-002     18.562938479460367     
   1.3200000000000000E-002     15.892903053216838     
   1.3500000000000002E-002     13.041573945176333     
   1.3800000000000003E-002     10.197090122287651     
   1.4100000000000001E-002     7.5100393256290729     
   1.4400000000000000E-002     5.0903769879156311     
   1.4700000000000001E-002     3.0095260505285282     
   1.4999999999999999E-002     1.3011471363562550     
   1.5300000000000001E-002    -3.1900129439976332E-002
   1.5600000000000003E-002    -1.0099149624601884     
   1.5899999999999997E-002    -1.6713858633519312     
   1.6199999999999999E-002    -2.0645633717637804     
   1.6500000000000001E-002    -2.2423975275933294     
   1.6800000000000002E-002    -2.2576688848929569     
   1.7100000000000004E-002    -2.1587519419360350     
   1.7400000000000006E-002    -1.9880709258122407     
   1.7700000000000000E-002    -1.7808930608181626     
   1.8000000000000002E-002    -1.5641611318348032     
   1.8300000000000004E-002    -1.3577804250154113     
   1.8600000000000005E-002    -1.1751697869874334     
   1.8900000000000000E-002    -1.0232395473952431     
   1.9200000000000002E-002   -0.90464153919728840     
   1.9500000000000003E-002   -0.81877454813241934     
   1.9799999999999998E-002   -0.76242113599688888     
   2.0100000000000000E-002   -0.73046584336700215     
   2.0400000000000001E-002   -0.71668628976384086     
   2.0700000000000003E-002   -0.71579389158332929     
   2.0999999999999998E-002   -0.72176961015249297     
   2.1299999999999999E-002   -0.72841689840013368     
   2.1600000000000001E-002   -0.73163956529359253     
   2.1900000000000003E-002   -0.72859675135622881     
   2.2200000000000004E-002   -0.71690488209423697     
   2.2500000000000006E-002   -0.69491746656346587     
   2.2800000000000001E-002   -0.66234987185005956     
   2.3100000000000002E-002   -0.62081721977694382     
   2.3400000000000004E-002   -0.57139230563087851     
   2.3699999999999999E-002   -0.51520415345591064     
   2.4000000000000000E-002   -0.45431750269176674     
   2.4300000000000002E-002   -0.39077703372468614     
   2.4599999999999997E-002   -0.32700995719965592     
   2.4900000000000005E-002   -0.26416062629639936     
   2.5200000000000000E-002   -0.20367173276395228     
   2.5499999999999995E-002   -0.14758264735902601     
   2.5800000000000003E-002    -9.6873505088558062E-002
   2.6099999999999998E-002    -5.3244245185042768E-002
   2.6400000000000007E-002    -1.8104849578518909E-002
   2.6700000000000002E-002     8.0526212587744422E-003
   2.6999999999999996E-002     2.3849744206883003E-002
   2.7300000000000005E-002     2.9289929435607834E-002
   2.7600000000000000E-002     2.4345695869700680E-002
   2.7900000000000008E-002     9.8958355158819400E-003
   2.8200000000000003E-002    -1.1952431895039872E-002
   2.8499999999999998E-002    -4.0193693743206742E-002
   2.8800000000000006E-002    -7.1507862285666163E-002
   2.9100000000000001E-002   -0.10293629461645791     
   2.9400000000000003E-002   -0.13218657351489446     
   2.9700000000000004E-002   -0.15652836616311785     
   3.0000000000000006E-002   -0.17451663577102527     
   3.0300000000000001E-002   -0.18420050186976070     
   3.0600000000000002E-002   -0.18554206815968116     
   3.0900000000000004E-002   -0.17945277236697535     
   3.1199999999999999E-002   -0.16651438840664698     
   3.1500000000000007E-002   -0.14841871640507198     
   3.1800000000000002E-002   -0.12694651500326981     
   3.2099999999999997E-002   -0.10398822883560908     
   3.2400000000000005E-002    -8.1316417091057025E-002
   3.2700000000000000E-002    -5.9922128658889018E-002
   3.3000000000000002E-002    -4.0816289525175041E-002
   3.3300000000000003E-002    -2.3462245022704012E-002
   3.3599999999999998E-002    -8.2530539126188518E-003
   3.3900000000000000E-002     5.0350893512278120E-003
   3.4200000000000001E-002     1.7993225971063998E-002
   3.4500000000000003E-002     3.1304386133851086E-002
   3.4799999999999998E-002     4.5573647748105489E-002
   3.5099999999999999E-002     6.1034400951986104E-002
   3.5400000000000001E-002     7.8070354821004176E-002
   3.5699999999999996E-002     9.6629802336727313E-002
   3.6000000000000004E-002    0.11581099871874215     
   3.6299999999999999E-002    0.13446350359478704     
   3.6600000000000008E-002    0.15151615201893043     
   3.6900000000000002E-002    0.16546823864867830     
   3.7199999999999997E-002    0.17474321981223728     
   3.7500000000000006E-002    0.17770822727988261     
   3.7800000000000000E-002    0.17235582496405649     
   3.8100000000000009E-002    0.15827704530704984     
   3.8400000000000004E-002    0.13513050211318323     
   3.8699999999999998E-002    0.10235239816464514     
   3.9000000000000007E-002     6.1508996251620762E-002
   3.9300000000000002E-002     1.4540991872020181E-002
   3.9600000000000003E-002    -3.6470159832844386E-002
   3.9900000000000005E-002    -8.7116231700886046E-002
   4.0200000000000000E-002   -0.13359084254778231     
   4.0500000000000001E-002   -0.17091456427589397     
   4.0800000000000003E-002   -0.19464334191669347     
   4.1100000000000005E-002   -0.20146354625385676     
   4.1399999999999999E-002   -0.18767034346430114     
   4.1700000000000008E-002   -0.15261246613103555     
   4.2000000000000003E-002    -9.7538725831655237E-002
   4.2299999999999997E-002    -2.4536659149800598E-002
   4.2600000000000006E-002     6.0559567722339391E-002
   4.2900000000000001E-002    0.15058723190756773     
   4.3200000000000002E-002    0.23719567376177386     
   4.3500000000000004E-002    0.31052150087422153     
   4.3799999999999999E-002    0.36299256691661219     
   4.4100000000000000E-002    0.38787837172465034     
   4.4400000000000002E-002    0.38028235074235134     
   4.4700000000000004E-002    0.33971647953878753     
   4.4999999999999998E-002    0.26897184444808103     
   4.5300000000000000E-002    0.17513195392312644     
   4.5600000000000002E-002     6.7778940212699867E-002
   4.5899999999999996E-002    -4.1894085981335316E-002
   4.6200000000000005E-002   -0.14082562966022677     
   4.6500000000000000E-002   -0.21770440726461593     
   4.6799999999999994E-002   -0.26494781519293209     
   4.7100000000000003E-002   -0.27834139362340760     
   4.7399999999999998E-002   -0.25805398206278052     
   4.7700000000000006E-002   -0.21033054824012887     
   4.8000000000000001E-002   -0.14525169028818130     
   4.8300000000000010E-002    -7.5454810054768756E-002
   4.8600000000000004E-002    -1.5021531906317845E-002
   4.8899999999999999E-002     2.3835236782765813E-002
   4.9200000000000008E-002     3.2184383140318386E-002
   4.9500000000000002E-002     7.5015329288998234E-003
   4.9800000000000011E-002    -4.5840648766142855E-002
   5.0100000000000006E-002   -0.11892260452565215     
   5.0400000000000000E-002   -0.19473176777135426     
   5.0700000000000009E-002   -0.25341989640095713     
   5.1000000000000004E-002   -0.27600346852139523     
   5.1299999999999998E-002   -0.24466394860578600     
   5.1600000000000007E-002   -0.14831507732954177     
   5.1900000000000002E-002     1.5958928565494260E-002
   5.2200000000000010E-002    0.24081730411170710     
   5.2500000000000005E-002    0.50744071963222481     
   5.2800000000000000E-002    0.78905987970572755     
   5.3099999999999994E-002     1.0524455859953485     
   5.3400000000000003E-002     1.2611278951433178     
   5.3699999999999998E-002     1.3808136629154237     
   5.4000000000000006E-002     1.3837569478124607     
   5.4300000000000001E-002     1.2527001625672942     
   5.4599999999999996E-002    0.98419744918781271     
   5.4900000000000004E-002    0.58908114475500062     
   5.5199999999999999E-002     9.2991196167832219E-002
   5.5499999999999994E-002   -0.46465506344428709     
   5.5800000000000002E-002    -1.0372364417585740     
   5.6099999999999997E-002    -1.5738350323500006     
   5.6400000000000006E-002    -2.0234882010356667     
   5.6700000000000000E-002    -2.3438272977513810     
   5.6999999999999995E-002    -2.5026776815512721     
   5.7300000000000004E-002    -2.4824889033782367     
   5.7599999999999998E-002    -2.2825884483925614     
   5.7900000000000007E-002    -1.9176977244837157     
   5.8200000000000002E-002    -1.4184115801703265     
   5.8499999999999996E-002   -0.82555529705705544     
   5.8800000000000005E-002   -0.18610886905159985     
   5.9100000000000000E-002    0.44881364232321486     
   5.9400000000000008E-002     1.0323379134364630     
   5.9700000000000003E-002     1.5247960020283915     
   6.0000000000000012E-002     1.8955982936999876     
   6.0300000000000006E-002     2.1271802968676958     
   6.0600000000000001E-002     2.2137934903284155     
   6.0900000000000010E-002     2.1613364262160735     
   6.1200000000000004E-002     1.9867104395337392     
   6.1500000000000013E-002     1.7126855928191853     
   6.1800000000000008E-002     1.3674614708789166     
   6.2100000000000002E-002    0.98110795201580303     
   6.2399999999999997E-002    0.58129283581300140     
   6.2700000000000006E-002    0.19352040938111054     
   6.3000000000000000E-002   -0.16111753652970856     
   6.3300000000000009E-002   -0.46717136947063587     
   6.3600000000000004E-002   -0.71382666832761865     
   6.3899999999999998E-002   -0.89608210034631464     
   6.4199999999999993E-002    -1.0130519014677439     
   6.4500000000000002E-002    -1.0666715082067233     
   6.4800000000000010E-002    -1.0629846408289982     
   6.5100000000000005E-002    -1.0098209285057957     
   6.5400000000000000E-002   -0.91592342639460844     
   6.5700000000000008E-002   -0.79185839700951988     
   6.5999999999999989E-002   -0.64791646766718625     
   6.6299999999999998E-002   -0.49450153696658261     
   6.6600000000000006E-002   -0.34216581193233647     
   6.6900000000000001E-002   -0.19889547201662749     
   6.7199999999999996E-002    -7.1941436584679219E-002
   6.7500000000000004E-002     3.3264899779341092E-002
   6.7800000000000013E-002    0.11429084040783330     
   6.8099999999999994E-002    0.17025017112248184     
   6.8400000000000002E-002    0.20317502298207091     
   6.8700000000000011E-002    0.21619589652073617     
   6.8999999999999992E-002    0.21336772426839545     
   6.9300000000000000E-002    0.20039923616661867     
   6.9600000000000009E-002    0.18214808530787197     
   6.9900000000000004E-002    0.16240171398142583     
   7.0199999999999999E-002    0.14441687206603393     
   7.0500000000000007E-002    0.13002592905230809     
   7.0800000000000016E-002    0.11899382279484250     
   7.1099999999999997E-002    0.11074991316682137     
   7.1400000000000005E-002    0.10403306471977625     
   7.1700000000000000E-002     9.7115495484607683E-002
   7.1999999999999995E-002     8.8799387909360816E-002
   7.2300000000000003E-002     7.8155158400176145E-002
   7.2600000000000012E-002     6.5694644588451728E-002
   7.2900000000000006E-002     5.2178608111779719E-002
   7.3200000000000001E-002     3.8354020593474182E-002
   7.3499999999999996E-002     2.7067944091513141E-002
   7.3800000000000004E-002     1.9445730951839449E-002
   7.4099999999999999E-002     1.6222150188979059E-002
   7.4400000000000008E-002     1.8520207734421194E-002
   7.4700000000000003E-002     2.5064131529906310E-002
   7.5000000000000011E-002     3.4709538679519245E-002
   7.5299999999999992E-002     4.5840386267240914E-002
   7.5600000000000001E-002     5.6062047634944046E-002
   7.5900000000000009E-002     6.3739888453624688E-002
   7.6200000000000004E-002     6.7163621978913679E-002
   7.6499999999999999E-002     6.6005788112323507E-002
   7.6800000000000007E-002     6.0320645378179265E-002
   7.7099999999999988E-002     5.0546446668110000E-002
   7.7399999999999997E-002     3.8687838662549691E-002
   7.7700000000000005E-002     2.6615079430206211E-002
   7.8000000000000014E-002     1.5205501991817603E-002
   7.8299999999999995E-002     6.1047829167247408E-003
   7.8600000000000003E-002     1.9280920421476007E-004
   7.8900000000000012E-002    -3.4092385449855595E-003
   7.9199999999999993E-002    -5.3930678279450889E-003
   7.9500000000000001E-002    -6.3659436604524000E-003
   7.9800000000000010E-002    -7.6717640888151993E-003
   8.0100000000000018E-002    -1.0667740380536129E-002
   8.0399999999999999E-002    -1.5941346534938793E-002
   8.0700000000000008E-002    -2.3111401279013358E-002
   8.1000000000000003E-002    -3.1514936310067847E-002
   8.1299999999999997E-002    -4.0417797868409558E-002
   8.1600000000000006E-002    -4.7819838358374687E-002
   8.1900000000000014E-002    -5.2071655242885616E-002
   8.2199999999999995E-002    -5.2259047336805288E-002
   8.2500000000000004E-002    -4.7398506475573109E-002
   8.2799999999999999E-002    -3.7782803266380879E-002
   8.3100000000000007E-002    -2.4399714311467337E-002
   8.3400000000000002E-002    -8.4592253483789653E-003
   8.3700000000000011E-002     7.8160211695164801E-003
   8.4000000000000005E-002     2.2729345562077612E-002
   8.4300000000000000E-002     3.4675416063723263E-002
   8.4599999999999995E-002     4.1738690211355026E-002
   8.4900000000000003E-002     4.3903218510940895E-002
   8.5199999999999998E-002     4.1021928934171267E-002
   8.5500000000000007E-002     3.3949033759449264E-002
   8.5800000000000001E-002     2.4227728019276248E-002
   8.6100000000000010E-002     1.3016454867157034E-002
   8.6399999999999991E-002     2.1563411924838448E-003
   8.6699999999999999E-002    -7.5234207881005738E-003
   8.7000000000000008E-002    -1.5549895889538173E-002
   8.7300000000000003E-002    -2.1273491066263077E-002
   8.7599999999999997E-002    -2.5510771708065517E-002
   8.7900000000000006E-002    -2.8686853047576753E-002
   8.8200000000000014E-002    -3.1067248330420155E-002
   8.8499999999999995E-002    -3.4027204526028809E-002
   8.8800000000000004E-002    -3.8021449584372757E-002
   8.9100000000000013E-002    -4.2610887851963777E-002
   8.9399999999999993E-002    -4.7513810447098549E-002
   8.9700000000000002E-002    -5.2361189850759202E-002
   9.0000000000000011E-002    -5.6283187795029853E-002
   9.0299999999999991E-002    -5.8192396892607363E-002
   9.0600000000000000E-002    -5.7402631987793128E-002
   9.0900000000000009E-002    -5.4387587155091316E-002
   9.1200000000000017E-002    -4.8965345177227455E-002
   9.1499999999999998E-002    -4.1528376484891154E-002
   9.1800000000000007E-002    -3.3953856359720418E-002
   9.2100000000000001E-002    -2.7091242029028476E-002
   9.2399999999999996E-002    -2.1972655205870321E-002
   9.2700000000000005E-002    -2.0169654740596746E-002
   9.3000000000000013E-002    -2.2064372779750881E-002
   9.3300000000000008E-002    -2.7694204400058459E-002
   9.3600000000000003E-002    -3.6233989781138870E-002
   9.3899999999999997E-002    -4.6908526962018748E-002
   9.4200000000000006E-002    -5.8542518580387268E-002
   9.4500000000000001E-002    -6.9273304057591203E-002
   9.4800000000000009E-002    -7.7914721979800330E-002
   9.5100000000000004E-002    -8.3792545431821977E-002
   9.5399999999999999E-002    -8.6127616996561851E-002
   9.5699999999999993E-002    -8.4557718811714810E-002
   9.6000000000000002E-002    -7.9901990671760251E-002
   9.6300000000000011E-002    -7.2912560084032491E-002
   9.6600000000000005E-002    -6.4086832770601246E-002
   9.6900000000000000E-002    -5.4363247568504705E-002
   9.7200000000000009E-002    -4.4218531683721078E-002
   9.7499999999999989E-002    -3.4275093598262661E-002
   9.7799999999999998E-002    -2.4069866517904333E-002
   9.8100000000000007E-002    -1.2927009553087478E-002
   9.8400000000000015E-002    -1.2674067242451157E-003
   9.8699999999999996E-002     1.2219520364268117E-002
   9.9000000000000005E-002     2.7795379027150027E-002
   9.9300000000000013E-002     4.4558058984152077E-002
   9.9599999999999994E-002     6.2693047932520396E-002
   9.9900000000000003E-002     8.1390110541286531E-002
  0.10020000000000001          9.9267769197952910E-002
  0.10049999999999999         0.11499509187320950     
  0.10080000000000000         0.12712389040433875     
  0.10110000000000001         0.13527969701615603     
  0.10140000000000000         0.13868209687778998     
  0.10170000000000000         0.13693271187825662     
  0.10200000000000001         0.13168124388885405     
  0.10230000000000002         0.12362837478354191     
  0.10260000000000000         0.11371122016852900     
  0.10290000000000001         0.10371885033395592     
  0.10320000000000000          9.4593224825159306E-002
  0.10350000000000001          8.7341699308619763E-002
  0.10380000000000000          8.2531213838909184E-002
  0.10410000000000001          7.9337453817740072E-002
  0.10440000000000001          7.7519492224943670E-002
  0.10470000000000000          7.6274778342584337E-002
  0.10500000000000000          7.4266543675588326E-002
  0.10530000000000000          7.0934584427589681E-002
  0.10560000000000000          6.5644350518954092E-002
  0.10590000000000001          5.8376195997112190E-002
  0.10620000000000000          4.9805287467436836E-002
  0.10650000000000001          4.0153039402990170E-002
  0.10679999999999999          3.0321767364868395E-002
  0.10710000000000000          2.1560191262977361E-002
  0.10740000000000001          1.3912437437454990E-002
  0.10770000000000000          8.5102630788010288E-003
  0.10800000000000000          5.1205029228031818E-003
  0.10830000000000001          2.6602519713474103E-003
  0.10859999999999999          1.4860018407647545E-003
  0.10890000000000000          2.6261085682495033E-004
  0.10920000000000001         -2.1107686288562915E-003
  0.10950000000000001         -5.5350342936843662E-003
  0.10979999999999999         -1.0528177137612255E-002
  0.11009999999999999         -1.6354479922387644E-002
  0.11040000000000001         -2.2594107381925337E-002
  0.11070000000000001         -2.8588121683643355E-002
  0.11100000000000000         -3.2701517525650071E-002
  0.11130000000000000         -3.4447913295861388E-002
  0.11160000000000002         -3.2964415335502900E-002
  0.11190000000000001         -2.7808896726262928E-002
  0.11220000000000001         -1.9776846295316119E-002
  0.11250000000000000         -9.5502613150452859E-003
  0.11280000000000000          1.9770954329767342E-003
  0.11309999999999999          1.2950081586973257E-002
  0.11340000000000001          2.1950186522933110E-002
  0.11369999999999998          2.8456261088873076E-002
  0.11400000000000000          3.1137207565782872E-002
  0.11430000000000000          2.9809554366977249E-002
  0.11460000000000002          2.5001969353097939E-002
  0.11489999999999999          1.7076192965538525E-002
  0.11520000000000001          7.5002926583798424E-003
  0.11550000000000001         -3.3500111393216618E-003
  0.11580000000000000         -1.4199670504586249E-002
  0.11609999999999999         -2.3804165278201814E-002
  0.11640000000000002         -3.2895492499288130E-002
  0.11670000000000001         -4.0844890188932531E-002
  0.11700000000000001         -4.8059658753731943E-002
  0.11730000000000000         -5.5702229567654915E-002
  0.11760000000000000         -6.3708809289517929E-002
  0.11789999999999999         -7.2808951796166699E-002
  0.11820000000000001         -8.3088016504649462E-002
  0.11850000000000001         -9.3983579571938661E-002
  0.11880000000000000        -0.10550159690787848     
  0.11910000000000000        -0.11626172851890205     
  0.11940000000000002        -0.12545339574488693     
  0.11970000000000001        -0.13241755770277447     
  0.12000000000000001        -0.13590317384791609     
  0.12030000000000000        -0.13617714767837491     
  0.12060000000000000        -0.13367321202004873     
  0.12089999999999999        -0.12842915358864954     
  0.12119999999999999        -0.12164498712336930     
  0.12150000000000001        -0.11462080646349418     
  0.12180000000000001        -0.10810558000000589     
  0.12210000000000000        -0.10314161919351289     
  0.12239999999999999        -0.10000494261185000     
  0.12270000000000002         -9.8659367724078073E-002
  0.12300000000000001         -9.8962124995721712E-002
  0.12330000000000001         -9.9921183849513734E-002
  0.12360000000000000        -0.10027296961837143     
  0.12390000000000000         -9.9587550460917301E-002
  0.12419999999999999         -9.6861702155809304E-002
  0.12450000000000001         -9.1903811036762401E-002
  0.12480000000000001         -8.4671616764913360E-002
  0.12509999999999999         -7.4991703180317379E-002
  0.12540000000000001         -6.4361898860693934E-002
  0.12570000000000003         -5.2945173115827859E-002
  0.12600000000000000         -4.0981064881722776E-002
  0.12630000000000002         -2.9642907517287306E-002
  0.12659999999999999         -1.8493047230804048E-002
  0.12690000000000001         -7.6167948711034876E-003
  0.12719999999999998          3.2603270397035776E-003
  0.12750000000000000          1.5191907250153840E-002
  0.12780000000000002          2.8037134373175121E-002
  0.12809999999999999          4.2611648444669303E-002
  0.12840000000000001          5.8815384661562164E-002
  0.12869999999999998          7.5794092908216010E-002
  0.12900000000000000          9.3477542044961615E-002
  0.12930000000000003         0.11026086280902796     
  0.12959999999999999         0.12460044709275356     
  0.12990000000000002         0.13607783469488968     
  0.13019999999999998         0.14367731134102565     
  0.13050000000000000         0.14655884091643850     
  0.13080000000000003         0.14506762257340958     
  0.13109999999999999         0.13980141901112511     
  0.13140000000000002         0.13194349810150346     
  0.13169999999999998         0.12270376368630265     
  0.13200000000000001         0.11322698472856581     
  0.13229999999999997         0.10542113642853182     
  0.13260000000000000          9.9730763313084392E-002
  0.13290000000000002          9.6500416652513271E-002
  0.13319999999999999          9.6403759237019840E-002
  0.13350000000000001          9.8401053737005695E-002
  0.13380000000000003         0.10210440918474378     
  0.13410000000000000         0.10701531930708237     
  0.13440000000000002         0.11190011677324509     
  0.13469999999999999         0.11639298179193075     
  0.13500000000000001         0.12011880972331232     
  0.13529999999999998         0.12291730099293502     
  0.13560000000000000         0.12514523614629031     
  0.13590000000000002         0.12672207353270634     
  0.13619999999999999         0.12806415492803289     
  0.13650000000000001         0.12948546839576522     
  0.13680000000000003         0.13029871756182229     
  0.13710000000000000         0.12997945934456670     
  0.13740000000000002         0.12858693935168816     
  0.13769999999999999         0.12518649622038031     
  0.13800000000000001         0.11877616987878864     
  0.13829999999999998         0.10881732086754489     
  0.13860000000000000          9.5140292524783218E-002
  0.13890000000000002          7.8445661931382499E-002
  0.13919999999999999          5.8741543377483003E-002
  0.13950000000000001          3.7099663795581266E-002
  0.13979999999999998          1.5377378761107945E-002
  0.14010000000000000         -5.2175777623046917E-003
  0.14040000000000002         -2.3236944621732907E-002
  0.14069999999999999         -3.7417849279611164E-002
  0.14100000000000001         -4.7647993043088990E-002
  0.14130000000000004         -5.3205663433303636E-002
  0.14160000000000000         -5.4414466681047644E-002
  0.14189999999999997         -5.2570497779844044E-002
  0.14219999999999999         -4.8556612371399285E-002
  0.14250000000000002         -4.3567521054004646E-002
  0.14279999999999998         -3.8713442960438382E-002
  0.14310000000000000         -3.5159924948391728E-002
  0.14339999999999997         -3.3940486335113200E-002
  0.14369999999999999         -3.4816264697771174E-002
  0.14400000000000002         -3.7490986444218791E-002
  0.14429999999999998         -4.2198583471572425E-002
  0.14460000000000001         -4.8292274744843149E-002
  0.14490000000000003         -5.5394522413638285E-002
  0.14520000000000000         -6.3111723712580142E-002
  0.14550000000000002         -7.1347064764061066E-002
  0.14579999999999999         -8.0429860613806137E-002
  0.14610000000000001         -9.0218665467118209E-002
  0.14640000000000003        -0.10062583573114656     
  0.14670000000000000        -0.11247703325661210     
  0.14699999999999996        -0.12566087969550610     
  0.14729999999999999        -0.13916281084266760     
  0.14760000000000001        -0.15289866663126048     
  0.14789999999999998        -0.16596222775414821     
  0.14820000000000000        -0.17704597975707534     