  -1.4999999999999999E-002     0.0000000000000000     
  -1.4700000000000000E-002     0.0000000000000000     
  -1.4400000000000000E-002     0.0000000000000000     
  -1.4100000000000000E-002     0.0000000000000000     
  -1.3800000000000000E-002     0.0000000000000000     
  -1.3500000000000000E-002     0.0000000000000000     
  -1.3200000000000000E-002     0.0000000000000000     
  -1.2899999999999998E-002     0.0000000000000000     
  -1.2600000000000000E-002     0.0000000000000000     
  -1.2299999999999998E-002     0.0000000000000000     
  -1.2000000000000000E-002     0.0000000000000000     
  -1.1699999999999999E-002     0.0000000000000000     
  -1.1399999999999999E-002     0.0000000000000000     
  -1.1099999999999999E-002     0.0000000000000000     
  -1.0799999999999999E-002     0.0000000000000000     
  -1.0499999999999999E-002     0.0000000000000000     
  -1.0199999999999999E-002     0.0000000000000000     
  -9.8999999999999991E-003     0.0000000000000000     
  -9.5999999999999992E-003     0.0000000000000000     
  -9.2999999999999992E-003     0.0000000000000000     
  -8.9999999999999993E-003     0.0000000000000000     
  -8.6999999999999994E-003     0.0000000000000000     
  -8.3999999999999995E-003     0.0000000000000000     
  -8.0999999999999996E-003     0.0000000000000000     
  -7.7999999999999988E-003     0.0000000000000000     
  -7.4999999999999997E-003     0.0000000000000000     
  -7.1999999999999998E-003     0.0000000000000000     
  -6.8999999999999981E-003     0.0000000000000000     
  -6.5999999999999982E-003     0.0000000000000000     
  -6.3000000000000000E-003     0.0000000000000000     
  -6.0000000000000001E-003     0.0000000000000000     
  -5.6999999999999985E-003     0.0000000000000000     
  -5.3999999999999986E-003     0.0000000000000000     
  -5.1000000000000004E-003     0.0000000000000000     
  -4.7999999999999987E-003     0.0000000000000000     
  -4.5000000000000005E-003     0.0000000000000000     
  -4.1999999999999989E-003     0.0000000000000000     
  -3.8999999999999990E-003     0.0000000000000000     
  -3.5999999999999990E-003     0.0000000000000000     
  -3.2999999999999991E-003     0.0000000000000000     
  -2.9999999999999992E-003     0.0000000000000000     
  -2.6999999999999993E-003     0.0000000000000000     
  -2.3999999999999994E-003     0.0000000000000000     
  -2.0999999999999977E-003     0.0000000000000000     
  -1.7999999999999995E-003     0.0000000000000000     
  -1.4999999999999979E-003     0.0000000000000000     
  -1.1999999999999997E-003     0.0000000000000000     
  -8.9999999999999976E-004     0.0000000000000000     
  -5.9999999999999810E-004     0.0000000000000000     
  -2.9999999999999992E-004     0.0000000000000000     
   0.0000000000000000          0.0000000000000000     
   3.0000000000000165E-004     0.0000000000000000     
   5.9999999999999984E-004     0.0000000000000000     
   9.0000000000000149E-004     0.0000000000000000     
   1.2000000000000031E-003     0.0000000000000000     
   1.5000000000000013E-003     0.0000000000000000     
   1.8000000000000030E-003     0.0000000000000000     
   2.1000000000000012E-003     0.0000000000000000     
   2.3999999999999994E-003     7.3737464846814489E-043
   2.7000000000000010E-003    -2.3432970058305375E-042
   2.9999999999999992E-003    -2.1720303195938588E-041
   3.3000000000000008E-003    -1.4599064546865089E-040
   3.6000000000000025E-003    -4.5952588974617303E-040
   3.9000000000000007E-003    -4.5157335793347934E-038
   4.2000000000000023E-003    -6.5459141394163100E-036
   4.5000000000000005E-003     1.3821735998794532E-035
   4.7999999999999987E-003     3.2360201222425373E-034
   5.1000000000000004E-003    -1.8978892182501729E-033
   5.4000000000000020E-003    -1.4999360592499793E-033
   5.7000000000000037E-003     6.7708058410742916E-032
   5.9999999999999984E-003    -3.4240992254789071E-031
   6.3000000000000000E-003     2.7855077083527714E-031
   6.6000000000000017E-003     5.5483763052514454E-030
   6.9000000000000034E-003    -2.9825524464538709E-029
   7.2000000000000015E-003     3.2597500850574245E-029
   7.5000000000000032E-003     2.8078765709406540E-028
   7.8000000000000014E-003    -9.7602066692662854E-028
   8.0999999999999996E-003    -3.2006389156233886E-027
   8.4000000000000012E-003     3.1989387199857158E-026
   8.7000000000000029E-003    -7.0994942681635405E-026
   9.0000000000000011E-003    -2.6003326978596271E-025
   9.2999999999999992E-003     2.4383422545886571E-024
   9.6000000000000009E-003    -8.3308959998040199E-024
   9.8999999999999991E-003     1.0964541437394147E-023
   1.0200000000000001E-002     3.0166200401816360E-023
   1.0500000000000002E-002    -1.9150934452063773E-022
   1.0800000000000004E-002     3.7095902680431273E-022
   1.1099999999999999E-002     5.9276004977053154E-022
   1.1400000000000000E-002    -6.9092025340568254E-021
   1.1700000000000002E-002     2.8321062140964954E-020
   1.2000000000000004E-002    -8.0488835525488621E-020
   1.2300000000000002E-002     1.8451955889156843E-019
   1.2600000000000000E-002    -4.0883054312368404E-019
   1.2900000000000002E-002     1.2090979958060027E-018
   1.3200000000000000E-002    -5.3119514311458233E-018
   1.3500000000000002E-002     2.7238019337447142E-017
   1.3800000000000003E-002    -1.4097495582374877E-016
   1.4100000000000001E-002     7.1433123663813612E-016
   1.4400000000000000E-002    -3.4934212801549619E-015
   1.4700000000000001E-002     1.6095988113584401E-014
   1.4999999999999999E-002    -6.7631890425310657E-014
   1.5300000000000001E-002     2.4850608588426240E-013
   1.5600000000000003E-002    -7.4646566444499411E-013
   1.5899999999999997E-002     1.5487922121234607E-012
   1.6199999999999999E-002    -4.3860067326202200E-013
   1.6500000000000001E-002    -1.3390943406737380E-011
   1.6800000000000002E-002     6.6565169009185252E-011
   1.7100000000000004E-002    -1.6819466142678139E-010
   1.7400000000000006E-002     1.2633202686022129E-010
   1.7700000000000000E-002     7.4256487056994125E-010
   1.8000000000000002E-002    -2.9486702873468378E-009
   1.8300000000000004E-002     3.1281252096792520E-009
   1.8600000000000005E-002     8.7940919833484014E-009
   1.8900000000000000E-002    -3.0371565765059440E-008
   1.9200000000000002E-002     4.4586276941688705E-009
   1.9500000000000003E-002     1.1574878120972426E-007
   1.9799999999999998E-002    -1.0349854877109297E-007
   2.0100000000000000E-002    -3.5554395764739557E-007
   2.0400000000000001E-002     3.3561974794149662E-007
   2.0700000000000003E-002     1.0928007705172618E-006
   2.0999999999999998E-002    -4.4755728848100272E-007
   2.1299999999999999E-002    -3.4422919809687945E-006
   2.1600000000000001E-002    -1.5712649375951750E-006
   2.1900000000000003E-002     1.2503494132469837E-005
   2.2200000000000004E-002     4.0610196911991357E-005
   2.2500000000000006E-002     7.9492397673690585E-005
   2.2800000000000001E-002     1.2838450543608700E-004
   2.3100000000000002E-002     1.9498386364612404E-004
   2.3400000000000004E-002     2.9671911725186059E-004
   2.3699999999999999E-002     4.5915871410495907E-004
   2.4000000000000000E-002     7.1353493605643271E-004
   2.4300000000000002E-002     1.0984219215186761E-003
   2.4599999999999997E-002     1.6664214757172702E-003
   2.4900000000000005E-002     2.4908152316203752E-003
   2.5200000000000000E-002     3.6712393493354852E-003
   2.5499999999999995E-002     5.3392620454701840E-003
   2.5800000000000003E-002     7.6623086090744121E-003
   2.6099999999999998E-002     1.0845586860371931E-002
   2.6400000000000007E-002     1.5132222710219127E-002
   2.6700000000000002E-002     2.0802611202133905E-002
   2.6999999999999996E-002     2.8168682717015316E-002
   2.7300000000000005E-002     3.7557252335353175E-002
   2.7600000000000000E-002     4.9281888083816748E-002
   2.7900000000000008E-002     6.3608491091667108E-002
   2.8200000000000003E-002     8.0709264411655046E-002
   2.8499999999999998E-002    0.10059603054106686     
   2.8800000000000006E-002    0.12304903630610234     
   2.9100000000000001E-002    0.14753512965593624     
   2.9400000000000003E-002    0.17312808005527910     
   2.9700000000000004E-002    0.19843981559610202     
   3.0000000000000006E-002    0.22156388533263610     
   3.0300000000000001E-002    0.24006889948347920     
   3.0600000000000002E-002    0.25102763855332272     
   3.0900000000000004E-002    0.25110590511505193     
   3.1199999999999999E-002    0.23674655701444591     
   3.1500000000000007E-002    0.20438741496327884     
   3.1800000000000002E-002    0.15078459836348920     
   3.2099999999999997E-002     7.3414194045249112E-002
   3.2400000000000005E-002    -2.9166040884119018E-002
   3.2700000000000000E-002   -0.15687587250921980     
   3.3000000000000002E-002   -0.30775509572299214     
   3.3300000000000003E-002   -0.47773162035230954     
   3.3599999999999998E-002   -0.66046429444915589     
   3.3900000000000000E-002   -0.84742975921844721     
   3.4200000000000001E-002    -1.0282052711321850     
   3.4500000000000003E-002    -1.1909525107935763     
   3.4799999999999998E-002    -1.3231585715745053     
   3.5099999999999999E-002    -1.4125100188657729     
   3.5400000000000001E-002    -1.4478879251694121     
   3.5699999999999996E-002    -1.4203936991373614     
   3.6000000000000004E-002    -1.3242668130525970     
   3.6299999999999999E-002    -1.1576517845397003     
   3.6600000000000008E-002   -0.92307594054410180     
   3.6900000000000002E-002   -0.62762631704871563     
   3.7199999999999997E-002   -0.28268753765727139     
   3.7500000000000006E-002     9.6586721475310777E-002
   3.7800000000000000E-002    0.49227601322094444     
   3.8100000000000009E-002    0.88486683502757157     
   3.8400000000000004E-002     1.2545611167875352     
   3.8699999999999998E-002     1.5827427045358222     
   3.9000000000000007E-002     1.8532095206407042     
   3.9300000000000002E-002     2.0532780478200632     
   3.9600000000000003E-002     2.1746656800205004     
   3.9900000000000005E-002     2.2137374673288450     
   4.0200000000000000E-002     2.1716936883418523     
   4.0500000000000001E-002     2.0542308221227539     
   4.0800000000000003E-002     1.8707754084603256     
   4.1100000000000005E-002     1.6337449714374177     
   4.1399999999999999E-002     1.3574228023382193     
   4.1700000000000008E-002     1.0568165069415867     
   4.2000000000000003E-002    0.74674637183434989     
   4.2299999999999997E-002    0.44081599357187734     
   4.2600000000000006E-002    0.15080042588668854     
   4.2900000000000001E-002   -0.11383916711300332     
   4.3200000000000002E-002   -0.34626234865297867     
   4.3500000000000004E-002   -0.54222356883648015     
   4.3799999999999999E-002   -0.69990205582023490     
   4.4100000000000000E-002   -0.81957387287756878     
   4.4400000000000002E-002   -0.90327027406851279     
   4.4700000000000004E-002   -0.95413870825052838     
   4.4999999999999998E-002   -0.97620514779655587     
   4.5300000000000000E-002   -0.97388932397415195     
   4.5600000000000002E-002   -0.95155434083216095     
   4.5899999999999996E-002   -0.91350920126149104     
   4.6200000000000005E-002   -0.86361701337247787     
   4.6500000000000000E-002   -0.80526215804249990     
   4.6799999999999994E-002   -0.74148334056796128     
   4.7100000000000003E-002   -0.67478989939250422     
   4.7399999999999998E-002   -0.60734319822254235     
   4.7700000000000006E-002   -0.54108072124826667     
   4.8000000000000001E-002   -0.47761754564525438     
   4.8300000000000010E-002   -0.41848944067641097     
   4.8600000000000004E-002   -0.36514052369564159     
   4.8899999999999999E-002   -0.31886476716315482     
   4.9200000000000008E-002   -0.28095717026760181     
   4.9500000000000002E-002   -0.25259401716199581     
   4.9800000000000011E-002   -0.23476337115452145     
   5.0100000000000006E-002   -0.22839448299358617     
   5.0400000000000000E-002   -0.23408720459424898     
   5.0700000000000009E-002   -0.25206133649204321     
   5.1000000000000004E-002   -0.28215213896560842     
   5.1299999999999998E-002   -0.32350323215117421     
   5.1600000000000007E-002   -0.37453745986074716     
   5.1900000000000002E-002   -0.43280640881728821     
   5.2200000000000010E-002   -0.49477168843881170     
   5.2500000000000005E-002   -0.55586990621147969     
   5.2800000000000000E-002   -0.61049501009676577     
   5.3099999999999994E-002   -0.65197524742332735     
   5.3400000000000003E-002   -0.67303677404750639     
   5.3699999999999998E-002   -0.66607931016921862     
   5.4000000000000006E-002   -0.62366845711355734     
   5.4300000000000001E-002   -0.53939886761791300     
   5.4599999999999996E-002   -0.40838845584643091     
   5.4900000000000004E-002   -0.22806694197537142     
   5.5199999999999999E-002     9.8027826372449473E-004
   5.5499999999999994E-002    0.27486614913971646     
   5.5800000000000002E-002    0.58581750675077382     
   5.6099999999999997E-002    0.92226814664523937     
   5.6400000000000006E-002     1.2695646491018204     
   5.6700000000000000E-002     1.6102487824319227     
   5.6999999999999995E-002     1.9253929690096836     
   5.7300000000000004E-002     2.1959310514785919     
   5.7599999999999998E-002     2.4036722637088390     
   5.7900000000000007E-002     2.5330119653994667     
   5.8200000000000002E-002     2.5722343509093299     
   5.8499999999999996E-002     2.5141891880811178     
   5.8800000000000005E-002     2.3574102838289672     
   5.9100000000000000E-002     2.1061419831834023     
   5.9400000000000008E-002     1.7698646172088595     
   5.9700000000000003E-002     1.3632476782389680     
   6.0000000000000012E-002    0.90464966620766729     
   6.0300000000000006E-002    0.41492712240915219     
   6.0600000000000001E-002    -8.3498536121479755E-002
   6.0900000000000010E-002   -0.56875890749342828     
   6.1200000000000004E-002    -1.0205021074194547     
   6.1500000000000013E-002    -1.4208140175009045     
   6.1800000000000008E-002    -1.7558276810635809     
   6.2100000000000002E-002    -2.0154988200481365     
   6.2399999999999997E-002    -2.1942838017821296     
   6.2700000000000006E-002    -2.2912982333295462     
   6.3000000000000000E-002    -2.3092765714425432     
   6.3300000000000009E-002    -2.2549238923533395     
   6.3600000000000004E-002    -2.1379414997103074     
   6.3899999999999998E-002    -1.9700289596382285     
   6.4199999999999993E-002    -1.7649929465927228     
   6.4500000000000002E-002    -1.5373006142366628     
   6.4800000000000010E-002    -1.3016079157710920     
   6.5100000000000005E-002    -1.0724346598083547     
   6.5400000000000000E-002   -0.86278229192357025     
   6.5700000000000008E-002   -0.68401881503467743     
   6.5999999999999989E-002   -0.54501945021944009     
   6.6299999999999998E-002   -0.45114557424461216     
   6.6600000000000006E-002   -0.40412679661551881     
   6.6900000000000001E-002   -0.40112818845067189     
   6.7199999999999996E-002   -0.43450732727063657     
   6.7500000000000004E-002   -0.49223286010826117     
   6.7800000000000013E-002   -0.55780434612238050     
   6.8099999999999994E-002   -0.61148417884402617     
   6.8400000000000002E-002   -0.63185068880596040     
   6.8700000000000011E-002   -0.59705283116422847     
   6.8999999999999992E-002   -0.48760516988605163     
   6.9300000000000000E-002   -0.28828787365376668     
   6.9600000000000009E-002     9.6758662334517007E-003
   6.9900000000000004E-002    0.40643958956029347     
   7.0199999999999999E-002    0.89298004791174834     
   7.0500000000000007E-002     1.4502287060850882     
   7.0800000000000016E-002     2.0496007830817677     
   7.1099999999999997E-002     2.6551109449987202     
   7.1400000000000005E-002     3.2251678953103515     
   7.1700000000000000E-002     3.7160886128123067     
   7.1999999999999995E-002     4.0860017317452977     
   7.2300000000000003E-002     4.2980839154358446     
   7.2600000000000012E-002     4.3245593272285330     
   7.2900000000000006E-002     4.1492618807535111     
   7.3200000000000001E-002     3.7694858569218717     
   7.3499999999999996E-002     3.1969270926209008     
   7.3800000000000004E-002     2.4569016603246201     
   7.4099999999999999E-002     1.5868253809965724     
   7.4400000000000008E-002    0.63319205981304305     
   7.4700000000000003E-002   -0.35197744923269697     
   7.5000000000000011E-002    -1.3150038734588863     
   7.5299999999999992E-002    -2.2050687936408009     
   7.5600000000000001E-002    -2.9775560167670161     
   7.5900000000000009E-002    -3.5974416105775120     
   7.6200000000000004E-002    -4.0413683269948351     
   7.6499999999999999E-002    -4.2984717942797612     
   7.6800000000000007E-002    -4.3706109575497818     
   7.7099999999999988E-002    -4.2708840494375639     
   7.7399999999999997E-002    -4.0215274288195717     
   7.7700000000000005E-002    -3.6514527671144741     
   7.8000000000000014E-002    -3.1926499512591797     
   7.8299999999999995E-002    -2.6773828314623147     
   7.8600000000000003E-002    -2.1353282801837619     
   7.8900000000000012E-002    -1.5911947563689690     
   7.9199999999999993E-002    -1.0635457784301163     
   7.9500000000000001E-002   -0.56376573182168610     
   7.9800000000000010E-002    -9.6767733851648330E-002
   8.0100000000000018E-002    0.33813026374467170     
   8.0399999999999999E-002    0.74551056228895007     
   8.0700000000000008E-002     1.1314556318393922     
   8.1000000000000003E-002     1.5017968580955181     
   8.1299999999999997E-002     1.8597754973735721     
   8.1600000000000006E-002     2.2045460988999577     
   8.1900000000000014E-002     2.5304919241901405     
   8.2199999999999995E-002     2.8265187541978753     
   8.2500000000000004E-002     3.0771973823364656     
   8.2799999999999999E-002     3.2639992721312612     
   8.3100000000000007E-002     3.3670135937334948     
   8.3400000000000002E-002     3.3679512288819673     
   8.3700000000000011E-002     3.2520234997629891     
   8.4000000000000005E-002     3.0103391061980349     
   8.4300000000000000E-002     2.6420213621683755     
   8.4599999999999995E-002     2.1546255554459472     
   8.4900000000000003E-002     1.5648164245725891     
   8.5199999999999998E-002    0.89763943295542181     
   8.5500000000000007E-002    0.18456261940070684     
   8.5800000000000001E-002   -0.53830733663684438     
   8.6100000000000010E-002    -1.2332958446667419     
   8.6399999999999991E-002    -1.8642593561022442     
   8.6699999999999999E-002    -2.3990204342761148     
   8.7000000000000008E-002    -2.8121908548703720     
   8.7300000000000003E-002    -3.0867674137905858     
   8.7599999999999997E-002    -3.2149678180348111     
   8.7900000000000006E-002    -3.1986356965502458     
   8.8200000000000014E-002    -3.0482515999855244     
   8.8499999999999995E-002    -2.7813969177216866     
   8.8800000000000004E-002    -2.4212033025023194     
   8.9100000000000013E-002    -1.9937299733018188     
   8.9399999999999993E-002    -1.5258789797349259     
   8.9700000000000002E-002    -1.0436687816008174     
   9.0000000000000011E-002   -0.57029838262557031     
   9.0299999999999991E-002   -0.12545479963483280     
   9.0600000000000000E-002    0.27533423952468544     
   9.0900000000000009E-002    0.62069658875710609     
   9.1200000000000017E-002    0.90278125084805183     
   9.1499999999999998E-002     1.1170907283793234     
   9.1800000000000007E-002     1.2614374285794214     
   9.2100000000000001E-002     1.3354211027146521     
   9.2399999999999996E-002     1.3404200651521896     
   9.2700000000000005E-002     1.2789643736987981     
   9.3000000000000013E-002     1.1553524180108197     
   9.3300000000000008E-002    0.97587380231840237     
   9.3600000000000003E-002    0.74912226005646076     
   9.3899999999999997E-002    0.48662074902884234     
   9.4200000000000006E-002    0.20261563316399389     
   9.4500000000000001E-002    -8.5615561900518472E-002
   9.4800000000000009E-002   -0.35859599797372282     
   9.5100000000000004E-002   -0.59612445065061204     
   9.5399999999999999E-002   -0.77809714498947047     
   9.5699999999999993E-002   -0.88667461880500764     
   9.6000000000000002E-002   -0.90803032964753494     
   9.6300000000000011E-002   -0.83386079624356957     
   9.6600000000000005E-002   -0.66338016335191585     
   9.6900000000000000E-002   -0.40371373766228380     
   9.7200000000000009E-002    -7.0383917654952860E-002
   9.7499999999999989E-002    0.31312136126947654     
   9.7799999999999998E-002    0.71727263255040130     
   9.8100000000000007E-002     1.1078949504136650     
   9.8400000000000015E-002     1.4491643827876024     
   9.8699999999999996E-002     1.7067982953301950     
   9.9000000000000005E-002     1.8504146619413619     
   9.9300000000000013E-002     1.8569192611479666     
   9.9599999999999994E-002     1.7129203017068790     
   9.9900000000000003E-002     1.4159082002527918     
  0.10020000000000001         0.97545963309853567     
  0.10049999999999999         0.41305772086187253     
  0.10080000000000000        -0.23926119733144047     
  0.10110000000000001        -0.94043111165796556     
  0.10140000000000000         -1.6433007207585928     
  0.10170000000000000         -2.2981031526932765     
  0.10200000000000001         -2.8553883451350717     
  0.10230000000000002         -3.2701750071225355     
  0.10260000000000000         -3.5054028579171210     
  0.10290000000000001         -3.5343661035383089     
  0.10320000000000000         -3.3438911313891357     
  0.10350000000000001         -2.9351021917760893     
  0.10380000000000000         -2.3240378953497185     
  0.10410000000000001         -1.5417902103427743     
  0.10440000000000001        -0.63195700835828750     
  0.10470000000000000         0.35164577331664770     
  0.10500000000000000          1.3480103921428077     
  0.10530000000000000          2.2938615173626506     
  0.10560000000000000          3.1275607549896489     
  0.10590000000000001          3.7935606115367184     
  0.10620000000000000          4.2470651515483047     
  0.10650000000000001          4.4569060053174887     
  0.10679999999999999          4.4086180454100647     
  0.10710000000000000          4.1056886537370421     
  0.10740000000000001          3.5691633352362584     
  0.10770000000000000          2.8367218408662471     
  0.10800000000000000          1.9597159940208235     
  0.10830000000000001         0.99932914252844585     
  0.10859999999999999          2.2127468422290242E-002
  0.10890000000000000        -0.90504973557684454     
  0.10920000000000001         -1.7202518595207303     
  0.10950000000000001         -2.3709585175397967     
  0.10979999999999999         -2.8179474520746055     
  0.11009999999999999         -3.0380802817293686     
  0.11040000000000001         -3.0253507034586198     
  0.11070000000000001         -2.7910370530238460     
  0.11100000000000000         -2.3621119553857408     
  0.11130000000000000         -1.7784330760762326     
  0.11160000000000002         -1.0891883716439195     
  0.11190000000000001        -0.34838126042429374     
  0.11220000000000001         0.38945415317390031     
  0.11250000000000000          1.0736151733745380     
  0.11280000000000000          1.6608993619310664     
  0.11309999999999999          2.1184281055078911     
  0.11340000000000001          2.4255022763182721     
  0.11369999999999998          2.5737378492744472     
  0.11400000000000000          2.5671352401500589     
  0.11430000000000000          2.4201823200295092     
  0.11460000000000002          2.1552886530473021     
  0.11489999999999999          1.8008762045281599     
  0.11520000000000001          1.3874867288775445     
  0.11550000000000001         0.94530806800024170     
  0.11580000000000000         0.50210765027732707     
  0.11609999999999999          8.0441145076522946E-002
  0.11640000000000002        -0.30247402428562881     
  0.11670000000000001        -0.63569710251509992     
  0.11700000000000001        -0.91462744852280120     
  0.11730000000000000         -1.1389556366419897     
  0.11760000000000000         -1.3125867664723279     
  0.11789999999999999         -1.4414484675189112     
  0.11820000000000001         -1.5315772207916321     
  0.11850000000000001         -1.5887806531110382     
  0.11880000000000000         -1.6166583051497621     
  0.11910000000000000         -1.6164176547979363     
  0.11940000000000002         -1.5873646325784359     
  0.11970000000000001         -1.5266427421164861     
  0.12000000000000001         -1.4309154945394185     
  0.12030000000000000         -1.2972928792821539     
  0.12060000000000000         -1.1244336031720379     
  0.12089999999999999        -0.91423773646184325     
  0.12119999999999999        -0.67243897120406304     
  0.12150000000000001        -0.40904738663421747     
  0.12180000000000001        -0.13829211033506456     
  0.12210000000000000         0.12203584804906364     
  0.12239999999999999         0.35208927653455785     
  0.12270000000000002         0.53146059249898159     
  0.12300000000000001         0.64097179081730937     
  0.12330000000000001         0.66504538935978552     
  0.12360000000000000         0.59270682565966060     
  0.12390000000000000         0.41927778876804100     
  0.12419999999999999         0.14699101343479293     
  0.12450000000000001        -0.21554475777830390     
  0.12480000000000001        -0.65292038119149898     
  0.12509999999999999         -1.1449882180403668     
  0.12540000000000001         -1.6681488378189382     
  0.12570000000000003         -2.1963576099803555     
  0.12600000000000000         -2.7040246374162775     
  0.12630000000000002         -3.1666431361097231     
  0.12659999999999999         -3.5618452834343279     
  0.12690000000000001         -3.8709161217444885     
  0.12719999999999998         -4.0783471807741725     
  0.12750000000000000         -4.1723951381861273     
  0.12780000000000002         -4.1447667447272334     
  0.12809999999999999         -3.9900913022812796     
  0.12840000000000001         -3.7062332493487693     
  0.12869999999999998         -3.2939951978885293     
  0.12900000000000000         -2.7569279389350356     
  0.12930000000000003         -2.1020869031200715     
  0.12959999999999999         -1.3401535781245468     
  0.12990000000000002        -0.48538324808352296     
  0.13019999999999998         0.44400172497158708     
  0.13050000000000000          1.4260306979370396     
  0.13080000000000003          2.4362742478867569     
  0.13109999999999999          3.4479089145846764     
  0.13140000000000002          4.4335804895268360     
  0.13169999999999998          5.3672093001149346     
  0.13200000000000001          6.2247938353058592     
  0.13229999999999997          6.9861612755389828     
  0.13260000000000000          7.6357978976802530     
  0.13290000000000002          8.1629049884076910     
  0.13319999999999999          8.5614803255644656     
  0.13350000000000001          8.8288515519543882     
  0.13380000000000003          8.9647398830245741     
  0.13410000000000000          8.9695007034875474     
  0.13440000000000002          8.8424102661945057     
  0.13469999999999999          8.5807966418163453     
  0.13500000000000001          8.1784925586738879     
  0.13529999999999998          7.6271610263176832     
  0.13560000000000000          6.9167113395088951     
  0.13590000000000002          6.0366464233777970     
  0.13619999999999999          4.9794679252793417     
  0.13650000000000001          3.7425856225675886     
  0.13680000000000003          2.3313702736721673     
  0.13710000000000000         0.76128432297464110     
  0.13740000000000002        -0.94117346401362134     
  0.13769999999999999         -2.7365425788574709     
  0.13800000000000001         -4.5748603064023623     
  0.13829999999999998         -6.3975341006889019     
  0.13860000000000000         -8.1381717871380932     
  0.13890000000000002         -9.7295736974451046     
  0.13919999999999999         -11.106010084445092     
  0.13950000000000001         -12.206395372152835     
  0.13979999999999998         -12.981572110718940     
  0.14010000000000000         -13.393801846160382     
  0.14040000000000002         -13.420106058248388     
  0.14069999999999999         -13.055319472083417     
  0.14100000000000001         -12.308271207678382     
  0.14130000000000004         -11.204631625339033     
  0.14160000000000000         -9.7831686072306283     
  0.14189999999999997         -8.0930033537814499     
  0.14219999999999999         -6.1944425950136290     
  0.14250000000000002         -4.1522932552792939     
  0.14279999999999998         -2.0358911697416051     
  0.14310000000000000          8.2951485391073776E-002
  0.14339999999999997          2.1342052694427491     
  0.14369999999999999          4.0493242664049056     
  0.14400000000000002          5.7647468353994658     
  0.14429999999999998          7.2231433305280017     
  0.14460000000000001          8.3752796213733998     
  0.14490000000000003          9.1824254483231105     
  0.14520000000000000          9.6172972943750956     
  0.14550000000000002          9.6668566931406801     
  0.14579999999999999          9.3323340859254156     
  0.14610000000000001          8.6307868871322668     
  0.14640000000000003          7.5952347835098486     
  0.14670000000000000          6.2728173069205697     
  0.14699999999999996          4.7253631678240922     
  0.14729999999999999          3.0249604436908619     
  0.14760000000000001          1.2512969743924494     
  0.14789999999999998        -0.51065298066073561     
  0.14820000000000000         -2.1775017425757053     