  -1.4999999999999999E-002     0.0000000000000000     
  -1.4700000000000000E-002     0.0000000000000000     
  -1.4400000000000000E-002     0.0000000000000000     
  -1.4100000000000000E-002     0.0000000000000000     
  -1.3800000000000000E-002     0.0000000000000000     
  -1.3500000000000000E-002     0.0000000000000000     
  -1.3200000000000000E-002     0.0000000000000000     
  -1.2899999999999998E-002     0.0000000000000000     
  -1.2600000000000000E-002     0.0000000000000000     
  -1.2299999999999998E-002     0.0000000000000000     
  -1.2000000000000000E-002     0.0000000000000000     
  -1.1699999999999999E-002     0.0000000000000000     
  -1.1399999999999999E-002     0.0000000000000000     
  -1.1099999999999999E-002     0.0000000000000000     
  -1.0799999999999999E-002     0.0000000000000000     
  -1.0499999999999999E-002     0.0000000000000000     
  -1.0199999999999999E-002     0.0000000000000000     
  -9.8999999999999991E-003     0.0000000000000000     
  -9.5999999999999992E-003     0.0000000000000000     
  -9.2999999999999992E-003     0.0000000000000000     
  -8.9999999999999993E-003     0.0000000000000000     
  -8.6999999999999994E-003     0.0000000000000000     
  -8.3999999999999995E-003     0.0000000000000000     
  -8.0999999999999996E-003     0.0000000000000000     
  -7.7999999999999988E-003     0.0000000000000000     
  -7.4999999999999997E-003     0.0000000000000000     
  -7.1999999999999998E-003     0.0000000000000000     
  -6.8999999999999981E-003     0.0000000000000000     
  -6.5999999999999982E-003     0.0000000000000000     
  -6.3000000000000000E-003     0.0000000000000000     
  -6.0000000000000001E-003     0.0000000000000000     
  -5.6999999999999985E-003     0.0000000000000000     
  -5.3999999999999986E-003     0.0000000000000000     
  -5.1000000000000004E-003     0.0000000000000000     
  -4.7999999999999987E-003     0.0000000000000000     
  -4.5000000000000005E-003     0.0000000000000000     
  -4.1999999999999989E-003     0.0000000000000000     
  -3.8999999999999990E-003     0.0000000000000000     
  -3.5999999999999990E-003    -2.9804661378072616E-044
  -3.2999999999999991E-003     8.8425913764855589E-044
  -2.9999999999999992E-003     8.1260526685631441E-043
  -2.6999999999999993E-003     1.7076288534096719E-037
  -2.3999999999999994E-003     1.0783184724538672E-036
  -2.0999999999999977E-003    -6.7335096922070150E-036
  -1.7999999999999995E-003    -1.5495771663049136E-035
  -1.4999999999999979E-003     8.3104531987544888E-035
  -1.1999999999999997E-003     5.1827812586927221E-034
  -8.9999999999999976E-004    -5.3102399972998786E-033
  -5.9999999999999810E-004     1.6200772579069453E-032
  -2.9999999999999992E-004    -9.2648799905636347E-034
   0.0000000000000000         -2.2574508021376001E-031
   3.0000000000000165E-004     9.8994351067041774E-031
   5.9999999999999984E-004    -1.7096813359622508E-030
   9.0000000000000149E-004    -1.2248985792647952E-030
   1.2000000000000031E-003     1.1576676447906768E-029
   1.5000000000000013E-003    -1.3448262419452117E-029
   1.8000000000000030E-003    -6.2307881563134189E-029
   2.1000000000000012E-003     3.2217617262155716E-028
   2.3999999999999994E-003    -6.7121044129252053E-028
   2.7000000000000010E-003     3.5340946495094611E-028
   2.9999999999999992E-003     5.9859552195146808E-028
   3.3000000000000008E-003     9.1702617706258509E-027
   3.6000000000000025E-003    -6.1814385558744589E-026
   3.9000000000000007E-003     3.8179988362834761E-026
   4.2000000000000023E-003     1.3861400332507008E-024
   4.5000000000000005E-003    -9.3379820333428200E-024
   4.7999999999999987E-003     3.0911671434869736E-023
   5.1000000000000004E-003    -3.4659087400104692E-023
   5.4000000000000020E-003    -2.1866956644470385E-022
   5.7000000000000037E-003     1.5597082650662804E-021
   5.9999999999999984E-003    -5.6889249654441889E-021
   6.3000000000000000E-003     1.3583279614096620E-020
   6.6000000000000017E-003    -1.7336891227399326E-020
   6.9000000000000034E-003    -2.2633137116237814E-020
   7.2000000000000015E-003     2.2415315652183059E-019
   7.5000000000000032E-003    -8.6586502282925846E-019
   7.8000000000000014E-003     2.5785915650613877E-018
   8.0999999999999996E-003    -7.1032910723102858E-018
   8.4000000000000012E-003     2.0763384720136163E-017
   8.7000000000000029E-003    -6.8670889267399621E-017
   9.0000000000000011E-003     2.4263925929443735E-016
   9.2999999999999992E-003    -8.1456332126239405E-016
   9.6000000000000009E-003     2.2373779867537384E-015
   9.8999999999999991E-003    -3.1117122324085874E-015
   1.0200000000000001E-002    -1.4732609887078358E-014
   1.0500000000000002E-002     1.5696740575825739E-013
   1.0800000000000004E-002    -8.5302953838277881E-013
   1.1099999999999999E-002     3.3104878493862675E-012
   1.1400000000000000E-002    -9.1246303135150429E-012
   1.1700000000000002E-002     1.3642886851779487E-011
   1.2000000000000004E-002     1.7454442310054484E-011
   1.2300000000000002E-002    -1.7289422359216692E-010
   1.2600000000000000E-002     4.7310754437050600E-010
   1.2900000000000002E-002    -3.2083636831450412E-010
   1.3200000000000000E-002    -1.9121810094416287E-009
   1.3500000000000002E-002     5.8751508128485557E-009
   1.3800000000000003E-002    -9.0542749512100624E-010
   1.4100000000000001E-002    -2.5707584230247587E-008
   1.4400000000000000E-002     2.9816009121413167E-008
   1.4700000000000001E-002     8.2703369302146179E-008
   1.4999999999999999E-002    -1.4861683402918954E-007
   1.5300000000000001E-002    -3.1923821845342271E-007
   1.5600000000000003E-002     3.7043147924554689E-007
   1.5899999999999997E-002     1.1136516885555836E-006
   1.6199999999999999E-002    -3.6205826183657955E-007
   1.6500000000000001E-002    -3.0798984142879729E-006
   1.6800000000000002E-002    -9.2044665911776698E-007
   1.7100000000000004E-002     9.8113334165127333E-006
   1.7400000000000006E-002     2.3209769522498143E-005
   1.7700000000000000E-002     3.1357593230087725E-005
   1.8000000000000002E-002     3.9082401512815410E-005
   1.8300000000000004E-002     6.3081904505987322E-005
   1.8600000000000005E-002     1.1377944582829377E-004
   1.8900000000000000E-002     1.8681680092950362E-004
   1.9200000000000002E-002     2.8007466475013694E-004
   1.9500000000000003E-002     4.1367954878624938E-004
   1.9799999999999998E-002     6.2400651736642940E-004
   2.0100000000000000E-002     9.4182952135471389E-004
   2.0400000000000001E-002     1.3904985113682190E-003
   2.0700000000000003E-002     2.0098806156053639E-003
   2.0999999999999998E-002     2.8710117001720004E-003
   2.1299999999999999E-002     4.0611143083409259E-003
   2.1600000000000001E-002     5.6657052755275670E-003
   2.1900000000000003E-002     7.7771718081415236E-003
   2.2200000000000004E-002     1.0513898510562055E-002
   2.2500000000000006E-002     1.4015005414488703E-002
   2.2800000000000001E-002     1.8411404813358564E-002
   2.3100000000000002E-002     2.3807497051630707E-002
   2.3400000000000004E-002     3.0283144919908241E-002
   2.3699999999999999E-002     3.7888056842751948E-002
   2.4000000000000000E-002     4.6606808272078325E-002
   2.4300000000000002E-002     5.6314374767471857E-002
   2.4599999999999997E-002     6.6754214246437446E-002
   2.4900000000000005E-002     7.7532902554789382E-002
   2.5200000000000000E-002     8.8106208327422261E-002
   2.5499999999999995E-002     9.7755344267264496E-002
   2.5800000000000003E-002    0.10558558506069791     
   2.6099999999999998E-002    0.11055207618058877     
   2.6400000000000007E-002    0.11151136954565248     
   2.6700000000000002E-002    0.10729987067619429     
   2.6999999999999996E-002     9.6808828789181067E-002
   2.7300000000000005E-002     7.9081581778988830E-002
   2.7600000000000000E-002     5.3430474456232072E-002
   2.7900000000000008E-002     1.9555369353120872E-002
   2.8200000000000003E-002    -2.2350974120266497E-002
   2.8499999999999998E-002    -7.1523409420382322E-002
   2.8800000000000006E-002   -0.12658036247193324     
   2.9100000000000001E-002   -0.18554111513036775     
   2.9400000000000003E-002   -0.24588122445238558     
   2.9700000000000004E-002   -0.30464571563602399     
   3.0000000000000006E-002   -0.35864353470509991     
   3.0300000000000001E-002   -0.40465865326171507     
   3.0600000000000002E-002   -0.43968815925283256     
   3.0900000000000004E-002   -0.46118747049571079     
   3.1199999999999999E-002   -0.46733038974997276     
   3.1500000000000007E-002   -0.45717590834522148     
   3.1800000000000002E-002   -0.43079176664573915     
   3.2099999999999997E-002   -0.38927463024971065     
   3.2400000000000005E-002   -0.33470607198887742     
   3.2700000000000000E-002   -0.27007577133424171     
   3.3000000000000002E-002   -0.19902370943264910     
   3.3300000000000003E-002   -0.12553842062003812     
   3.3599999999999998E-002    -5.3692541481717829E-002
   3.3900000000000000E-002     1.2630265994706426E-002
   3.4200000000000001E-002     7.0012418291629547E-002
   3.4500000000000003E-002    0.11574640573500163     
   3.4799999999999998E-002    0.14807524133797451     
   3.5099999999999999E-002    0.16623767658004915     
   3.5400000000000001E-002    0.17046175855605333     
   3.5699999999999996E-002    0.16195617984420507     
   3.6000000000000004E-002    0.14279750654807530     
   3.6299999999999999E-002    0.11580072445059748     
   3.6600000000000008E-002     8.4387862896865992E-002
   3.6900000000000002E-002     5.2364235249871119E-002
   3.7199999999999997E-002     2.3676624700080296E-002
   3.7500000000000006E-002     2.2258078504456156E-003
   3.7800000000000000E-002    -8.3531217155548287E-003
   3.8100000000000009E-002    -4.8323503689468921E-003
   3.8400000000000004E-002     1.5402897068525640E-002
   3.8699999999999998E-002     5.4087568575379164E-002
   3.9000000000000007E-002    0.11198028428278785     
   3.9300000000000002E-002    0.18875642995437281     
   3.9600000000000003E-002    0.28298587413076037     
   3.9900000000000005E-002    0.39212826681961416     
   4.0200000000000000E-002    0.51246107441550426     
   4.0500000000000001E-002    0.63931805784295292     
   4.0800000000000003E-002    0.76739556587774527     
   4.1100000000000005E-002    0.89084089912546482     
   4.1399999999999999E-002     1.0035133485874710     
   4.1700000000000008E-002     1.0993691820188076     
   4.2000000000000003E-002     1.1727329642858377     
   4.2299999999999997E-002     1.2185427112629372     
   4.2600000000000006E-002     1.2324627810745636     
   4.2900000000000001E-002     1.2110564891148317     
   4.3200000000000002E-002     1.1519870948703208     
   4.3500000000000004E-002     1.0540948111156101     
   4.3799999999999999E-002    0.91748895265464447     
   4.4100000000000000E-002    0.74354447929222478     
   4.4400000000000002E-002    0.53492196341437137     
   4.4700000000000004E-002    0.29580702177065188     
   4.4999999999999998E-002     3.1976953499074708E-002
   4.5300000000000000E-002   -0.24923856907734546     
   4.5600000000000002E-002   -0.53895151015589904     
   4.5899999999999996E-002   -0.82688862187676604     
   4.6200000000000005E-002    -1.1016029216039078     
   4.6500000000000000E-002    -1.3508577544169285     
   4.6799999999999994E-002    -1.5622458767298268     
   4.7100000000000003E-002    -1.7238961885511228     
   4.7399999999999998E-002    -1.8252997942622078     
   4.7700000000000006E-002    -1.8581252750052129     
   4.8000000000000001E-002    -1.8169602897555854     
   4.8300000000000010E-002    -1.7001231521719835     
   4.8600000000000004E-002    -1.5100220083190345     
   4.8899999999999999E-002    -1.2532443629774774     
   4.9200000000000008E-002   -0.94051642928630930     
   4.9500000000000002E-002   -0.58632440084435322     
   4.9800000000000011E-002   -0.20806329744862134     
   5.0100000000000006E-002    0.17502898943467082     
   5.0400000000000000E-002    0.54303871094552270     
   5.0700000000000009E-002    0.87653834291831145     
   5.1000000000000004E-002     1.1577509925047798     
   5.1299999999999998E-002     1.3718044054220881     
   5.1600000000000007E-002     1.5075797511348576     
   5.1900000000000002E-002     1.5582706549341314     
   5.2200000000000010E-002     1.5217436273069884     
   5.2500000000000005E-002     1.4005270967650667     
   5.2800000000000000E-002     1.2016793259091256     
   5.3099999999999994E-002    0.93620309389377454     
   5.3400000000000003E-002    0.61817546862123818     
   5.3699999999999998E-002    0.26404777985049560     
   5.4000000000000006E-002   -0.10839241061011409     
   5.4300000000000001E-002   -0.48122319192191276     
   5.4599999999999996E-002   -0.83725927722918969     
   5.4900000000000004E-002    -1.1610766671808730     
   5.5199999999999999E-002    -1.4398409310511140     
   5.5499999999999994E-002    -1.6638177951244031     
   5.5800000000000002E-002    -1.8268889613110908     
   5.6099999999999997E-002    -1.9265047811151426     
   5.6400000000000006E-002    -1.9635596818782566     
   5.6700000000000000E-002    -1.9419559799970065     
   5.6999999999999995E-002    -1.8677373485824844     
   5.7300000000000004E-002    -1.7484143311376568     
   5.7599999999999998E-002    -1.5919269822952049     
   5.7900000000000007E-002    -1.4055418242455295     
   5.8200000000000002E-002    -1.1953515251400861     
   5.8499999999999996E-002   -0.96574692106003956     
   5.8800000000000005E-002   -0.71887455424035107     
   5.9100000000000000E-002   -0.45478565483460281     
   5.9400000000000008E-002   -0.17201724142685906     
   5.9700000000000003E-002    0.13159485669492957     
   6.0000000000000012E-002    0.45801447918318511     
   6.0300000000000006E-002    0.80813791666555146     
   6.0600000000000001E-002     1.1804546987134423     
   6.0900000000000010E-002     1.5699649797031712     
   6.1200000000000004E-002     1.9676703063643013     
   6.1500000000000013E-002     2.3602297287129459     
   6.1800000000000008E-002     2.7301285407614699     
   6.2100000000000002E-002     3.0562682473144029     
   6.2399999999999997E-002     3.3149705446755755     
   6.2700000000000006E-002     3.4817701091191124     
   6.3000000000000000E-002     3.5333360122955013     
   6.3300000000000009E-002     3.4493945672819870     
   6.3600000000000004E-002     3.2149230180731134     
   6.3899999999999998E-002     2.8222464310469819     
   6.4199999999999993E-002     2.2728329869109101     
   6.4500000000000002E-002     1.5781201013240860     
   6.4800000000000010E-002    0.75980267304319971     
   6.5100000000000005E-002   -0.15028675135614461     
   6.5400000000000000E-002    -1.1114937798155469     
   6.5700000000000008E-002    -2.0765292480108433     
   6.5999999999999989E-002    -2.9942808301617898     
   6.6299999999999998E-002    -3.8129675852532960     
   6.6600000000000006E-002    -4.4835768504141740     
   6.6900000000000001E-002    -4.9634533943057750     
   6.7199999999999996E-002    -5.2194024350568755     
   6.7500000000000004E-002    -5.2303534910714937     
   6.7800000000000013E-002    -4.9887835017255480     
   6.8099999999999994E-002    -4.5012461166903135     
   6.8400000000000002E-002    -3.7883161442581779     
   6.8700000000000011E-002    -2.8834794742912124     
   6.8999999999999992E-002    -1.8307395942010540     
   6.9300000000000000E-002   -0.68159533549876683     
   6.9600000000000009E-002    0.50775303455972587     
   6.9900000000000004E-002     1.6793106720814643     
   7.0199999999999999E-002     2.7767803925494214     
   7.0500000000000007E-002     3.7485139947849748     
   7.0800000000000016E-002     4.5494976918682584     
   7.1099999999999997E-002     5.1430774868703404     
   7.1400000000000005E-002     5.5024830251013892     
   7.1700000000000000E-002     5.6117188027834901     
   7.1999999999999995E-002     5.4657518026424814     
   7.2300000000000003E-002     5.0704695323742435     
   7.2600000000000012E-002     4.4425736899597501     
   7.2900000000000006E-002     3.6090599343366154     
   7.3200000000000001E-002     2.6062980666407740     
   7.3499999999999996E-002     1.4787492191127691     
   7.3800000000000004E-002    0.27721782975609816     
   7.4099999999999999E-002   -0.94287361429765537     
   7.4400000000000008E-002    -2.1236286752865072     
   7.4700000000000003E-002    -3.2077327757596579     
   7.5000000000000011E-002    -4.1416751277378312     
   7.5299999999999992E-002    -4.8784195576291820     
   7.5600000000000001E-002    -5.3801128223804753     
   7.5900000000000009E-002    -5.6207424998890412     
   7.6200000000000004E-002    -5.5881325526125583     
   7.6499999999999999E-002    -5.2848598087547911     
   7.6800000000000007E-002    -4.7280861156814344     
   7.7099999999999988E-002    -3.9487861019641501     
   7.7399999999999997E-002    -2.9898631936014204     
   7.7700000000000005E-002    -1.9031786799723505     
   7.8000000000000014E-002   -0.74615383160735849     
   7.8299999999999995E-002    0.42190371321586362     
   7.8600000000000003E-002     1.5434653959907094     
   7.8900000000000012E-002     2.5662657488902618     
   7.9199999999999993E-002     3.4461919685889226     
   7.9500000000000001E-002     4.1493460582742241     
   7.9800000000000010E-002     4.6532508681149931     
   8.0100000000000018E-002     4.9472600559368729     
   8.0399999999999999E-002     5.0320359504015979     
   8.0700000000000008E-002     4.9182444476336347     
   8.1000000000000003E-002     4.6247663948174225     
   8.1299999999999997E-002     4.1767716446028729     
   8.1600000000000006E-002     3.6037850032694627     
   8.1900000000000014E-002     2.9376198566574043     
   8.2199999999999995E-002     2.2104379196388506     
   8.2500000000000004E-002     1.4534083698541092     
   8.2799999999999999E-002    0.69595325270688224     
   8.3100000000000007E-002    -3.4992823190389821E-002
   8.3400000000000002E-002   -0.71539889029334591     
   8.3700000000000011E-002    -1.3243171809730225     
   8.4000000000000005E-002    -1.8440791967159793     
   8.4300000000000000E-002    -2.2601118426065261     
   8.4599999999999995E-002    -2.5610222892510714     
   8.4900000000000003E-002    -2.7391753029597794     
   8.5199999999999998E-002    -2.7910203558258728     
   8.5500000000000007E-002    -2.7170640884615351     
   8.5800000000000001E-002    -2.5221342393318835     
   8.6100000000000010E-002    -2.2160557996554884     
   8.6399999999999991E-002    -1.8138200521570496     
   8.6699999999999999E-002    -1.3347582126942674     
   8.7000000000000008E-002   -0.80187063981550344     
   8.7300000000000003E-002   -0.24155108866007882     
   8.7599999999999997E-002    0.31740247269085481     
   8.7900000000000006E-002    0.84563134512102867     
   8.8200000000000014E-002     1.3147629879026677     
   8.8499999999999995E-002     1.6984296175080811     
   8.8800000000000004E-002     1.9733724880385062     
   8.9100000000000013E-002     2.1208083872367132     
   8.9399999999999993E-002     2.1273040962910139     
   8.9700000000000002E-002     1.9848835592310616     
   9.0000000000000011E-002     1.6912703546871046     
   9.0299999999999991E-002     1.2498919875125962     
   9.0600000000000000E-002    0.66942915868123953     
   9.0900000000000009E-002    -3.6123531203692029E-002
   9.1200000000000017E-002   -0.84740484307812713     
   9.1499999999999998E-002    -1.7403639259681987     
   9.1800000000000007E-002    -2.6864665714391647     
   9.2100000000000001E-002    -3.6523739336855234     
   9.2399999999999996E-002    -4.6001970079254626     
   9.2700000000000005E-002    -5.4886548080842630     
   9.3000000000000013E-002    -6.2741319917368585     
   9.3300000000000008E-002    -6.9119107691303663     
   9.3600000000000003E-002    -7.3586309059968178     
   9.3899999999999997E-002    -7.5749113742759828     
   9.4200000000000006E-002    -7.5280955037870552     
   9.4500000000000001E-002    -7.1955783517865468     
   9.4800000000000009E-002    -6.5676395923694120     
   9.5100000000000004E-002    -5.6489665346585420     
   9.5399999999999999E-002    -4.4597165159996148     
   9.5699999999999993E-002    -3.0361806588033846     
   9.6000000000000002E-002    -1.4290497332326213     
   9.6300000000000011E-002    0.30000810269526806     
   9.6600000000000005E-002     2.0815157669973616     
   9.6900000000000000E-002     3.8420210248329592     
   9.7200000000000009E-002     5.5093709031162463     
   9.7499999999999989E-002     7.0176707967004281     
   9.7799999999999998E-002     8.3106920663178752     
   9.8100000000000007E-002     9.3449919840251621     
   9.8400000000000015E-002     10.092090017770277     
   9.8699999999999996E-002     10.538435406889329     
   9.9000000000000005E-002     10.684920788192514     
   9.9300000000000013E-002     10.545641465504149     
   9.9599999999999994E-002     10.144862725736374     
   9.9900000000000003E-002     9.5135408354562578     
  0.10020000000000001          8.6867929426422954     
  0.10049999999999999          7.7013874826407678     
  0.10080000000000000          6.5926990965433392     
  0.10110000000000001          5.3926324822873939     
  0.10140000000000000          4.1290811841891513     
  0.10170000000000000          2.8257680908108247     
  0.10200000000000001          1.5022615283156258     
  0.10230000000000002         0.17522797106508123     
  0.10260000000000000         -1.1403716335312963     
  0.10290000000000001         -2.4297977094667274     
  0.10320000000000000         -3.6764151339175202     
  0.10350000000000001         -4.8602049689446929     
  0.10380000000000000         -5.9578017139879895     
  0.10410000000000001         -6.9422445161753652     
  0.10440000000000001         -7.7822170925211127     
  0.10470000000000000         -8.4440571214292799     
  0.10500000000000000         -8.8951575216586303     
  0.10530000000000000         -9.1056267999097553     
  0.10560000000000000         -9.0509450341121553     
  0.10590000000000001         -8.7159850409574329     
  0.10620000000000000         -8.0980231257741728     
  0.10650000000000001         -7.2087122349796298     
  0.10679999999999999         -6.0750794996535298     
  0.10710000000000000         -4.7396020526585660     
  0.10740000000000001         -3.2585535958121175     
  0.10770000000000000         -1.6991947561424265     
  0.10800000000000000        -0.13617528960418060     
  0.10830000000000001          1.3535992499252583     
  0.10859999999999999          2.6970648272543065     
  0.10890000000000000          3.8294833415003859     
  0.10920000000000001          4.6986283630072165     
  0.10950000000000001          5.2693295702561809     
  0.10979999999999999          5.5258136628575159     
  0.11009999999999999          5.4721003752492168     
  0.11040000000000001          5.1310073178016697     
  0.11070000000000001          4.5418535291799200     
  0.11100000000000000          3.7571304375483905     
  0.11130000000000000          2.8381950671804663     
  0.11160000000000002          1.8504340751365629     
  0.11190000000000001         0.85813381774161912     
  0.11220000000000001         -7.9804262495592290E-002
  0.11250000000000000        -0.91267576227550473     
  0.11280000000000000         -1.6007054606169218     
  0.11309999999999999         -2.1170939783350553     
  0.11340000000000001         -2.4478810082545035     
  0.11369999999999998         -2.5907829730319558     
  0.11400000000000000         -2.5541943492412873     
  0.11430000000000000         -2.3557426124041467     
  0.11460000000000002         -2.0194899184618973     
  0.11489999999999999         -1.5736570408434745     
  0.11520000000000001         -1.0487952959707414     
  0.11550000000000001        -0.47590893715180671     
  0.11580000000000000         0.11505928022873883     
  0.11609999999999999         0.69644230516875416     
  0.11640000000000002          1.2434553283800915     
  0.11670000000000001          1.7348145382560360     
  0.11700000000000001          2.1532966896961852     
  0.11730000000000000          2.4855795429234253     
  0.11760000000000000          2.7224744411748771     
  0.11789999999999999          2.8592466262971734     
  0.11820000000000001          2.8948821020749249     
  0.11850000000000001          2.8324342948543060     
  0.11880000000000000          2.6788171062550896     
  0.11910000000000000          2.4440321986399987     
  0.11940000000000002          2.1407624911941512     
  0.11970000000000001          1.7836703745938789     
  0.12000000000000001          1.3888480365535747     
  0.12030000000000000         0.97320383146506950     
  0.12060000000000000         0.55329015466721476     
  0.12089999999999999         0.14422330162787733     
  0.12119999999999999        -0.24065973616782957     
  0.12150000000000001        -0.58997875960968915     
  0.12180000000000001        -0.89490360714353034     
  0.12210000000000000         -1.1501637528907644     
  0.12239999999999999         -1.3537176204000139     
  0.12270000000000002         -1.5056304807196759     
  0.12300000000000001         -1.6084776176096907     
  0.12330000000000001         -1.6676970075333775     
  0.12360000000000000         -1.6901076672884772     
  0.12390000000000000         -1.6831759203737149     
  0.12419999999999999         -1.6549776067011877     
  0.12450000000000001         -1.6134868794717176     
  0.12480000000000001         -1.5658164841288991     
  0.12509999999999999         -1.5179348741850236     
  0.12540000000000001         -1.4743846387644355     
  0.12570000000000003         -1.4378595481046050     
  0.12600000000000000         -1.4092229117955319     
  0.12630000000000002         -1.3876522992934446     
  0.12659999999999999         -1.3706044929375498     
  0.12690000000000001         -1.3539968059675282     
  0.12719999999999998         -1.3330161564905096     
  0.12750000000000000         -1.3025073327524890     
  0.12780000000000002         -1.2569811002242062     
  0.12809999999999999         -1.1917106887506608     
  0.12840000000000001         -1.1031748937583719     
  0.12869999999999998        -0.98875874211129355     
  0.12900000000000000        -0.84771610663448171     
  0.12930000000000003        -0.68171681649689064     
  0.12959999999999999        -0.49396879980030145     
  0.12990000000000002        -0.28887702532933474     
  0.13019999999999998         -7.2640724983429439E-002
  0.13050000000000000         0.14678928387871037     
  0.13080000000000003         0.36147353993897124     
  0.13109999999999999         0.56423781777341120     
  0.13140000000000002         0.74782666809637233     
  0.13169999999999998         0.90623283937724952     
  0.13200000000000001          1.0357561982774575     
  0.13229999999999997          1.1346029478911608     
  0.13260000000000000          1.2031900876787864     
  0.13290000000000002          1.2441351009314991     
  0.13319999999999999          1.2618226285872594     
  0.13350000000000001          1.2616972002388320     
  0.13380000000000003          1.2499960855608199     
  0.13410000000000000          1.2334488868138709     
  0.13440000000000002          1.2175097848643457     
  0.13469999999999999          1.2061192400315146     
  0.13500000000000001          1.2021410134737975     
  0.13529999999999998          1.2063248087076495     
  0.13560000000000000          1.2173104446118190     
  0.13590000000000002          1.2324874736869078     
  0.13619999999999999          1.2482669795638333     
  0.13650000000000001          1.2605720041752206     
  0.13680000000000003          1.2652825558726626     
  0.13710000000000000          1.2588944790097016     
  0.13740000000000002          1.2389489647504488     
  0.13769999999999999          1.2042321070198916     
  0.13800000000000001          1.1552909590044829     
  0.13829999999999998          1.0932853095238557     
  0.13860000000000000          1.0197427076967782     
  0.13890000000000002         0.93756727089533942     
  0.13919999999999999         0.84997145065902380     
  0.13950000000000001         0.75931022598309461     
  0.13979999999999998         0.66768066629942979     
  0.14010000000000000         0.57712601773538341     
  0.14040000000000002         0.48935156808095209     
  0.14069999999999999         0.40546658873278968     
  0.14100000000000001         0.32593119718950103     
  0.14130000000000004         0.25091332929488225     
  0.14160000000000000         0.17997760305252844     
  0.14189999999999997         0.11233234235965808     
  0.14219999999999999          4.6707424848699261E-002
  0.14250000000000002         -1.9360007042003521E-002
  0.14279999999999998         -8.8725188316712639E-002
  0.14310000000000000        -0.16421295958141391     
  0.14339999999999997        -0.24912870157317415     
  0.14369999999999999        -0.34670266527376786     
  0.14400000000000002        -0.45909300089711225     
  0.14429999999999998        -0.58727525814034554     
  0.14460000000000001        -0.73127554437634912     
  0.14490000000000003        -0.88988790941854690     
  0.14520000000000000         -1.0603879451065470     
  0.14550000000000002         -1.2393759225465619     
  0.14579999999999999         -1.4233345722908135     
  0.14610000000000001         -1.6089941030713302     
  0.14640000000000003         -1.7939122740699203     
  0.14670000000000000         -1.9765089655662966     
  0.14699999999999996         -2.1556930540871688     
  0.14729999999999999         -2.3305347061575916     
  0.14760000000000001         -2.5002200786631472     
  0.14789999999999998         -2.6631868135145069     
  0.14820000000000000         -2.8156819633824681     