  -1.4999999999999999E-002     0.0000000000000000     
  -1.4700000000000000E-002     0.0000000000000000     
  -1.4400000000000000E-002     0.0000000000000000     
  -1.4100000000000000E-002     0.0000000000000000     
  -1.3800000000000000E-002     0.0000000000000000     
  -1.3500000000000000E-002     0.0000000000000000     
  -1.3200000000000000E-002     0.0000000000000000     
  -1.2899999999999998E-002     0.0000000000000000     
  -1.2600000000000000E-002     0.0000000000000000     
  -1.2299999999999998E-002     0.0000000000000000     
  -1.2000000000000000E-002     0.0000000000000000     
  -1.1699999999999999E-002     0.0000000000000000     
  -1.1399999999999999E-002     0.0000000000000000     
  -1.1099999999999999E-002     0.0000000000000000     
  -1.0799999999999999E-002     0.0000000000000000     
  -1.0499999999999999E-002     0.0000000000000000     
  -1.0199999999999999E-002     0.0000000000000000     
  -9.8999999999999991E-003     0.0000000000000000     
  -9.5999999999999992E-003     0.0000000000000000     
  -9.2999999999999992E-003     0.0000000000000000     
  -8.9999999999999993E-003     0.0000000000000000     
  -8.6999999999999994E-003     0.0000000000000000     
  -8.3999999999999995E-003     0.0000000000000000     
  -8.0999999999999996E-003     0.0000000000000000     
  -7.7999999999999988E-003     0.0000000000000000     
  -7.4999999999999997E-003     0.0000000000000000     
  -7.1999999999999998E-003     0.0000000000000000     
  -6.8999999999999981E-003     0.0000000000000000     
  -6.5999999999999982E-003     0.0000000000000000     
  -6.3000000000000000E-003     0.0000000000000000     
  -6.0000000000000001E-003     0.0000000000000000     
  -5.6999999999999985E-003     0.0000000000000000     
  -5.3999999999999986E-003     0.0000000000000000     
  -5.1000000000000004E-003     0.0000000000000000     
  -4.7999999999999987E-003     0.0000000000000000     
  -4.5000000000000005E-003     0.0000000000000000     
  -4.1999999999999989E-003     0.0000000000000000     
  -3.8999999999999990E-003     0.0000000000000000     
  -3.5999999999999990E-003     0.0000000000000000     
  -3.2999999999999991E-003     0.0000000000000000     
  -2.9999999999999992E-003     0.0000000000000000     
  -2.6999999999999993E-003     0.0000000000000000     
  -2.3999999999999994E-003     0.0000000000000000     
  -2.0999999999999977E-003     0.0000000000000000     
  -1.7999999999999995E-003     0.0000000000000000     
  -1.4999999999999979E-003     0.0000000000000000     
  -1.1999999999999997E-003     0.0000000000000000     
  -8.9999999999999976E-004     0.0000000000000000     
  -5.9999999999999810E-004     0.0000000000000000     
  -2.9999999999999992E-004     0.0000000000000000     
   0.0000000000000000          0.0000000000000000     
   3.0000000000000165E-004     0.0000000000000000     
   5.9999999999999984E-004     0.0000000000000000     
   9.0000000000000149E-004     0.0000000000000000     
   1.2000000000000031E-003     0.0000000000000000     
   1.5000000000000013E-003     0.0000000000000000     
   1.8000000000000030E-003     0.0000000000000000     
   2.1000000000000012E-003     0.0000000000000000     
   2.3999999999999994E-003     0.0000000000000000     
   2.7000000000000010E-003     0.0000000000000000     
   2.9999999999999992E-003     0.0000000000000000     
   3.3000000000000008E-003     0.0000000000000000     
   3.6000000000000025E-003     0.0000000000000000     
   3.9000000000000007E-003     0.0000000000000000     
   4.2000000000000023E-003     0.0000000000000000     
   4.5000000000000005E-003     0.0000000000000000     
   4.7999999999999987E-003     0.0000000000000000     
   5.1000000000000004E-003     0.0000000000000000     
   5.4000000000000020E-003     0.0000000000000000     
   5.7000000000000037E-003     0.0000000000000000     
   5.9999999999999984E-003     0.0000000000000000     
   6.3000000000000000E-003     0.0000000000000000     
   6.6000000000000017E-003     0.0000000000000000     
   6.9000000000000034E-003     0.0000000000000000     
   7.2000000000000015E-003     0.0000000000000000     
   7.5000000000000032E-003     0.0000000000000000     
   7.8000000000000014E-003     0.0000000000000000     
   8.0999999999999996E-003     0.0000000000000000     
   8.4000000000000012E-003     0.0000000000000000     
   8.7000000000000029E-003     0.0000000000000000     
   9.0000000000000011E-003     0.0000000000000000     
   9.2999999999999992E-003     0.0000000000000000     
   9.6000000000000009E-003     0.0000000000000000     
   9.8999999999999991E-003     0.0000000000000000     
   1.0200000000000001E-002     3.5406458429337055E-042
   1.0500000000000002E-002     1.9542898160347531E-041
   1.0800000000000004E-002     1.8769998308914177E-037
   1.1099999999999999E-002     1.5845386267922570E-035
   1.1400000000000000E-002    -8.2594935491686853E-035
   1.1700000000000002E-002    -6.5936781533508643E-034
   1.2000000000000004E-002     7.1472720062219943E-033
   1.2300000000000002E-002     1.9166240438802937E-032
   1.2600000000000000E-002    -3.5993953352569496E-031
   1.2900000000000002E-002     5.3744494458350571E-031
   1.3200000000000000E-002     9.5716863570496518E-030
   1.3500000000000002E-002    -5.2173716139885568E-029
   1.3800000000000003E-002    -3.0526585964041319E-029
   1.4100000000000001E-002     1.2783467900340873E-027
   1.4400000000000000E-002    -4.7124017345314458E-027
   1.4700000000000001E-002    -2.4772798273755333E-027
   1.4999999999999999E-002     8.2878062705018630E-026
   1.5300000000000001E-002    -3.1175632186933887E-025
   1.5600000000000003E-002     2.9606475663417831E-025
   1.5899999999999997E-002     2.0047631662122582E-024
   1.6199999999999999E-002    -1.0123284571722776E-023
   1.6500000000000001E-002     2.1351859163723717E-023
   1.6800000000000002E-002    -1.3749426410962543E-023
   1.7100000000000004E-002    -6.2581708997735184E-024
   1.7400000000000006E-002    -3.2696560850119058E-022
   1.7700000000000000E-002     2.7135441720823839E-021
   1.8000000000000002E-002    -1.1735098601389402E-020
   1.8300000000000004E-002     3.4312820571399153E-020
   1.8600000000000005E-002    -6.4554895210255621E-020
   1.8900000000000000E-002     2.7710154737961940E-021
   1.9200000000000002E-002     7.0289998898014330E-019
   1.9500000000000003E-002    -4.5371999061764762E-018
   1.9799999999999998E-002     2.1548108966006533E-017
   2.0100000000000000E-002    -8.7856047821929657E-017
   2.0400000000000001E-002     3.1012382478195845E-016
   2.0700000000000003E-002    -8.7541849101969088E-016
   2.0999999999999998E-002     1.3123151135874918E-015
   2.1299999999999999E-002     5.2840504778099559E-015
   2.1600000000000001E-002    -6.1711364000328801E-014
   2.1900000000000003E-002     3.5812060852200467E-013
   2.2200000000000004E-002    -1.5221426470668512E-012
   2.2500000000000006E-002     4.8855707921752117E-012
   2.2800000000000001E-002    -1.0580481491328784E-011
   2.3100000000000002E-002     5.9149136106264128E-012
   2.3400000000000004E-002     6.4672878641260902E-011
   2.3699999999999999E-002    -3.0582378396861258E-010
   2.4000000000000000E-002     6.3123688029519599E-010
   2.4300000000000002E-002     5.6241243491224649E-012
   2.4599999999999997E-002    -3.7945351365875825E-009
   2.4900000000000005E-002     9.0343911774952898E-009
   2.5200000000000000E-002     7.1372485838346288E-010
   2.5499999999999995E-002    -4.2375287698036711E-008
   2.5800000000000003E-002     5.3175199482428792E-008
   2.6099999999999998E-002     1.0785145861267781E-007
   2.6400000000000007E-002    -2.6042366078907296E-007
   2.6700000000000002E-002    -2.6447293333722810E-007
   2.6999999999999996E-002     7.6647876502363490E-007
   2.7300000000000005E-002     9.1831817896842192E-007
   2.7600000000000000E-002    -1.6176397153671023E-006
   2.7900000000000008E-002    -3.7609523878670969E-006
   2.8200000000000003E-002     1.3907780772371613E-006
   2.8499999999999998E-002     1.7930067717714749E-005
   2.8800000000000006E-002     4.3428200768520168E-005
   2.9100000000000001E-002     7.4208342183021344E-005
   2.9400000000000003E-002     1.1303976741878371E-004
   2.9700000000000004E-002     1.7072881252377158E-004
   3.0000000000000006E-002     2.6399587792499333E-004
   3.0300000000000001E-002     4.1353851457294163E-004
   3.0600000000000002E-002     6.4382569501129558E-004
   3.0900000000000004E-002     9.8698527463980299E-004
   3.1199999999999999E-002     1.4887476348407784E-003
   3.1500000000000007E-002     2.2132290345780944E-003
   3.1800000000000002E-002     3.2470213312447440E-003
   3.2099999999999997E-002     4.7023813527002157E-003
   3.2400000000000005E-002     6.7195208693067625E-003
   3.2700000000000000E-002     9.4686515284265853E-003
   3.3000000000000002E-002     1.3150718452478350E-002
   3.3300000000000003E-002     1.7996606738123200E-002
   3.3599999999999998E-002     2.4260644595277412E-002
   3.3900000000000000E-002     3.2205401726730615E-002
   3.4200000000000001E-002     4.2079279198135068E-002
   3.4500000000000003E-002     5.4088183237903341E-002
   3.4799999999999998E-002     6.8357547196546228E-002
   3.5099999999999999E-002     8.4880725432449303E-002
   3.5400000000000001E-002    0.10346256039807478     
   3.5699999999999996E-002    0.12365722073108901     
   3.6000000000000004E-002    0.14470745080271510     
   3.6299999999999999E-002    0.16549850186562548     
   3.6600000000000008E-002    0.18452236905777650     
   3.6900000000000002E-002    0.19987644615591738     
   3.7199999999999997E-002    0.20929150410747760     
   3.7500000000000006E-002    0.21020943006475165     
   3.7800000000000000E-002    0.19993252647826137     
   3.8100000000000009E-002    0.17579647950957533     
   3.8400000000000004E-002    0.13541401388794938     
   3.8699999999999998E-002     7.6967810346667664E-002
   3.9000000000000007E-002    -5.1851093338427939E-004
   3.9300000000000002E-002    -9.6879838201431298E-002
   3.9600000000000003E-002   -0.21054466713288517     
   3.9900000000000005E-002   -0.33840140024177673     
   4.0200000000000000E-002   -0.47571960400320734     
   4.0500000000000001E-002   -0.61621024840686278     
   4.0800000000000003E-002   -0.75229358831131021     
   4.1100000000000005E-002   -0.87545287863412791     
   4.1399999999999999E-002   -0.97675470600055081     
   4.1700000000000008E-002    -1.0475142076388313     
   4.2000000000000003E-002    -1.0799603331624892     
   4.2299999999999997E-002    -1.0679295879742674     
   4.2600000000000006E-002    -1.0075105602873606     
   4.2900000000000001E-002   -0.89752022558770705     
   4.3200000000000002E-002   -0.73976195257708466     
   4.3500000000000004E-002   -0.53917995402213825     
   4.3799999999999999E-002   -0.30356681080232834     
   4.4100000000000000E-002    -4.3168772426938187E-002
   4.4400000000000002E-002    0.22988915463644860     
   4.4700000000000004E-002    0.50257012551853975     
   4.4999999999999998E-002    0.76166909023506979     
   4.5300000000000000E-002    0.99476437515777905     
   4.5600000000000002E-002     1.1911190210843432     
   4.5899999999999996E-002     1.3422402986693789     
   4.6200000000000005E-002     1.4424507935504611     
   4.6500000000000000E-002     1.4891667101082362     
   4.6799999999999994E-002     1.4827780975389078     
   4.7100000000000003E-002     1.4265479355269841     
   4.7399999999999998E-002     1.3261643935573890     
   4.7700000000000006E-002     1.1891008582218063     
   4.8000000000000001E-002     1.0241213201713260     
   4.8300000000000010E-002    0.84049851834751244     
   4.8600000000000004E-002    0.64736695429695079     
   4.8899999999999999E-002    0.45330769789028735     
   4.9200000000000008E-002    0.26574763011478886     
   4.9500000000000002E-002     9.0732466197052442E-002
   4.9800000000000011E-002    -6.7082415456387934E-002
   5.0100000000000006E-002   -0.20473407160500340     
   5.0400000000000000E-002   -0.32064193409061087     
   5.0700000000000009E-002   -0.41443071257777414     
   5.1000000000000004E-002   -0.48690937745999530     
   5.1299999999999998E-002   -0.53959501340333715     
   5.1600000000000007E-002   -0.57445905728500068     
   5.1900000000000002E-002   -0.59388077624857660     
   5.2200000000000010E-002   -0.60019019132353224     
   5.2500000000000005E-002   -0.59559137052675359     
   5.2800000000000000E-002   -0.58219481068777834     
   5.3099999999999994E-002   -0.56170739500079181     
   5.3400000000000003E-002   -0.53550298004372920     
   5.3699999999999998E-002   -0.50471065115065039     
   5.4000000000000006E-002   -0.47004763858290577     
   5.4300000000000001E-002   -0.43197659885278072     
   5.4599999999999996E-002   -0.39087495988488574     
   5.4900000000000004E-002   -0.34682468649174419     
   5.5199999999999999E-002   -0.29991643994515593     
   5.5499999999999994E-002   -0.25040454370484722     
   5.5800000000000002E-002   -0.19843914741329721     
   5.6099999999999997E-002   -0.14459672210883789     
   5.6400000000000006E-002    -8.9796934382231769E-002
   5.6700000000000000E-002    -3.5163613685138130E-002
   5.6999999999999995E-002     1.7379004781413500E-002
   5.7300000000000004E-002     6.5554713569095119E-002
   5.7599999999999998E-002    0.10666109340753323     
   5.7900000000000007E-002    0.13726395660405191     
   5.8200000000000002E-002    0.15392760077178275     
   5.8499999999999996E-002    0.15308898891755784     
   5.8800000000000005E-002    0.13127144405899779     
   5.9100000000000000E-002     8.5922523394781916E-002
   5.9400000000000008E-002     1.5370186907284596E-002
   5.9700000000000003E-002    -8.0613483361681740E-002
   6.0000000000000012E-002   -0.20017482937494763     
   6.0300000000000006E-002   -0.33953420259025219     
   6.0600000000000001E-002   -0.49258006431054913     
   6.0900000000000010E-002   -0.65085689164654259     
   6.1200000000000004E-002   -0.80418196440672307     
   6.1500000000000013E-002   -0.94084524703409378     
   6.1800000000000008E-002    -1.0483830244922083     
   6.2100000000000002E-002    -1.1147474328507458     
   6.2399999999999997E-002    -1.1290221639549203     
   6.2700000000000006E-002    -1.0825667786933477     
   6.3000000000000000E-002   -0.97013765019253873     
   6.3300000000000009E-002   -0.79038673063180531     
   6.3600000000000004E-002   -0.54640867093897272     
   6.3899999999999998E-002   -0.24611384425792915     
   6.4199999999999993E-002     9.8443692778493672E-002
   6.4500000000000002E-002    0.47144914924437908     
   6.4800000000000010E-002    0.85422784913914973     
   6.5100000000000005E-002     1.2269457312608933     
   6.5400000000000000E-002     1.5695124919632848     
   6.5700000000000008E-002     1.8632274979018812     
   6.5999999999999989E-002     2.0923380686366877     
   6.6299999999999998E-002     2.2446650843968317     
   6.6600000000000006E-002     2.3127689510381235     
   6.6900000000000001E-002     2.2943235549466330     
   6.7199999999999996E-002     2.1917478134802408     
   6.7500000000000004E-002     2.0122354267067402     
   6.7800000000000013E-002     1.7668788514218270     
   6.8099999999999994E-002     1.4695033057548599     
   6.8400000000000002E-002     1.1359239430891810     
   6.8700000000000011E-002    0.78249865157785237     
   6.8999999999999992E-002    0.42498837798052930     
   6.9300000000000000E-002     7.7998595672444132E-002
   6.9600000000000009E-002   -0.24619605414352258     
   6.9900000000000004E-002   -0.53790096275490829     
   7.0199999999999999E-002   -0.79002353176483209     
   7.0500000000000007E-002   -0.99844748123780991     
   7.0800000000000016E-002    -1.1615318836434894     
   7.1099999999999997E-002    -1.2796444026683509     
   7.1400000000000005E-002    -1.3550581180447712     
   7.1700000000000000E-002    -1.3911549453596046     
   7.1999999999999995E-002    -1.3920349427282241     
   7.2300000000000003E-002    -1.3623490463503036     
   7.2600000000000012E-002    -1.3067070595310086     
   7.2900000000000006E-002    -1.2297197178100951     
   7.3200000000000001E-002    -1.1359730364315106     
   7.3499999999999996E-002    -1.0298168654305573     
   7.3800000000000004E-002   -0.91561020227979428     
   7.4099999999999999E-002   -0.79768721319968239     
   7.4400000000000008E-002   -0.68032932854979355     
   7.4700000000000003E-002   -0.56784941638403219     
   7.5000000000000011E-002   -0.46445808493191076     
   7.5299999999999992E-002   -0.37406612191390926     
   7.5600000000000001E-002   -0.30011801525431103     
   7.5900000000000009E-002   -0.24536745266040338     
   7.6200000000000004E-002   -0.21143106108990856     
   7.6499999999999999E-002   -0.19872243283129368     
   7.6800000000000007E-002   -0.20625221172557157     
   7.7099999999999988E-002   -0.23129035972614845     
   7.7399999999999997E-002   -0.26969792861818237     
   7.7700000000000005E-002   -0.31582236927866580     
   7.8000000000000014E-002   -0.36264472720525581     
   7.8299999999999995E-002   -0.40245033606129582     
   7.8600000000000003E-002   -0.42691279711389313     
   7.8900000000000012E-002   -0.42785885390392414     
   7.9199999999999993E-002   -0.39784645656354289     
   7.9500000000000001E-002   -0.33056921480450274     
   7.9800000000000010E-002   -0.22167989226773047     
   8.0100000000000018E-002    -6.9192938727894504E-002
   8.0399999999999999E-002    0.12618637124494869     
   8.0700000000000008E-002    0.36053562340741796     
   8.1000000000000003E-002    0.62685296316312389     
   8.1299999999999997E-002    0.91503902949095139     
   8.1600000000000006E-002     1.2121873061303696     
   8.1900000000000014E-002     1.5034069235912220     
   8.2199999999999995E-002     1.7723843359157356     
   8.2500000000000004E-002     2.0024551753236279     
   8.2799999999999999E-002     2.1776657543178644     
   8.3100000000000007E-002     2.2837599804216042     
   8.3400000000000002E-002     2.3094477682514043     
   8.3700000000000011E-002     2.2472584436266283     
   8.4000000000000005E-002     2.0942601167241977     
   8.4300000000000000E-002     1.8525799439543431     
   8.4599999999999995E-002     1.5293580114219116     
   8.4900000000000003E-002     1.1365018024228397     
   8.5199999999999998E-002    0.69009687025484445     
   8.5500000000000007E-002    0.20949956620266513     
   8.5800000000000001E-002   -0.28387086517050364     
   8.6100000000000010E-002   -0.76780423218971072     
   8.6399999999999991E-002    -1.2206058277477259     
   8.6699999999999999E-002    -1.6225046007449733     
   8.7000000000000008E-002    -1.9566279761263710     
   8.7300000000000003E-002    -2.2099990366727278     
   8.7599999999999997E-002    -2.3741092925040088     
   8.7900000000000006E-002    -2.4451092739978200     
   8.8200000000000014E-002    -2.4240349251398934     
   8.8499999999999995E-002    -2.3161059093635599     
   8.8800000000000004E-002    -2.1304296134048997     
   8.9100000000000013E-002    -1.8792790370832089     
   8.9399999999999993E-002    -1.5770084294942470     
   8.9700000000000002E-002    -1.2396959898536002     
   9.0000000000000011E-002   -0.88394235283628964     
   9.0299999999999991E-002   -0.52615387928169532     
   9.0600000000000000E-002   -0.18229170918269416     
   9.0900000000000009E-002    0.13341355368052665     
   9.1200000000000017E-002    0.40841805666826059     
   9.1499999999999998E-002    0.63240475440616029     
   9.1800000000000007E-002    0.79826406720126453     
   9.2100000000000001E-002    0.90175099790629243     
   9.2399999999999996E-002    0.94251922889311079     
   9.2700000000000005E-002    0.92436090505870849     
   9.3000000000000013E-002    0.85490518970865026     
   9.3300000000000008E-002    0.74611272836974718     
   9.3600000000000003E-002    0.61345041351023188     
   9.3899999999999997E-002    0.47517709005349129     
   9.4200000000000006E-002    0.35133024864400747     
   9.4500000000000001E-002    0.26181467612811982     
   9.4800000000000009E-002    0.22477925210438854     
   9.5100000000000004E-002    0.25464622077975063     
   9.5399999999999999E-002    0.36012520115789742     
   9.5699999999999993E-002    0.54280104819955166     
   9.6000000000000002E-002    0.79614273096958488     
   9.6300000000000011E-002     1.1050903281654789     
   9.6600000000000005E-002     1.4466979429630884     
   9.6900000000000000E-002     1.7916679528659922     
   9.7200000000000009E-002     2.1063940506874492     
   9.7499999999999989E-002     2.3559489731550665     
   9.7799999999999998E-002     2.5074152632047779     
   9.8100000000000007E-002     2.5328957523654894     
   9.8400000000000015E-002     2.4127518704933664     
   9.8699999999999996E-002     2.1378501467236992     
   9.9000000000000005E-002     1.7108986171099672     
   9.9300000000000013E-002     1.1470340490050823     
   9.9599999999999994E-002    0.47276167334378938     
   9.9900000000000003E-002   -0.27582910063847427     
  0.10020000000000001         -1.0556909779568269     
  0.10049999999999999         -1.8206202752366383     
  0.10080000000000000         -2.5247026752079078     
  0.10110000000000001         -3.1262221476071046     
  0.10140000000000000         -3.5909357446233257     
  0.10170000000000000         -3.8944338412961752     
  0.10200000000000001         -4.0239104840222328     
  0.10230000000000002         -3.9785266432986059     
  0.10260000000000000         -3.7688718323495793     
  0.10290000000000001         -3.4153888175446081     
  0.10320000000000000         -2.9459961607374492     
  0.10350000000000001         -2.3933899206009981     
  0.10380000000000000         -1.7918893411416557     
  0.10410000000000001         -1.1748629760914464     
  0.10440000000000001        -0.57193825851906643     
  0.10470000000000000         -7.4986115368068235E-003
  0.10500000000000000         0.50050525253513645     
  0.10530000000000000         0.94106994867939764     
  0.10560000000000000          1.3091629866054626     
  0.10590000000000001          1.6053659965178830     
  0.10620000000000000          1.8340963097121883     
  0.10650000000000001          2.0018719316982398     
  0.10679999999999999          2.1162304856520797     
  0.10710000000000000          2.1837975170676427     
  0.10740000000000001          2.2094290346034500     
  0.10770000000000000          2.1959477705236914     
  0.10800000000000000          2.1434796414536632     
  0.10830000000000001          2.0504021975493183     
  0.10859999999999999          1.9138544867916103     
  0.10890000000000000          1.7305390262981299     
  0.10920000000000001          1.4984995321804275     
  0.10950000000000001          1.2176615648827425     
  0.10979999999999999         0.89088639860724894     
  0.11009999999999999         0.52487975901209882     
  0.11040000000000001         0.12992948620871886     
  0.11070000000000001        -0.27993553641580887     
  0.11100000000000000        -0.68775284477808607     
  0.11130000000000000         -1.0749096917509338     
  0.11160000000000002         -1.4221256864083356     
  0.11190000000000001         -1.7113663214245087     
  0.11220000000000001         -1.9271263788761579     
  0.11250000000000000         -2.0577824672522032     
  0.11280000000000000         -2.0969211401163497     
  0.11309999999999999         -2.0436166378254690     
  0.11340000000000001         -1.9028597195027537     
  0.11369999999999998         -1.6853230517872835     
  0.11400000000000000         -1.4061701238016806     
  0.11430000000000000         -1.0841174224750152     
  0.11460000000000002        -0.73979985690353645     
  0.11489999999999999        -0.39380825342704501     
  0.11520000000000001         -6.5480076204099597E-002
  0.11550000000000001         0.22900329826064517     
  0.11580000000000000         0.47780299296918916     
  0.11609999999999999         0.67383171487308835     
  0.11640000000000002         0.81554268233683724     
  0.11670000000000001         0.90637297746195222     
  0.11700000000000001         0.95373789543304643     
  0.11730000000000000         0.96853885754058155     
  0.11760000000000000         0.96301361604461122     
  0.11789999999999999         0.94930378902026002     
  0.11820000000000001         0.93851768618950993     
  0.11850000000000001         0.93836178346263033     
  0.11880000000000000         0.95293310464746028     
  0.11910000000000000         0.98226191614257963     
  0.11940000000000002          1.0215258452599709     
  0.11970000000000001          1.0627474770547711     
  0.12000000000000001          1.0951208355754762     
  0.12030000000000000          1.1063195704414244     
  0.12060000000000000          1.0852161327073278     
  0.12089999999999999          1.0222638012135177     
  0.12119999999999999         0.91163241036378029     
  0.12150000000000001         0.75279229225492039     
  0.12180000000000001         0.54989075088659400     
  0.12210000000000000         0.31288934623174458     
  0.12239999999999999          5.6571335729913699E-002
  0.12270000000000002        -0.20130731575909400     
  0.12300000000000001        -0.44056669770627799     
  0.12330000000000001        -0.64153821835380298     
  0.12360000000000000        -0.78701303457527871     
  0.12390000000000000        -0.86345565081934661     
  0.12419999999999999        -0.86344310778813915     
  0.12450000000000001        -0.78611679660170375     
  0.12480000000000001        -0.63741788764986174     
  0.12509999999999999        -0.43038678766236238     
  0.12540000000000001        -0.18345525091980411     
  0.12570000000000003          8.0886573534599077E-002
  0.12600000000000000         0.33754356762928855     
  0.12630000000000002         0.56150988374943189     
  0.12659999999999999         0.72969605961541395     
  0.12690000000000001         0.82248441578752052     
  0.12719999999999998         0.82585471006148758     
  0.12750000000000000         0.73223855520426773     
  0.12780000000000002         0.54090766795991030     
  0.12809999999999999         0.25857190510627998     
  0.12840000000000001        -0.10125903364216635     
  0.12869999999999998        -0.51905281148237370     
  0.12900000000000000        -0.96996817541891234     
  0.12930000000000003         -1.4257114673306122     
  0.12959999999999999         -1.8559045072135396     
  0.12990000000000002         -2.2294977102416884     
  0.13019999999999998         -2.5172164380088207     
  0.13050000000000000         -2.6929285916856984     
  0.13080000000000003         -2.7354087048477855     
  0.13109999999999999         -2.6303982243069295     
  0.13140000000000002         -2.3715003110029951     
  0.13169999999999998         -1.9613764797125537     
  0.13200000000000001         -1.4125226297564359     
  0.13229999999999997        -0.74680162108090697     
  0.13260000000000000          4.9360245620505422E-003
  0.13290000000000002         0.80401811647699550     
  0.13319999999999999          1.6062978173247522     
  0.13350000000000001          2.3645378381945674     
  0.13380000000000003          3.0311245975014738     
  0.13410000000000000          3.5617132975930437     
  0.13440000000000002          3.9180268449103286     
  0.13469999999999999          4.0706827972733963     
  0.13500000000000001          4.0020985512864602     
  0.13529999999999998          3.7077723958105455     
  0.13560000000000000          3.1971575870188618     
  0.13590000000000002          2.4937716957445932     
  0.13619999999999999          1.6338440331961490     
  0.13650000000000001         0.66446137152339113     
  0.13680000000000003        -0.35946280576854134     
  0.13710000000000000         -1.3786357358822852     
  0.13740000000000002         -2.3332539453461956     
  0.13769999999999999         -3.1667339635631868     
  0.13800000000000001         -3.8298859556752847     
  0.13829999999999998         -4.2837482233811821     
  0.13860000000000000         -4.5022206250963341     
  0.13890000000000002         -4.4742333573715847     
  0.13919999999999999         -4.2037264957335783     
  0.13950000000000001         -3.7096387283968877     
  0.13979999999999998         -3.0250201757783870     
  0.14010000000000000         -2.1940431596082819     
  0.14040000000000002         -1.2694345541341643     
  0.14069999999999999        -0.30891053927644302     
  0.14100000000000001         0.62870917359859579     
  0.14130000000000004          1.4871115529579002     
  0.14160000000000000          2.2164621036781189     
  0.14189999999999997          2.7766255423032540     
  0.14219999999999999          3.1392314407779769     
  0.14250000000000002          3.2898954755899927     
  0.14279999999999998          3.2288935678884858     
  0.14310000000000000          2.9705536710487803     
  0.14339999999999997          2.5424763213730852     
  0.14369999999999999          1.9832001729392283     
  0.14400000000000002          1.3389245992436289     
  0.14429999999999998         0.66041094081186158     
  0.14460000000000001         -1.2865663980437952E-003
  0.14490000000000003        -0.59886962386827725     
  0.14520000000000000         -1.0918949990666813     
  0.14550000000000002         -1.4503427762516519     
  0.14579999999999999         -1.6566815557127303     
  0.14610000000000001         -1.7066295252054653     
  0.14640000000000003         -1.6097029983586051     
  0.14670000000000000         -1.3875224255498657     
  0.14699999999999996         -1.0712239924830773     
  0.14729999999999999        -0.69894463222233449     
  0.14760000000000001        -0.31140549364163850     
  0.14789999999999998          5.2032120838436460E-002
  0.14820000000000000         0.35665657388138672     