  -1.4999999999999999E-002     0.0000000000000000     
  -1.4700000000000000E-002    -1.2433822508551754E-014
  -1.4400000000000000E-002    -6.1459863204718143E-013
  -1.4100000000000000E-002     3.4687427164979783E-011
  -1.3800000000000000E-002     3.7359137949956588E-011
  -1.3500000000000000E-002    -7.0648873345933977E-010
  -1.3200000000000000E-002    -7.4678982486956914E-010
  -1.2899999999999998E-002     6.9654849036824037E-010
  -1.2600000000000000E-002     1.2502173085809087E-008
  -1.2299999999999998E-002     1.5613181019489663E-008
  -1.2000000000000000E-002    -5.1875516421992607E-008
  -1.1699999999999999E-002    -1.0572490396468528E-007
  -1.1399999999999999E-002     2.0066714549769545E-008
  -1.1099999999999999E-002     3.8015443871214933E-007
  -1.0799999999999999E-002     2.4765707892855031E-007
  -1.0499999999999999E-002    -5.8801793016623228E-007
  -1.0199999999999999E-002    -4.9447222202556252E-007
  -9.8999999999999991E-003    -6.1010319604359326E-008
  -9.5999999999999992E-003    -1.9581274860699839E-007
  -9.2999999999999992E-003     8.7714974765641387E-007
  -8.9999999999999993E-003     1.7874498947451971E-006
  -8.6999999999999994E-003     8.7080012735969458E-007
  -8.3999999999999995E-003    -8.2344210531182394E-007
  -8.0999999999999996E-003    -3.3564369955399930E-006
  -7.7999999999999988E-003    -4.9845061440383898E-006
  -7.4999999999999997E-003    -1.6625000680968197E-006
  -7.1999999999999998E-003     5.9860301814623471E-006
  -6.8999999999999981E-003     9.4010193821436480E-006
  -6.5999999999999982E-003     8.2366065220672508E-006
  -6.3000000000000000E-003     2.4182307526790711E-007
  -6.0000000000000001E-003    -2.2828018766432024E-005
  -5.6999999999999985E-003    -2.7089608000802636E-005
  -5.3999999999999986E-003     3.2591426923698454E-005
  -5.1000000000000004E-003     1.8561629572730356E-004
  -4.7999999999999987E-003     4.4012770180927444E-004
  -4.5000000000000005E-003     7.3993627942307307E-004
  -4.1999999999999989E-003     1.0487288451586163E-003
  -3.8999999999999990E-003     1.4336493735756244E-003
  -3.5999999999999990E-003     2.0747151293362834E-003
  -3.2999999999999991E-003     3.1765331221150733E-003
  -2.9999999999999992E-003     4.8960703575112105E-003
  -2.6999999999999993E-003     7.4288222140248940E-003
  -2.3999999999999994E-003     1.1033885308560143E-002
  -2.0999999999999977E-003     1.6104254012871348E-002
  -1.7999999999999995E-003     2.3193222734129236E-002
  -1.4999999999999979E-003     3.2945391138597957E-002
  -1.1999999999999997E-003     4.6039184087892870E-002
  -8.9999999999999976E-004     6.3181127074885823E-002
  -5.9999999999999810E-004     8.5198145241570794E-002
  -2.9999999999999992E-004    0.11288852261450311     
   0.0000000000000000         0.14692724342363955     
   3.0000000000000165E-004    0.18773501799802933     
   5.9999999999999984E-004    0.23509507908154187     
   9.0000000000000149E-004    0.28792995438087587     
   1.2000000000000031E-003    0.34408776885270792     
   1.5000000000000013E-003    0.40014788216563807     
   1.8000000000000030E-003    0.45097834610455345     
   2.1000000000000012E-003    0.48945299493727601     
   2.3999999999999994E-003    0.50669255772040811     
   2.7000000000000010E-003    0.49199741838448774     
   2.9999999999999992E-003    0.43309442835953921     
   3.3000000000000008E-003    0.31691088278298474     
   3.6000000000000025E-003    0.13077097693175277     
   3.9000000000000007E-003   -0.13624028671756966     
   4.2000000000000023E-003   -0.49199045123831420     
   4.5000000000000005E-003   -0.93897364502770153     
   4.7999999999999987E-003    -1.4726105162861767     
   5.1000000000000004E-003    -2.0798511141452645     
   5.4000000000000020E-003    -2.7376249461445328     
   5.7000000000000037E-003    -3.4125350038937028     
   5.9999999999999984E-003    -4.0611630769311411     
   6.3000000000000000E-003    -4.6321969078658443     
   6.6000000000000017E-003    -5.0693542240989844     
   6.9000000000000034E-003    -5.3151185630972897     
   7.2000000000000015E-003    -5.3164941084338029     
   7.5000000000000032E-003    -5.0307448637699306     
   7.8000000000000014E-003    -4.4312729096511143     
   8.0999999999999996E-003    -3.5133152816663675     
   8.4000000000000012E-003    -2.2972398339083000     
   8.7000000000000029E-003   -0.83159164715832046     
   9.0000000000000011E-003    0.80741156415867521     
   9.2999999999999992E-003     2.5202118826872133     
   9.6000000000000009E-003     4.1889512489252390     
   9.8999999999999991E-003     5.6874875929591679     
   1.0200000000000001E-002     6.8924876747013046     
   1.0500000000000002E-002     7.6956639730898297     
   1.0800000000000004E-002     8.0175267299061090     
   1.1099999999999999E-002     7.8178859029827255     
   1.1400000000000000E-002     7.1064158831654787     
   1.1700000000000002E-002     5.9474457201164279     
   1.2000000000000004E-002     4.4603763610743705     
   1.2300000000000002E-002     2.8153573991430543     
   1.2600000000000000E-002     1.2210722731740002     
   1.2900000000000002E-002    -9.0802828714926065E-002
   1.3200000000000000E-002   -0.88775711918103783     
   1.3500000000000002E-002   -0.96095035920675187     
   1.3800000000000003E-002   -0.15050196672740146     
   1.4100000000000001E-002     1.6289896672277870     
   1.4400000000000000E-002     4.3688612244954879     
   1.4700000000000001E-002     7.9519480509871112     
   1.4999999999999999E-002     12.149146323847475     
   1.5300000000000001E-002     16.626263119906312     
   1.5600000000000003E-002     20.961210398471071     
   1.5899999999999997E-002     24.675575514965448     
   1.6199999999999999E-002     27.273091789373694     
   1.6500000000000001E-002     28.286216846423603     
   1.6800000000000002E-002     27.324796968446037     
   1.7100000000000004E-002     24.122132569145627     
   1.7400000000000006E-002     18.574584382400317     
   1.7700000000000000E-002     10.767319256874302     
   1.8000000000000002E-002    0.98601837178605756     
   1.8300000000000004E-002    -10.292579824625797     
   1.8600000000000005E-002    -22.426218575036650     
   1.8900000000000000E-002    -34.651085155521564     
   1.9200000000000002E-002    -46.141210334536538     
   1.9500000000000003E-002    -56.072150872824558     
   1.9799999999999998E-002    -63.692992047416013     
   2.0100000000000000E-002    -68.388063493828696     
   2.0400000000000001E-002    -69.732490297354232     
   2.0700000000000003E-002    -67.529672679370577     
   2.0999999999999998E-002    -61.827026026787813     
   2.1299999999999999E-002    -52.917696373299862     
   2.1600000000000001E-002    -41.310787605577787     
   2.1900000000000003E-002    -27.696287536231594     
   2.2200000000000004E-002    -12.883994095037778     
   2.2500000000000006E-002     2.2582986418988185     
   2.2800000000000001E-002     16.867174538708110     
   2.3100000000000002E-002     30.153121176569250     
   2.3400000000000004E-002     41.446751508927107     
   2.3699999999999999E-002     50.244234386825937     
   2.4000000000000000E-002     56.230457630135191     
   2.4300000000000002E-002     59.287351510677368     
   2.4599999999999997E-002     59.487666098973847     
   2.4900000000000005E-002     57.073640900787751     
   2.5200000000000000E-002     52.424474797834762     
   2.5499999999999995E-002     46.014557452495978     
   2.5800000000000003E-002     38.377719537231251     
   2.6099999999999998E-002     30.053816340443753     
   2.6400000000000007E-002     21.559166884838401     
   2.6700000000000002E-002     13.351927366830825     
   2.6999999999999996E-002     5.8030885205331870     
   2.7300000000000005E-002   -0.80483981560778117     
   2.7600000000000000E-002    -6.2978198996535077     
   2.7900000000000008E-002    -10.593548065616847     
   2.8200000000000003E-002    -13.696234829214410     
   2.8499999999999998E-002    -15.684515863092876     
   2.8800000000000006E-002    -16.680082403234756     
   2.9100000000000001E-002    -16.844389951818084     
   2.9400000000000003E-002    -16.349024803797207     
   2.9700000000000004E-002    -15.362238323492468     
   3.0000000000000006E-002    -14.046447447774197     
   3.0300000000000001E-002    -12.536173329219883     
   3.0600000000000002E-002    -10.947456714783288     
   3.0900000000000004E-002    -9.3693635299254794     
   3.1199999999999999E-002    -7.8666493846866405     
   3.1500000000000007E-002    -6.4882097250326165     
   3.1800000000000002E-002    -5.2610532793414038     
   3.2099999999999997E-002    -4.2022788499401322     
   3.2400000000000005E-002    -3.3173463726936765     
   3.2700000000000000E-002    -2.6022569077236035     
   3.3000000000000002E-002    -2.0465204296151605     
   3.3300000000000003E-002    -1.6339514225565144     
   3.3599999999999998E-002    -1.3425340092501115     
   3.3900000000000000E-002    -1.1476976169538813     
   3.4200000000000001E-002    -1.0239268636685868     
   3.4500000000000003E-002   -0.94384705588612494     
   3.4799999999999998E-002   -0.88642368244123104     
   3.5099999999999999E-002   -0.83220716012517038     
   3.5400000000000001E-002   -0.76919098684304210     
   3.5699999999999996E-002   -0.69226980461629284     
   3.6000000000000004E-002   -0.59984002507119938     
   3.6299999999999999E-002   -0.49890350750252344     
   3.6600000000000008E-002   -0.39577441502108252     
   3.6900000000000002E-002   -0.29847476862618316     
   3.7199999999999997E-002   -0.21463765450228567     
   3.7500000000000006E-002   -0.14600422563438065     
   3.7800000000000000E-002    -9.2715760903794173E-002
   3.8100000000000009E-002    -5.0128915964164092E-002
   3.8400000000000004E-002    -1.0686866548792903E-002
   3.8699999999999998E-002     3.3534750559263728E-002
   3.9000000000000007E-002     8.9534492361123805E-002
   3.9300000000000002E-002    0.16184498182413276     
   3.9600000000000003E-002    0.25100620043573285     
   3.9900000000000005E-002    0.35354909018284159     
   4.0200000000000000E-002    0.46328843291627853     
   4.0500000000000001E-002    0.56819620934242199     
   4.0800000000000003E-002    0.66048482488093563     
   4.1100000000000005E-002    0.73017583778785022     
   4.1399999999999999E-002    0.77062172590093536     
   4.1700000000000008E-002    0.78389662368960999     
   4.2000000000000003E-002    0.76819017120215782     
   4.2299999999999997E-002    0.73373554782628603     
   4.2600000000000006E-002    0.68769463324301516     
   4.2900000000000001E-002    0.63778908370906162     
   4.3200000000000002E-002    0.59701762596238761     
   4.3500000000000004E-002    0.56522457864759046     
   4.3799999999999999E-002    0.54886465989831124     
   4.4100000000000000E-002    0.54535386183713364     
   4.4400000000000002E-002    0.54746885419986013     
   4.4700000000000004E-002    0.55514163457570254     
   4.4999999999999998E-002    0.55700471091987369     
   4.5300000000000000E-002    0.55180902777423968     
   4.5600000000000002E-002    0.53857385124939872     
   4.5899999999999996E-002    0.51495844659236734     
   4.6200000000000005E-002    0.49005745246108734     
   4.6500000000000000E-002    0.46503676216216983     
   4.6799999999999994E-002    0.44690085838867261     
   4.7100000000000003E-002    0.44233039848681083     
   4.7399999999999998E-002    0.44874073298997186     
   4.7700000000000006E-002    0.46888701947881939     
   4.8000000000000001E-002    0.49638968755201340     
   4.8300000000000010E-002    0.52274098529244639     
   4.8600000000000004E-002    0.54298360800292456     
   4.8899999999999999E-002    0.54565372095307618     
   4.9200000000000008E-002    0.52695928840269213     
   4.9500000000000002E-002    0.48553811403499814     
   4.9800000000000011E-002    0.41950975899492754     
   5.0100000000000006E-002    0.33824144268844686     
   5.0400000000000000E-002    0.24717791057426786     
   5.0700000000000009E-002    0.15476837295661711     
   5.1000000000000004E-002     7.3468288662748085E-002
   5.1299999999999998E-002     4.9833313875796981E-003
   5.1600000000000007E-002    -4.3710784584695905E-002
   5.1900000000000002E-002    -7.3902816999494580E-002
   5.2200000000000010E-002    -9.1665398643701587E-002
   5.2500000000000005E-002    -9.8824457238339880E-002
   5.2800000000000000E-002   -0.10712850434126975     
   5.3099999999999994E-002   -0.11988762778351453     
   5.3400000000000003E-002   -0.14058661571025119     
   5.3699999999999998E-002   -0.17251427494620386     
   5.4000000000000006E-002   -0.20905677655543783     
   5.4300000000000001E-002   -0.24688892147707170     
   5.4599999999999996E-002   -0.27797520632301870     
   5.4900000000000004E-002   -0.29341377215160952     
   5.5199999999999999E-002   -0.28930108399656973     
   5.5499999999999994E-002   -0.26186093071133870     
   5.5800000000000002E-002   -0.21290347715703070     
   5.6099999999999997E-002   -0.14993603145228795     
   5.6400000000000006E-002    -8.0798819382934831E-002
   5.6700000000000000E-002    -1.7426961096913184E-002
   5.6999999999999995E-002     2.7253378067725022E-002
   5.7300000000000004E-002     4.6973410194725861E-002
   5.7599999999999998E-002     3.3788727069577043E-002
   5.7900000000000007E-002    -1.1343231152219600E-002
   5.8200000000000002E-002    -8.0887030123955428E-002
   5.8499999999999996E-002   -0.16850695264197424     
   5.8800000000000005E-002   -0.25522104349837471     
   5.9100000000000000E-002   -0.32877776031587841     
   5.9400000000000008E-002   -0.37620535362680496     
   5.9700000000000003E-002   -0.38306700369244928     
   6.0000000000000012E-002   -0.35156591358095801     
   6.0300000000000006E-002   -0.27869928408609118     
   6.0600000000000001E-002   -0.17530710818229578     
   6.0900000000000010E-002    -5.9287520651303480E-002
   6.1200000000000004E-002     5.7510707192945619E-002
   6.1500000000000013E-002    0.14916111640297253     
   6.1800000000000008E-002    0.20335219059121684     
   6.2100000000000002E-002    0.20898622286990357     
   6.2399999999999997E-002    0.15748167159336252     
   6.2700000000000006E-002     6.0407429379075728E-002
   6.3000000000000000E-002    -7.4759790341715926E-002
   6.3300000000000009E-002   -0.22541884023245318     
   6.3600000000000004E-002   -0.36289783206990217     
   6.3899999999999998E-002   -0.46561450124499648     
   6.4199999999999993E-002   -0.50301846328511379     
   6.4500000000000002E-002   -0.45884500330517708     
   6.4800000000000010E-002   -0.32544558580050426     
   6.5100000000000005E-002    -9.9716305036965200E-002
   6.5400000000000000E-002    0.19757144703048599     
   6.5700000000000008E-002    0.54296914806975594     
   6.5999999999999989E-002    0.90043834977447057     
   6.6299999999999998E-002     1.2213071243588032     
   6.6600000000000006E-002     1.4674323088707377     
   6.6900000000000001E-002     1.5917506530360275     
   6.7199999999999996E-002     1.5623378553334017     
   6.7500000000000004E-002     1.3634256169880468     
   6.7800000000000013E-002    0.98529961456497217     
   6.8099999999999994E-002    0.45076902181279876     
   6.8400000000000002E-002   -0.20909838757382790     
   6.8700000000000011E-002   -0.94525199789017911     
   6.8999999999999992E-002    -1.6887509912667420     
   6.9300000000000000E-002    -2.3780497277914336     
   6.9600000000000009E-002    -2.9395473652297399     
   6.9900000000000004E-002    -3.3134541247539184     
   7.0199999999999999E-002    -3.4579469096985633     
   7.0500000000000007E-002    -3.3401979798407608     
   7.0800000000000016E-002    -2.9636870569520881     
   7.1099999999999997E-002    -2.3469591031892945     
   7.1400000000000005E-002    -1.5324965308022300     
   7.1700000000000000E-002   -0.58769535314157351     
   7.1999999999999995E-002    0.41847529204246436     
   7.2300000000000003E-002     1.4027971373889569     
   7.2600000000000012E-002     2.2886311741954897     
   7.2900000000000006E-002     3.0126771097462957     
   7.3200000000000001E-002     3.5202566219169178     
   7.3499999999999996E-002     3.7847941787399679     
   7.3800000000000004E-002     3.7981637378947175     
   7.4099999999999999E-002     3.5710087429977366     
   7.4400000000000008E-002     3.1398446209718269     
   7.4700000000000003E-002     2.5467660557118985     
   7.5000000000000011E-002     1.8465340631544120     
   7.5299999999999992E-002     1.0990705074873399     
   7.5600000000000001E-002    0.35374005156528432     
   7.5900000000000009E-002   -0.33734980105203272     
   7.6200000000000004E-002   -0.93835588831624728     
   7.6499999999999999E-002    -1.4245850229163430     
   7.6800000000000007E-002    -1.7769539279219919     
   7.7099999999999988E-002    -1.9965037047587373     
   7.7399999999999997E-002    -2.0843421450795070     
   7.7700000000000005E-002    -2.0522513397417823     
   7.8000000000000014E-002    -1.9202908309289084     
   7.8299999999999995E-002    -1.7029304397994414     
   7.8600000000000003E-002    -1.4264913925883715     
   7.8900000000000012E-002    -1.1107539457354907     
   7.9199999999999993E-002   -0.77526990229689252     
   7.9500000000000001E-002   -0.44477363088265831     
   7.9800000000000010E-002   -0.13241463616955218     
   8.0100000000000018E-002    0.14276028459156598     
   8.0399999999999999E-002    0.36940609717074147     
   8.0700000000000008E-002    0.54143626646306342     
   8.1000000000000003E-002    0.65101646837574889     
   8.1299999999999997E-002    0.70320913314493794     
   8.1600000000000006E-002    0.70119656569798072     
   8.1900000000000014E-002    0.65350084867297231     
   8.2199999999999995E-002    0.57485597638174979     
   8.2500000000000004E-002    0.47494537365685696     
   8.2799999999999999E-002    0.36859510099473486     
   8.3100000000000007E-002    0.26738808589217511     
   8.3400000000000002E-002    0.17730372085996005     
   8.3700000000000011E-002    0.10670474976960992     
   8.4000000000000005E-002     5.5031001983949973E-002
   8.4300000000000000E-002     2.1637967998070093E-002
   8.4599999999999995E-002     4.8753821793749777E-003
   8.4900000000000003E-002    -3.4643292430330402E-003
   8.5199999999999998E-002    -4.1473565152650715E-003
   8.5500000000000007E-002    -3.2213120244405057E-003
   8.5800000000000001E-002    -3.5823390897875215E-003
   8.6100000000000010E-002    -3.0714192294338978E-003
   8.6399999999999991E-002    -5.4223567493219202E-003
   8.6699999999999999E-002    -5.9493646560917542E-003
   8.7000000000000008E-002    -4.9005242541823452E-003
   8.7300000000000003E-002    -2.4303488881362995E-003
   8.7599999999999997E-002     4.3596910304021606E-003
   8.7900000000000006E-002     1.0726163756331928E-002
   8.8200000000000014E-002     1.7891375984755528E-002
   8.8499999999999995E-002     2.2698547421280052E-002
   8.8800000000000004E-002     2.1189173175105630E-002
   8.9100000000000013E-002     1.5368961401601707E-002
   8.9399999999999993E-002     1.1695521389800262E-003
   8.9700000000000002E-002    -1.8340604816358630E-002
   9.0000000000000011E-002    -4.0755310230887659E-002
   9.0299999999999991E-002    -6.5305402338564925E-002
   9.0600000000000000E-002    -8.5439780169305202E-002
   9.0900000000000009E-002   -0.10094719935281210     
   9.1200000000000017E-002   -0.10855089923894014     
   9.1499999999999998E-002   -0.10666006805604974     
   9.1800000000000007E-002    -9.7879813439496852E-002
   9.2100000000000001E-002    -8.1902231428916214E-002
   9.2399999999999996E-002    -6.2314831042160575E-002
   9.2700000000000005E-002    -4.2410020344116880E-002
   9.3000000000000013E-002    -2.3524363623321120E-002
   9.3300000000000008E-002    -9.5784514951561348E-003
   9.3600000000000003E-002    -8.9654254768388626E-004
   9.3899999999999997E-002     3.5930020379440599E-003
   9.4200000000000006E-002     2.3948278302928496E-003
   9.4500000000000001E-002    -4.4889274713833145E-004
   9.4800000000000009E-002    -4.6317895134535651E-003
   9.5100000000000004E-002    -1.0005460641763785E-002
   9.5399999999999999E-002    -1.3150148532311487E-002
   9.5699999999999993E-002    -1.7178016537211002E-002
   9.6000000000000002E-002    -2.0363444714935577E-002
   9.6300000000000011E-002    -2.4232033397662028E-002
   9.6600000000000005E-002    -3.1486618034855772E-002
   9.6900000000000000E-002    -3.9392025727155597E-002
   9.7200000000000009E-002    -5.1779626169522364E-002
   9.7499999999999989E-002    -6.5630701203439612E-002
   9.7799999999999998E-002    -7.8596931096389280E-002
   9.8100000000000007E-002    -9.1877319373981886E-002
   9.8400000000000015E-002    -9.9527558165523278E-002
   9.8699999999999996E-002   -0.10247358707772619     
   9.9000000000000005E-002    -9.8967510835744330E-002
   9.9300000000000013E-002    -8.7469759617613579E-002
   9.9599999999999994E-002    -7.1490702579402932E-002
   9.9900000000000003E-002    -4.9824262739571981E-002
  0.10020000000000001         -2.6224124834280660E-002
  0.10049999999999999         -3.2088701693925234E-003
  0.10080000000000000          1.9085467402399126E-002
  0.10110000000000001          3.6488402569388699E-002
  0.10140000000000000          4.9704063190624460E-002
  0.10170000000000000          5.9471121698105624E-002
  0.10200000000000001          6.4596463184115438E-002
  0.10230000000000002          6.8240380061102085E-002
  0.10260000000000000          7.0383974309195935E-002
  0.10290000000000001          7.0992420451470778E-002
  0.10320000000000000          7.2772091292279850E-002
  0.10350000000000001          7.2935600675983772E-002
  0.10380000000000000          7.2731142975781260E-002
  0.10410000000000001          7.1355244742147911E-002
  0.10440000000000001          6.6064701080085234E-002
  0.10470000000000000          5.9631201947146675E-002
  0.10500000000000000          4.9449047451331822E-002
  0.10530000000000000          3.7412515543468118E-002
  0.10560000000000000          2.6005261268655613E-002
  0.10590000000000001          1.4355331949597830E-002
  0.10620000000000000          7.0069751680699489E-003
  0.10650000000000001          3.9213126431657114E-003
  0.10679999999999999          5.3735989792969303E-003
  0.10710000000000000          1.2908462353021219E-002
  0.10740000000000001          2.3620414575771860E-002
  0.10770000000000000          3.7011151725996796E-002
  0.10800000000000000          5.1302015064196606E-002
  0.10830000000000001          6.2928005370531573E-002
  0.10859999999999999          7.1632803387450497E-002
  0.10890000000000000          7.5666071587007527E-002
  0.10920000000000001          7.3814397355190339E-002
  0.10950000000000001          6.8765417641257764E-002
  0.10979999999999999          5.9907434004107953E-002
  0.11009999999999999          4.8811600862575882E-002
  0.11040000000000001          3.9197104969289978E-002
  0.11070000000000001          2.8464974420420185E-002
  0.11100000000000000          2.0424543771827390E-002
  0.11130000000000000          1.3966678248849979E-002
  0.11160000000000002          6.0553324596004238E-003
  0.11190000000000001          5.5913106264937184E-004
  0.11220000000000001         -9.0449286339034565E-003
  0.11250000000000000         -1.9562709760717480E-002
  0.11280000000000000         -3.0890788948772775E-002
  0.11309999999999999         -4.6543006953612208E-002
  0.11340000000000001         -5.8521746341241916E-002
  0.11369999999999998         -7.0859055944545044E-002
  0.11400000000000000         -7.8828905343255526E-002
  0.11430000000000000         -7.9018765571090457E-002
  0.11460000000000002         -7.6035928424785487E-002
  0.11489999999999999         -6.3576078375435524E-002
  0.11520000000000001         -4.7523045183918713E-002
  0.11550000000000001         -2.9407832087241466E-002
  0.11580000000000000         -8.1881435824605123E-003
  0.11609999999999999          7.5460058250426051E-003
  0.11640000000000002          2.0498438490782891E-002
  0.11670000000000001          2.7174054972436093E-002
  0.11700000000000001          2.4814576380627465E-002
  0.11730000000000000          1.8984733724323730E-002
  0.11760000000000000          6.0732671254974703E-003
  0.11789999999999999         -8.9946694755475096E-003
  0.11820000000000001         -2.2612041424657083E-002
  0.11850000000000001         -3.7086905630499600E-002
  0.11880000000000000         -4.6089789380684067E-002
  0.11910000000000000         -5.2339845409362200E-002
  0.11940000000000002         -5.6641952658802133E-002
  0.11970000000000001         -5.5872027752079501E-002
  0.12000000000000001         -5.7002181351831785E-002
  0.12030000000000000         -5.6907492350224562E-002
  0.12060000000000000         -5.7300365061513786E-002
  0.12089999999999999         -6.1282727300710174E-002
  0.12119999999999999         -6.2614199760420014E-002
  0.12150000000000001         -6.5269861681732433E-002
  0.12180000000000001         -6.5000726154034877E-002
  0.12210000000000000         -5.9088758136307845E-002
  0.12239999999999999         -5.0722859718960775E-002
  0.12270000000000002         -3.4712280302444519E-002
  0.12300000000000001         -1.5998046073114100E-002
  0.12330000000000001          4.3107246152129311E-003
  0.12360000000000000          2.5948859246497369E-002
  0.12390000000000000          4.2153103623750188E-002
  0.12419999999999999          5.3684152225987165E-002
  0.12450000000000001          5.7572665038975512E-002
  0.12480000000000001          5.2086867641750641E-002
  0.12509999999999999          3.9677148288278397E-002
  0.12540000000000001          2.0847048017414792E-002
  0.12570000000000003         -1.5259991173113708E-003
  0.12600000000000000         -2.3300940649069971E-002
  0.12630000000000002         -4.3012912366374882E-002
  0.12659999999999999         -5.7949479417605192E-002
  0.12690000000000001         -6.5363781295985149E-002
  0.12719999999999998         -6.8165893003466066E-002
  0.12750000000000000         -6.4049148957819879E-002
  0.12780000000000002         -5.5634292939667922E-002
  0.12809999999999999         -4.6627476498257006E-002
  0.12840000000000001         -3.4117031221690026E-002
  0.12869999999999998         -2.4163891476235572E-002
  0.12900000000000000         -1.4186753474651308E-002
  0.12930000000000003         -3.1997796427994211E-003
  0.12959999999999999          5.6145316195194625E-003
  0.12990000000000002          1.9936918640939577E-002
  0.13019999999999998          3.5424553174249397E-002
  0.13050000000000000          5.4355928726729147E-002
  0.13080000000000003          7.8994389845019983E-002
  0.13109999999999999         0.10201100055697263     
  0.13140000000000002         0.12765480174021668     
  0.13169999999999998         0.14965316190871167     
  0.13200000000000001         0.16493385576502345     
  0.13229999999999997         0.17520860358106616     
  0.13260000000000000         0.17353290728203974     
  0.13290000000000002         0.16371747583856056     
  0.13319999999999999         0.14650085121222495     
  0.13350000000000001         0.12090013486559714     
  0.13380000000000003          9.4756495650571926E-002
  0.13410000000000000          6.7245066255544023E-002
  0.13440000000000002          4.1729069659282247E-002
  0.13469999999999999          2.3618366238751912E-002
  0.13500000000000001          8.5743552191625619E-003
  0.13529999999999998          1.2227454280035084E-003
  0.13560000000000000         -7.2518162437387561E-004
  0.13590000000000002         -1.6926611024061025E-003
  0.13619999999999999          2.2487396216539883E-003
  0.13650000000000001          3.3012825851103777E-003
  0.13680000000000003          3.6045320735460544E-003
  0.13710000000000000          4.0581696159454322E-003
  0.13740000000000002         -4.9629077608325141E-004
  0.13769999999999999         -1.7316216903119214E-003
  0.13800000000000001         -3.7204391262003807E-003
  0.13829999999999998         -4.6450399657921061E-003
  0.13860000000000000          3.0430129359157194E-004
  0.13890000000000002          4.1282817134850498E-003
  0.13919999999999999          1.2649298730964298E-002
  0.13950000000000001          2.0776007689001487E-002
  0.13979999999999998          2.5556849068100594E-002
  0.14010000000000000          2.9721440556047661E-002
  0.14040000000000002          2.5428530442922176E-002
  0.14069999999999999          1.6364176716870089E-002
  0.14100000000000001          1.6308908277004579E-003
  0.14130000000000004         -2.0081609037865412E-002
  0.14160000000000000         -4.2433911122539802E-002
  0.14189999999999997         -6.6398330304493769E-002
  0.14219999999999999         -8.8275240820083062E-002
  0.14250000000000002        -0.10428552137692228     
  0.14279999999999998        -0.11565189850079946     
  0.14310000000000000        -0.11958509971235781     
  0.14339999999999997        -0.11711790712854618     
  0.14369999999999999        -0.11156620587594630     
  0.14400000000000002        -0.10164595424494530     
  0.14429999999999998         -9.2054471870574209E-002
  0.14460000000000001         -8.4149567537612699E-002
  0.14490000000000003         -7.6913239842555686E-002
  0.14520000000000000         -7.4587822319310090E-002
  0.14550000000000002         -7.3219756718810730E-002
  0.14579999999999999         -7.2823363274394481E-002
  0.14610000000000001         -7.3610493903313617E-002
  0.14640000000000003         -7.0851659400756384E-002
  0.14670000000000000         -6.7814015144222278E-002
  0.14699999999999996         -6.1640554753272042E-002
  0.14729999999999999         -5.3139573463982202E-002
  0.14760000000000001         -4.5885803316356714E-002
  0.14789999999999998         -3.7968425066974398E-002
  0.14820000000000000         -3.4026406132790801E-002