  -1.4999999999999999E-002     0.0000000000000000     
  -1.4700000000000000E-002     0.0000000000000000     
  -1.4400000000000000E-002     0.0000000000000000     
  -1.4100000000000000E-002     0.0000000000000000     
  -1.3800000000000000E-002     0.0000000000000000     
  -1.3500000000000000E-002     0.0000000000000000     
  -1.3200000000000000E-002     0.0000000000000000     
  -1.2899999999999998E-002     0.0000000000000000     
  -1.2600000000000000E-002     0.0000000000000000     
  -1.2299999999999998E-002     0.0000000000000000     
  -1.2000000000000000E-002     0.0000000000000000     
  -1.1699999999999999E-002     0.0000000000000000     
  -1.1399999999999999E-002     0.0000000000000000     
  -1.1099999999999999E-002     0.0000000000000000     
  -1.0799999999999999E-002     0.0000000000000000     
  -1.0499999999999999E-002     0.0000000000000000     
  -1.0199999999999999E-002     0.0000000000000000     
  -9.8999999999999991E-003     0.0000000000000000     
  -9.5999999999999992E-003     0.0000000000000000     
  -9.2999999999999992E-003     0.0000000000000000     
  -8.9999999999999993E-003     0.0000000000000000     
  -8.6999999999999994E-003     0.0000000000000000     
  -8.3999999999999995E-003     0.0000000000000000     
  -8.0999999999999996E-003     0.0000000000000000     
  -7.7999999999999988E-003     0.0000000000000000     
  -7.4999999999999997E-003     0.0000000000000000     
  -7.1999999999999998E-003     0.0000000000000000     
  -6.8999999999999981E-003     0.0000000000000000     
  -6.5999999999999982E-003     0.0000000000000000     
  -6.3000000000000000E-003     0.0000000000000000     
  -6.0000000000000001E-003     0.0000000000000000     
  -5.6999999999999985E-003     0.0000000000000000     
  -5.3999999999999986E-003     0.0000000000000000     
  -5.1000000000000004E-003     0.0000000000000000     
  -4.7999999999999987E-003     0.0000000000000000     
  -4.5000000000000005E-003     0.0000000000000000     
  -4.1999999999999989E-003     0.0000000000000000     
  -3.8999999999999990E-003     0.0000000000000000     
  -3.5999999999999990E-003     0.0000000000000000     
  -3.2999999999999991E-003     0.0000000000000000     
  -2.9999999999999992E-003     0.0000000000000000     
  -2.6999999999999993E-003     0.0000000000000000     
  -2.3999999999999994E-003     0.0000000000000000     
  -2.0999999999999977E-003     0.0000000000000000     
  -1.7999999999999995E-003     0.0000000000000000     
  -1.4999999999999979E-003     0.0000000000000000     
  -1.1999999999999997E-003     0.0000000000000000     
  -8.9999999999999976E-004     0.0000000000000000     
  -5.9999999999999810E-004     0.0000000000000000     
  -2.9999999999999992E-004     0.0000000000000000     
   0.0000000000000000          0.0000000000000000     
   3.0000000000000165E-004     0.0000000000000000     
   5.9999999999999984E-004     0.0000000000000000     
   9.0000000000000149E-004     0.0000000000000000     
   1.2000000000000031E-003     0.0000000000000000     
   1.5000000000000013E-003     0.0000000000000000     
   1.8000000000000030E-003     0.0000000000000000     
   2.1000000000000012E-003     0.0000000000000000     
   2.3999999999999994E-003     0.0000000000000000     
   2.7000000000000010E-003     0.0000000000000000     
   2.9999999999999992E-003     0.0000000000000000     
   3.3000000000000008E-003     0.0000000000000000     
   3.6000000000000025E-003     0.0000000000000000     
   3.9000000000000007E-003     0.0000000000000000     
   4.2000000000000023E-003     0.0000000000000000     
   4.5000000000000005E-003     0.0000000000000000     
   4.7999999999999987E-003     0.0000000000000000     
   5.1000000000000004E-003     0.0000000000000000     
   5.4000000000000020E-003     0.0000000000000000     
   5.7000000000000037E-003     0.0000000000000000     
   5.9999999999999984E-003     0.0000000000000000     
   6.3000000000000000E-003     0.0000000000000000     
   6.6000000000000017E-003     0.0000000000000000     
   6.9000000000000034E-003     0.0000000000000000     
   7.2000000000000015E-003     0.0000000000000000     
   7.5000000000000032E-003     0.0000000000000000     
   7.8000000000000014E-003     0.0000000000000000     
   8.0999999999999996E-003     0.0000000000000000     
   8.4000000000000012E-003     0.0000000000000000     
   8.7000000000000029E-003     0.0000000000000000     
   9.0000000000000011E-003     0.0000000000000000     
   9.2999999999999992E-003     0.0000000000000000     
   9.6000000000000009E-003     0.0000000000000000     
   9.8999999999999991E-003     0.0000000000000000     
   1.0200000000000001E-002     0.0000000000000000     
   1.0500000000000002E-002     0.0000000000000000     
   1.0800000000000004E-002    -1.0679306618865005E-073
   1.1099999999999999E-002    -1.3866686213911749E-044
   1.1400000000000000E-002    -7.0933075513382793E-043
   1.1700000000000002E-002    -1.0412494223541256E-037
   1.2000000000000004E-002     2.9607363659669268E-035
   1.2300000000000002E-002    -8.0303158078360613E-035
   1.2600000000000000E-002    -2.0496400514987902E-033
   1.2900000000000002E-002     8.9946831205674299E-033
   1.3200000000000000E-002     6.2367091533195251E-032
   1.3500000000000002E-002    -5.7621774634496599E-031
   1.3800000000000003E-002     1.9918027526055322E-031
   1.4100000000000001E-002     1.6022220877670572E-029
   1.4400000000000000E-002    -7.2714675837038554E-029
   1.4700000000000001E-002    -5.5286950821058958E-029
   1.4999999999999999E-002     1.7511101175321446E-027
   1.5300000000000001E-002    -6.8865321286828890E-027
   1.5600000000000003E-002     2.1562346465199156E-027
   1.5899999999999997E-002     9.4945089340949834E-026
   1.6199999999999999E-002    -4.7498987381982541E-025
   1.6500000000000001E-002     1.0471528036394201E-024
   1.6800000000000002E-002     4.5191638465296643E-025
   1.7100000000000004E-002    -1.2842084989945485E-023
   1.7400000000000006E-002     5.6307257435273013E-023
   1.7700000000000000E-002    -1.6192835736121761E-022
   1.8000000000000002E-002     3.7762791273450326E-022
   1.8300000000000004E-002    -8.5097705000581643E-022
   1.8600000000000005E-002     1.8995208872359526E-021
   1.8900000000000000E-002    -1.7980781698015482E-021
   1.9200000000000002E-002    -2.1891178626352674E-020
   1.9500000000000003E-002     2.1109145341522477E-019
   1.9799999999999998E-002    -1.2543259106932809E-018
   2.0100000000000000E-002     6.0648752343543947E-018
   2.0400000000000001E-002    -2.6150034872406972E-017
   2.0700000000000003E-002     1.0571647067736292E-016
   2.0999999999999998E-002    -4.1284841388452798E-016
   2.1299999999999999E-002     1.5756551056647302E-015
   2.1600000000000001E-002    -5.8321340101789504E-015
   2.1900000000000003E-002     2.0378072113382187E-014
   2.2200000000000004E-002    -6.3971574015315285E-014
   2.2500000000000006E-002     1.6379334043627202E-013
   2.2800000000000001E-002    -2.4827636206624146E-013
   2.3100000000000002E-002    -4.3347536482058537E-013
   2.3400000000000004E-002     5.1592266497348128E-012
   2.3699999999999999E-002    -2.2428047385710979E-011
   2.4000000000000000E-002     5.9028298860174781E-011
   2.4300000000000002E-002    -6.6103003279108205E-011
   2.4599999999999997E-002    -1.9437244917893639E-010
   2.4900000000000005E-002     1.1254398437108132E-009
   2.5200000000000000E-002    -2.1681407765450486E-009
   2.5499999999999995E-002    -8.0821057642562544E-010
   2.5800000000000003E-002     1.3291500870183227E-008
   2.6099999999999998E-002    -2.1295516784751077E-008
   2.6400000000000007E-002    -2.5384778565064954E-008
   2.6700000000000002E-002     1.1557496982486954E-007
   2.6999999999999996E-002    -9.3020385040712359E-009
   2.7300000000000005E-002    -3.8617548042089850E-007
   2.7600000000000000E-002     1.0260361502879081E-007
   2.7900000000000008E-002     1.0996720430311921E-006
   2.8200000000000003E-002     1.0926620504906621E-007
   2.8499999999999998E-002    -2.9196741670281581E-006
   2.8800000000000006E-002    -2.7695039387262643E-006
   2.9100000000000001E-002     6.9185011842144628E-006
   2.9400000000000003E-002     2.7191795446330831E-005
   2.9700000000000004E-002     5.4040794335578438E-005
   3.0000000000000006E-002     8.6040144287786671E-005
   3.0300000000000001E-002     1.2954009213920218E-004
   3.0600000000000002E-002     1.9774591139252952E-004
   3.0900000000000004E-002     3.0854293208752037E-004
   3.1199999999999999E-002     4.8321446638227236E-004
   3.1500000000000007E-002     7.4784681725179915E-004
   3.1800000000000002E-002     1.1384407259370057E-003
   3.2099999999999997E-002     1.7062831389222451E-003
   3.2400000000000005E-002     2.5222113851430090E-003
   3.2700000000000000E-002     3.6804102366191972E-003
   3.3000000000000002E-002     5.3008745579783759E-003
   3.3300000000000003E-002     7.5313810329478729E-003
   3.3599999999999998E-002     1.0549351974030410E-002
   3.3900000000000000E-002     1.4562373603231997E-002
   3.4200000000000001E-002     1.9805651911325810E-002
   3.4500000000000003E-002     2.6532064269833778E-002
   3.4799999999999998E-002     3.4994249631859355E-002
   3.5099999999999999E-002     4.5421631872089849E-002
   3.5400000000000001E-002     5.7988809765364371E-002
   3.5699999999999996E-002     7.2774033037309463E-002
   3.6000000000000004E-002     8.9706469015021939E-002
   3.6299999999999999E-002    0.10850897844138982     
   3.6600000000000008E-002    0.12863739324027035     
   3.6900000000000002E-002    0.14922696919176914     
   3.7199999999999997E-002    0.16905342684599092     
   3.7500000000000006E-002    0.18650317899903177     
   3.7800000000000000E-002    0.19958966236968156     
   3.8100000000000009E-002    0.20599936728724894     
   3.8400000000000004E-002    0.20318245165339890     
   3.8699999999999998E-002    0.18851720507017924     
   3.9000000000000007E-002    0.15950440468781643     
   3.9300000000000002E-002    0.11401723004283959     
   3.9600000000000003E-002     5.0570672332215891E-002
   3.9900000000000005E-002    -3.1376810184807098E-002
   4.0200000000000000E-002   -0.13117373498888696     
   4.0500000000000001E-002   -0.24675423853891296     
   4.0800000000000003E-002   -0.37451533912750479     
   4.1100000000000005E-002   -0.50931556970449088     
   4.1399999999999999E-002   -0.64459493222205522     
   4.1700000000000008E-002   -0.77265825813181455     
   4.2000000000000003E-002   -0.88510474927689131     
   4.2299999999999997E-002   -0.97335729695005846     
   4.2600000000000006E-002    -1.0293202787897451     
   4.2900000000000001E-002    -1.0460395014227641     
   4.3200000000000002E-002    -1.0183465863059085     
   4.3500000000000004E-002   -0.94341651159482964     
   4.3799999999999999E-002   -0.82116863220938152     
   4.4100000000000000E-002   -0.65445497090888816     
   4.4400000000000002E-002   -0.44903166766628078     
   4.4700000000000004E-002   -0.21329418602708267     
   4.4999999999999998E-002     4.2209012377181054E-002
   4.5300000000000000E-002    0.30551208232536442     
   4.5600000000000002E-002    0.56397624957156767     
   4.5899999999999996E-002    0.80518433504832998     
   4.6200000000000005E-002     1.0178158665841994     
   4.6500000000000000E-002     1.1922942847440927     
   4.6799999999999994E-002     1.3214844960551491     
   4.7100000000000003E-002     1.4010273742763235     
   4.7399999999999998E-002     1.4294251738231141     
   4.7700000000000006E-002     1.4080920745651655     
   4.8000000000000001E-002     1.3409710431180533     
   4.8300000000000010E-002     1.2340678436965931     
   4.8600000000000004E-002     1.0950123479781793     
   4.8899999999999999E-002    0.93229118480400031     
   4.9200000000000008E-002    0.75468274776499766     
   4.9500000000000002E-002    0.57073577376973172     
   4.9800000000000011E-002    0.38816405780361612     
   5.0100000000000006E-002    0.21358344746704747     
   5.0400000000000000E-002     5.2273435545730169E-002
   5.0700000000000009E-002    -9.1954115499649408E-002
   5.1000000000000004E-002   -0.21671272128885663     
   5.1299999999999998E-002   -0.32093544001473351     
   5.1600000000000007E-002   -0.40468339624599736     
   5.1900000000000002E-002   -0.46891407903842358     
   5.2200000000000010E-002   -0.51524945005034595     
   5.2500000000000005E-002   -0.54570843789033829     
   5.2800000000000000E-002   -0.56248976857858057     
   5.3099999999999994E-002   -0.56780340362062998     
   5.3400000000000003E-002   -0.56371351154917748     
   5.3699999999999998E-002   -0.55203350414001462     
   5.4000000000000006E-002   -0.53429641292007712     
   5.4300000000000001E-002   -0.51167257512471098     
   5.4599999999999996E-002   -0.48500152220663206     
   5.4900000000000004E-002   -0.45482982877546735     
   5.5199999999999999E-002   -0.42141030793626183     
   5.5499999999999994E-002   -0.38476733798103147     
   5.5800000000000002E-002   -0.34480185598792645     
   5.6099999999999997E-002   -0.30133501820978409     
   5.6400000000000006E-002   -0.25421378970692993     
   5.6700000000000000E-002   -0.20343954139278236     
   5.6999999999999995E-002   -0.14924710067235158     
   5.7300000000000004E-002    -9.2265467935086110E-002
   5.7599999999999998E-002    -3.3639175345252070E-002
   5.7900000000000007E-002     2.4920399162598236E-002
   5.8200000000000002E-002     8.1031407320593940E-002
   5.8499999999999996E-002    0.13163936614582394     
   5.8800000000000005E-002    0.17310946319598614     
   5.9100000000000000E-002    0.20134334999192718     
   5.9400000000000008E-002    0.21206284338979470     
   5.9700000000000003E-002    0.20115069279491957     
   6.0000000000000012E-002    0.16504499900912800     
   6.0300000000000006E-002    0.10124273939017996     
   6.0600000000000001E-002     8.7926312298606344E-003
   6.0900000000000010E-002   -0.11127439603941083     
   6.1200000000000004E-002   -0.25560466460184311     
   6.1500000000000013E-002   -0.41831396644102198     
   6.1800000000000008E-002   -0.59103026263712077     
   6.2100000000000002E-002   -0.76317718541619817     
   6.2399999999999997E-002   -0.92245904115314892     
   6.2700000000000006E-002    -1.0556542078465798     
   6.3000000000000000E-002    -1.1495535804668553     
   6.3300000000000009E-002    -1.1920526473097928     
   6.3600000000000004E-002    -1.1732905347950702     
   6.3899999999999998E-002    -1.0866438553502182     
   6.4199999999999993E-002   -0.92956409308709254     
   6.4500000000000002E-002   -0.70419624046206841     
   6.4800000000000010E-002   -0.41743774722663884     
   6.5100000000000005E-002    -8.0802718712605914E-002
   6.5400000000000000E-002    0.29016868423274600     
   6.5700000000000008E-002    0.67704870899289682     
   6.5999999999999989E-002     1.0596033734891859     
   6.6299999999999998E-002     1.4173379476746337     
   6.6600000000000006E-002     1.7310398273049610     
   6.6900000000000001E-002     1.9838647391071857     
   6.7199999999999996E-002     2.1628228039754052     
   6.7500000000000004E-002     2.2594955808059796     
   6.7800000000000013E-002     2.2703054794433704     
   6.8099999999999994E-002     2.1968623022303024     
   6.8400000000000002E-002     2.0453942579566906     
   6.8700000000000011E-002     1.8259952743437171     
   6.8999999999999992E-002     1.5519975996648043     
   6.9300000000000000E-002     1.2385664442577282     
   6.9600000000000009E-002    0.90154782268718414     
   6.9900000000000004E-002    0.55669470675973676     
   7.0199999999999999E-002    0.21833748410749276     
   7.0500000000000007E-002   -0.10122953749917338     
   7.0800000000000016E-002   -0.39196287066829189     
   7.1099999999999997E-002   -0.64681156885100688     
   7.1400000000000005E-002   -0.86127230725608428     
   7.1700000000000000E-002    -1.0331315182430336     
   7.1999999999999995E-002    -1.1626637409198184     
   7.2300000000000003E-002    -1.2514684659535713     
   7.2600000000000012E-002    -1.3023010969269022     
   7.2900000000000006E-002    -1.3190069681487866     
   7.3200000000000001E-002    -1.3053101778829337     
   7.3499999999999996E-002    -1.2652565703642438     
   7.3800000000000004E-002    -1.2030091726454100     
   7.4099999999999999E-002    -1.1221266204493050     
   7.4400000000000008E-002    -1.0264935870974783     
   7.4700000000000003E-002   -0.91991773667991850     
   7.5000000000000011E-002   -0.80596956624164040     
   7.5299999999999992E-002   -0.68887540297841598     
   7.5600000000000001E-002   -0.57271852279598490     
   7.5900000000000009E-002   -0.46160199030987542     
   7.6200000000000004E-002   -0.36002291663889124     
   7.6499999999999999E-002   -0.27185932904517718     
   7.6800000000000007E-002   -0.20067954912119318     
   7.7099999999999988E-002   -0.14949903563897302     
   7.7399999999999997E-002   -0.11989737872131029     
   7.7700000000000005E-002   -0.11241382909465646     
   7.8000000000000014E-002   -0.12612555040470944     
   7.8299999999999995E-002   -0.15825486917262863     
   7.8600000000000003E-002   -0.20476449448155157     
   7.8900000000000012E-002   -0.26009522013371306     
   7.9199999999999993E-002   -0.31728918698320208     
   7.9500000000000001E-002   -0.36889843682908152     
   7.9800000000000010E-002   -0.40683029769993240     
   8.0100000000000018E-002   -0.42301880048432966     
   8.0399999999999999E-002   -0.41033671959068485     
   8.0700000000000008E-002   -0.36255200168605572     
   8.1000000000000003E-002   -0.27520356674985741     
   8.1299999999999997E-002   -0.14623541216020100     
   8.1600000000000006E-002     2.4159648558135426E-002
   8.1900000000000014E-002    0.23275450802192257     
   8.2199999999999995E-002    0.47333498683915931     
   8.2500000000000004E-002    0.73707309293461887     
   8.2799999999999999E-002     1.0123417775597154     
   8.3100000000000007E-002     1.2855245378783626     
   8.3400000000000002E-002     1.5418464548204498     
   8.3700000000000011E-002     1.7657922002828077     
   8.4000000000000005E-002     1.9424751560432632     
   8.4300000000000000E-002     2.0585857236748017     
   8.4599999999999995E-002     2.1030464986893103     
   8.4900000000000003E-002     2.0683086717900103     
   8.5199999999999998E-002     1.9508542575381227     
   8.5500000000000007E-002     1.7514787395153770     
   8.5800000000000001E-002     1.4757862659014349     
   8.6100000000000010E-002     1.1336703736535592     
   8.6399999999999991E-002    0.73875567176390955     
   8.6699999999999999E-002    0.30798487061342900     
   8.7000000000000008E-002   -0.13971247306382115     
   8.7300000000000003E-002   -0.58461865035621241     
   8.7599999999999997E-002    -1.0069209722175916     
   8.7900000000000006E-002    -1.3883877331468020     
   8.8200000000000014E-002    -1.7132371127628170     
   8.8499999999999995E-002    -1.9686904707179991     
   8.8800000000000004E-002    -2.1460293161283195     
   8.9100000000000013E-002    -2.2404921913543028     
   8.9399999999999993E-002    -2.2513738541498727     
   8.9700000000000002E-002    -2.1821645142945512     
   9.0000000000000011E-002    -2.0394805259557236     
   9.0299999999999991E-002    -1.8329356418615557     
   9.0600000000000000E-002    -1.5744394665929116     
   9.0900000000000009E-002    -1.2770472059197184     
   9.1200000000000017E-002   -0.95491782461129049     
   9.1499999999999998E-002   -0.62227764064217339     
   9.1800000000000007E-002   -0.29283423268154946     
   9.2100000000000001E-002     2.0196402330029901E-002
   9.2399999999999996E-002    0.30509315212268839     
   9.2700000000000005E-002    0.55163487024871383     
   9.3000000000000013E-002    0.75128999332608137     
   9.3300000000000008E-002    0.89805642285336762     
   9.3600000000000003E-002    0.98838589417941347     
   9.3899999999999997E-002     1.0217291504732042     
   9.4200000000000006E-002     1.0010997431772266     
   9.4500000000000001E-002    0.93283161970783934     
   9.4800000000000009E-002    0.82697072614042311     
   9.5100000000000004E-002    0.69695212883471136     
   9.5399999999999999E-002    0.55864204836245135     
   9.5699999999999993E-002    0.42985193286791312     
   9.6000000000000002E-002    0.32863817573455090     
   9.6300000000000011E-002    0.27156955748994432     
   9.6600000000000005E-002    0.27239105881311654     
   9.6900000000000000E-002    0.33989049078874983     
   9.7200000000000009E-002    0.47659580566405046     
   9.7499999999999989E-002    0.67795469851509860     
   9.7799999999999998E-002    0.93160775827630726     
   9.8100000000000007E-002     1.2180620897580017     
   9.8400000000000015E-002     1.5118718730844616     
   9.8699999999999996E-002     1.7832953429812963     
   9.9000000000000005E-002     2.0012133900698252     
   9.9300000000000013E-002     2.1357935308863527     
   9.9599999999999994E-002     2.1613448511779891     
   9.9900000000000003E-002     2.0594528529317051     
  0.10020000000000001          1.8206852199393559     
  0.10049999999999999          1.4461989975678764     
  0.10080000000000000         0.94853822229574913     
  0.10110000000000001         0.35034005354639158     
  0.10140000000000000        -0.31674886835197352     
  0.10170000000000000         -1.0145092389928925     
  0.10200000000000001         -1.7016572407478290     
  0.10230000000000002         -2.3367875518236692     
  0.10260000000000000         -2.8818463005109933     
  0.10290000000000001         -3.3054081287626529     
  0.10320000000000000         -3.5846663911999794     
  0.10350000000000001         -3.7071601402297176     
  0.10380000000000000         -3.6715604306732801     
  0.10410000000000001         -3.4866322449729168     
  0.10440000000000001         -3.1704648782394855     
  0.10470000000000000         -2.7482458238443468     
  0.10500000000000000         -2.2492524074782754     
  0.10530000000000000         -1.7049167822372475     
  0.10560000000000000         -1.1455631699593924     
  0.10590000000000001        -0.59810950604427149     
  0.10620000000000000         -8.5029089564032226E-002
  0.10650000000000001         0.37780739602158370     
  0.10679999999999999         0.78070953889201478     
  0.10710000000000000          1.1196600676135282     
  0.10740000000000001          1.3963018055416145     
  0.10770000000000000          1.6155681100124015     
  0.10800000000000000          1.7844373738050383     
  0.10830000000000001          1.9108838643174713     
  0.10859999999999999          2.0015743612496162     
  0.10890000000000000          2.0613275426770810     
  0.10920000000000001          2.0925422573521781     
  0.10950000000000001          2.0942686455339978     
  0.10979999999999999          2.0633836622277610     
  0.11009999999999999          1.9949110347480568     
  0.11040000000000001          1.8826794170675663     
  0.11070000000000001          1.7213279673629640     
  0.11100000000000000          1.5068199013118184     
  0.11130000000000000          1.2377078988412153     
  0.11160000000000002         0.91648856029930459     
  0.11190000000000001         0.54944636120628487     
  0.11220000000000001         0.14719834950449864     
  0.11250000000000000        -0.27550967246392172     
  0.11280000000000000        -0.70118985032609782     
  0.11309999999999999         -1.1101253542325160     
  0.11340000000000001         -1.4818938438698837     
  0.11369999999999998         -1.7974007917952501     
  0.11400000000000000         -2.0397633008454279     
  0.11430000000000000         -2.1960013861587528     
  0.11460000000000002         -2.2584317703492216     
  0.11489999999999999         -2.2247673037842879     
  0.11520000000000001         -2.0988810964140554     
  0.11550000000000001         -1.8905074216045790     
  0.11580000000000000         -1.6140586829304671     
  0.11609999999999999         -1.2881128144826719     
  0.11640000000000002        -0.93346921553224527     
  0.11670000000000001        -0.57137825404712150     
  0.11700000000000001        -0.22236094589196553     
  0.11730000000000000          9.6047967946216742E-002
  0.11760000000000000         0.37041547005583475     
  0.11789999999999999         0.59206769084904254     
  0.11820000000000001         0.75810490145886356     
  0.11850000000000001         0.87092469869453526     
  0.11880000000000000         0.93765025496679821     
  0.11910000000000000         0.96939932704213250     
  0.11940000000000002         0.97936444975355330     
  0.11970000000000001         0.98143720128596157     
  0.12000000000000001         0.98850380831061346     
  0.12030000000000000          1.0104646026495798     
  0.12060000000000000          1.0532997185951583     
  0.12089999999999999          1.1180693440845102     
  0.12119999999999999          1.2005256943887979     
  0.12150000000000001          1.2918091349422087     
  0.12180000000000001          1.3789620924560650     
  0.12210000000000000          1.4464376485593806     
  0.12239999999999999          1.4781826031025802     
  0.12270000000000002          1.4593050927871880     
  0.12300000000000001          1.3782697112090239     
  0.12330000000000001          1.2286726544728410     
  0.12360000000000000          1.0101464003626517     
  0.12390000000000000         0.72930587268826241     
  0.12419999999999999         0.39950379392460733     
  0.12450000000000001          3.9811415892109597E-002
  0.12480000000000001        -0.32620301774568061     
  0.12509999999999999        -0.67280731667150984     
  0.12540000000000001        -0.97446679059827457     
  0.12570000000000003         -1.2080903609080185     
  0.12600000000000000         -1.3555710896216360     
  0.12630000000000002         -1.4054055779929882     
  0.12659999999999999         -1.3539487635085221     
  0.12690000000000001         -1.2061208907261300     
  0.12719999999999998        -0.97471275934723345     
  0.12750000000000000        -0.67953200694636595     
  0.12780000000000002        -0.34583139413267378     
  0.12809999999999999         -1.8478886228476272E-003
  0.12840000000000001         0.32313397521410031     
  0.12869999999999998         0.60124419305329957     
  0.12900000000000000         0.80827628577393051     
  0.12930000000000003         0.92521136408681692     
  0.12959999999999999         0.93972408105566396     
  0.12990000000000002         0.84685354192103179     
  0.13019999999999998         0.64921293372312394     
  0.13050000000000000         0.35662164534885982     
  0.13080000000000003         -1.4424869192163122E-002
  0.13109999999999999        -0.44182707477804156     
  0.13140000000000002        -0.89930085110898494     
  0.13169999999999998         -1.3575721373390852     
  0.13200000000000001         -1.7861886806853209     
  0.13229999999999997         -2.1551323886643976     
  0.13260000000000000         -2.4361704471487315     
  0.13290000000000002         -2.6049548346670499     
  0.13319999999999999         -2.6421946263938501     
  0.13350000000000001         -2.5350738695396795     
  0.13380000000000003         -2.2789043011564827     
  0.13410000000000000         -1.8772747171321118     
  0.13440000000000002         -1.3428900865111673     
  0.13469999999999999        -0.69773570280276620     
  0.13500000000000001          2.8401264904899293E-002
  0.13529999999999998         0.79843046887066449     
  0.13560000000000000          1.5699456314024209     
  0.13590000000000002          2.2983759323507433     
  0.13619999999999999          2.9385400954070446     
  0.13650000000000001          3.4485291395473032     
  0.13680000000000003          3.7924801408071764     
  0.13710000000000000          3.9425827628141135     
  0.13740000000000002          3.8824240316770275     
  0.13769999999999999          3.6076041707572815     
  0.13800000000000001          3.1266032523403116     
  0.13829999999999998          2.4613359979603340     
  0.13860000000000000          1.6449343658891755     
  0.13890000000000002         0.72068283362292385     
  0.13919999999999999        -0.26047408960672824     
  0.13950000000000001         -1.2439183411907619     
  0.13979999999999998         -2.1737116154156144     
  0.14010000000000000         -2.9966097962396785     
  0.14040000000000002         -3.6656431105735603     
  0.14069999999999999         -4.1420847501806719     
  0.14100000000000001         -4.3987695396315978     
  0.14130000000000004         -4.4212829296013592     
  0.14160000000000000         -4.2085105515949728     
  0.14189999999999997         -3.7734025882709257     
  0.14219999999999999         -3.1414772196339769     
  0.14250000000000002         -2.3496263844441705     
  0.14279999999999998         -1.4441432241084935     
  0.14310000000000000        -0.47734431685570350     
  0.14339999999999997         0.49483149517747543     
  0.14369999999999999          1.4163387371995890     
  0.14400000000000002          2.2347331878002823     
  0.14429999999999998          2.9035242653763724     
  0.14460000000000001          3.3858617547527978     
  0.14490000000000003          3.6565870115094179     
  0.14520000000000000          3.7034584333785778     
  0.14550000000000002          3.5289477062400763     
  0.14579999999999999          3.1493807815508772     
  0.14610000000000001          2.5943022525311439     
  0.14640000000000003          1.9048948774476215     
  0.14670000000000000          1.1304697000344142     
  0.14699999999999996         0.32572691821748839     
  0.14729999999999999        -0.45336154537895301     
  0.14760000000000001         -1.1540872419958148     
  0.14789999999999998         -1.7303416261723739     
  0.14820000000000000         -2.1464506016747205     