  -1.4999999999999999E-002     0.0000000000000000     
  -1.4700000000000000E-002     0.0000000000000000     
  -1.4400000000000000E-002     0.0000000000000000     
  -1.4100000000000000E-002     0.0000000000000000     
  -1.3800000000000000E-002     0.0000000000000000     
  -1.3500000000000000E-002     0.0000000000000000     
  -1.3200000000000000E-002     0.0000000000000000     
  -1.2899999999999998E-002     0.0000000000000000     
  -1.2600000000000000E-002     0.0000000000000000     
  -1.2299999999999998E-002     0.0000000000000000     
  -1.2000000000000000E-002     0.0000000000000000     
  -1.1699999999999999E-002     0.0000000000000000     
  -1.1399999999999999E-002     0.0000000000000000     
  -1.1099999999999999E-002     0.0000000000000000     
  -1.0799999999999999E-002    -3.0978024687854831E-045
  -1.0499999999999999E-002    -5.1713291231309563E-038
  -1.0199999999999999E-002    -6.0950818545941126E-035
  -9.8999999999999991E-003     1.5645941682985236E-033
  -9.5999999999999992E-003    -3.0608824136129765E-032
  -9.2999999999999992E-003     3.3649933371979231E-031
  -8.9999999999999993E-003    -2.6238836073239542E-030
  -8.6999999999999994E-003     1.4455435950785113E-029
  -8.3999999999999995E-003    -5.2480268160467841E-029
  -8.0999999999999996E-003     9.3866058244998327E-029
  -7.7999999999999988E-003     1.6568585544311602E-028
  -7.4999999999999997E-003    -1.8140417324999919E-027
  -7.1999999999999998E-003     7.0788345643694269E-027
  -6.8999999999999981E-003    -1.9348520055730333E-026
  -6.5999999999999982E-003     4.6374059288532881E-026
  -6.3000000000000000E-003    -1.1410291460127852E-025
  -6.0000000000000001E-003     2.4827283624667098E-025
  -5.6999999999999985E-003     3.2977972280155949E-026
  -5.3999999999999986E-003    -5.1052508286619395E-024
  -5.1000000000000004E-003     3.8273315482336130E-023
  -4.7999999999999987E-003    -1.9283139943415582E-022
  -4.5000000000000005E-003     7.7207287526959069E-022
  -4.1999999999999989E-003    -2.6099271731294335E-021
  -3.8999999999999990E-003     7.7014923670703643E-021
  -3.5999999999999990E-003    -2.0287687745254351E-020
  -3.2999999999999991E-003     4.8452942407739353E-020
  -2.9999999999999992E-003    -1.0580272276265834E-019
  -2.6999999999999993E-003     2.1108593822346582E-019
  -2.3999999999999994E-003    -3.7954615188111881E-019
  -2.0999999999999977E-003     5.9368442205156872E-019
  -1.7999999999999995E-003    -7.4103178652875643E-019
  -1.4999999999999979E-003     5.3897523581664543E-019
  -1.1999999999999997E-003     4.2434163948647307E-019
  -8.9999999999999976E-004    -2.2207574254584470E-018
  -5.9999999999999810E-004     3.3327719372539369E-018
  -2.9999999999999992E-004     1.0442041789827764E-018
   0.0000000000000000         -1.8812675361349241E-017
   3.0000000000000165E-004     5.3958884834564248E-017
   5.9999999999999984E-004    -8.8353390153722085E-017
   9.0000000000000149E-004     5.7808690737368846E-017
   1.2000000000000031E-003     1.5166333572781653E-016
   1.5000000000000013E-003    -6.4356896994503120E-016
   1.8000000000000030E-003     1.3557184030176850E-015
   2.1000000000000012E-003    -1.8420143916091502E-015
   2.3999999999999994E-003     1.1063265300354500E-015
   2.7000000000000010E-003     2.3820094372948066E-015
   2.9999999999999992E-003    -1.0452382423103547E-014
   3.3000000000000008E-003     2.4512788523439166E-014
   3.6000000000000025E-003    -4.1956447547190522E-014
   3.9000000000000007E-003     4.1102932524171388E-014
   4.2000000000000023E-003     6.0241216996367320E-014
   4.5000000000000005E-003    -4.6941480963528044E-013
   4.7999999999999987E-003     1.5216097323549140E-012
   5.1000000000000004E-003    -3.4243833202580667E-012
   5.4000000000000020E-003     5.6328856525112114E-012
   5.7000000000000037E-003    -6.1138892753112331E-012
   5.9999999999999984E-003     1.6471984723429886E-014
   6.3000000000000000E-003     2.8331441891438535E-011
   6.6000000000000017E-003    -1.3590541929990728E-010
   6.9000000000000034E-003     4.6695685542316612E-010
   7.2000000000000015E-003    -1.1194927355078348E-009
   7.5000000000000032E-003     1.1735250756450055E-009
   7.8000000000000014E-003     3.4525910890131624E-009
   8.0999999999999996E-003    -1.8304210153893717E-008
   8.4000000000000012E-003     2.9708368224966576E-008
   8.7000000000000029E-003     2.7829388256353170E-008
   9.0000000000000011E-003    -1.9412164166785027E-007
   9.2999999999999992E-003     1.7781700262704165E-007
   9.6000000000000009E-003     5.4714731350523643E-007
   9.8999999999999991E-003    -1.1092573045192389E-006
   1.0200000000000001E-002    -1.2656980007374542E-006
   1.0500000000000002E-002     3.4933384072937631E-006
   1.0800000000000004E-002     3.9617407078899344E-006
   1.1099999999999999E-002    -7.9501587003777143E-006
   1.1400000000000000E-002    -1.6034805099678076E-005
   1.1700000000000002E-002     1.1823327969454061E-005
   1.2000000000000004E-002     8.8770438533425345E-005
   1.2300000000000002E-002     1.9462639839663872E-004
   1.2600000000000000E-002     3.0777889227350040E-004
   1.2900000000000002E-002     4.3914351528756996E-004
   1.3200000000000000E-002     6.3299272435655800E-004
   1.3500000000000002E-002     9.5666725510823740E-004
   1.3800000000000003E-002     1.4861127397847694E-003
   1.4100000000000001E-002     2.2968671241704614E-003
   1.4400000000000000E-002     3.4857926141741991E-003
   1.4700000000000001E-002     5.1979064976405854E-003
   1.4999999999999999E-002     7.6319995817349740E-003
   1.5300000000000001E-002     1.1047056148926565E-002
   1.5600000000000003E-002     1.5773183026774301E-002
   1.5899999999999997E-002     2.2206837723144909E-002
   1.6199999999999999E-002     3.0793900241215331E-002
   1.6500000000000001E-002     4.2017378691458072E-002
   1.6800000000000002E-002     5.6391579212467742E-002
   1.7100000000000004E-002     7.4421630689289156E-002
   1.7400000000000006E-002     9.6503863038098783E-002
   1.7700000000000000E-002    0.12282976735937891     
   1.8000000000000002E-002    0.15330894575760609     
   1.8300000000000004E-002    0.18741472413225116     
   1.8600000000000005E-002    0.22400694011347227     
   1.8900000000000000E-002    0.26117289551576012     
   1.9200000000000002E-002    0.29607821061455730     
   1.9500000000000003E-002    0.32488442072173523     
   1.9799999999999998E-002    0.34271252794394802     
   2.0100000000000000E-002    0.34371209786916151     
   2.0400000000000001E-002    0.32129067784800813     
   2.0700000000000003E-002    0.26844111590881509     
   2.0999999999999998E-002    0.17828086359099476     
   2.1299999999999999E-002     4.4766877790669721E-002
   2.1600000000000001E-002   -0.13649887087322968     
   2.1900000000000003E-002   -0.36729500366500994     
   2.2200000000000004E-002   -0.64588857883766049     
   2.2500000000000006E-002   -0.96622474784923151     
   2.2800000000000001E-002    -1.3173289542955933     
   2.3100000000000002E-002    -1.6831583097110812     
   2.3400000000000004E-002    -2.0426392935259665     
   2.3699999999999999E-002    -2.3705709422485062     
   2.4000000000000000E-002    -2.6389003292873636     
   2.4300000000000002E-002    -2.8185124924776610     
   2.4599999999999997E-002    -2.8817315642061101     
   2.4900000000000005E-002    -2.8045452168282998     
   2.5200000000000000E-002    -2.5694039352318323     
   2.5499999999999995E-002    -2.1673782281996616     
   2.5800000000000003E-002    -1.6001540727332386     
   2.6099999999999998E-002   -0.88114555397827499     
   2.6400000000000007E-002    -3.5501384507674864E-002
   2.6700000000000002E-002    0.90055121620494261     
   2.6999999999999996E-002     1.8818455089824104     
   2.7300000000000005E-002     2.8571646744614596     
   2.7600000000000000E-002     3.7725666273258778     
   2.7900000000000008E-002     4.5756460092116420     
   2.8200000000000003E-002     5.2192755723666959     
   2.8499999999999998E-002     5.6651350131080864     
   2.8800000000000006E-002     5.8870927009712259     
   2.9100000000000001E-002     5.8725315245134455     
   2.9400000000000003E-002     5.6235128508040226     
   2.9700000000000004E-002     5.1564632433876270     
   3.0000000000000006E-002     4.4998951807014738     
   3.0300000000000001E-002     3.6927641135117537     
   3.0600000000000002E-002     2.7804010439611808     
   3.0900000000000004E-002     1.8111118420821735     
   3.1199999999999999E-002    0.83302255064302444     
   3.1500000000000007E-002   -0.11037919126666357     
   3.1800000000000002E-002   -0.98216785848001664     
   3.2099999999999997E-002    -1.7542640301414567     
   3.2400000000000005E-002    -2.4088988758306602     
   3.2700000000000000E-002    -2.9382069664820896     
   3.3000000000000002E-002    -3.3440104161149189     
   3.3300000000000003E-002    -3.6362994402043043     
   3.3599999999999998E-002    -3.8307116752427577     
   3.3900000000000000E-002    -3.9465313699313072     
   3.4200000000000001E-002    -4.0036388194583399     
   3.4500000000000003E-002    -4.0202170171042875     
   3.4799999999999998E-002    -4.0102115426768190     
   3.5099999999999999E-002    -3.9817651060697852     
   3.5400000000000001E-002    -3.9359894531546740     
   3.5699999999999996E-002    -3.8664885286210326     
   3.6000000000000004E-002    -3.7604561550845528     
   3.6299999999999999E-002    -3.5994508935551512     
   3.6600000000000008E-002    -3.3620389133760895     
   3.6900000000000002E-002    -3.0264971821323190     
   3.7199999999999997E-002    -2.5734038836015540     
   3.7500000000000006E-002    -1.9896498103513205     
   3.7800000000000000E-002    -1.2706785448097331     
   3.8100000000000009E-002   -0.42295003848621149     
   3.8400000000000004E-002    0.53430051457236116     
   3.8699999999999998E-002     1.5689832247518329     
   3.9000000000000007E-002     2.6373911377343675     
   3.9300000000000002E-002     3.6860860063009389     
   3.9600000000000003E-002     4.6553245441760902     
   3.9900000000000005E-002     5.4835415894442434     
   4.0200000000000000E-002     6.1114050086824774     
   4.0500000000000001E-002     6.4877892744796162     
   4.0800000000000003E-002     6.5737978254038536     
   4.1100000000000005E-002     6.3460766075374995     
   4.1399999999999999E-002     5.8010321758910246     
   4.1700000000000008E-002     4.9540444364643905     
   4.2000000000000003E-002     3.8408005980552415     
   4.2299999999999997E-002     2.5153129601814386     
   4.2600000000000006E-002     1.0452302925660502     
   4.2900000000000001E-002   -0.49014005586756404     
   4.3200000000000002E-002    -2.0071878767197808     
   4.3500000000000004E-002    -3.4228358867087603     
   4.3799999999999999E-002    -4.6590600845291394     
   4.4100000000000000E-002    -5.6502433843866164     
   4.4400000000000002E-002    -6.3452349865502216     
   4.4700000000000004E-002    -6.7116557400366084     
   4.4999999999999998E-002    -6.7386075313042593     
   4.5300000000000000E-002    -6.4348498591347862     
   4.5600000000000002E-002    -5.8301573898404060     
   4.5899999999999996E-002    -4.9719797130256191     
   4.6200000000000005E-002    -3.9216669369985868     
   4.6500000000000000E-002    -2.7508612234343692     
   4.6799999999999994E-002    -1.5358331540119459     
   4.7100000000000003E-002   -0.35284121064546131     
   4.7399999999999998E-002    0.72771186392589138     
   4.7700000000000006E-002     1.6448854453407615     
   4.8000000000000001E-002     2.3525357625003638     
   4.8300000000000010E-002     2.8212078087314714     
   4.8600000000000004E-002     3.0395663301296012     
   4.8899999999999999E-002     3.0160496755296293     
   4.9200000000000008E-002     2.7752140054218875     
   4.9500000000000002E-002     2.3580415669054409     
   4.9800000000000011E-002     1.8169622753655696     
   5.0100000000000006E-002     1.2100391621978848     
   5.0400000000000000E-002    0.59935159844011188     
   5.0700000000000009E-002     4.2143614082947464E-002
   5.1000000000000004E-002   -0.41198882676314358     
   5.1299999999999998E-002   -0.72472721988467859     
   5.1600000000000007E-002   -0.87495959591424877     
   5.1900000000000002E-002   -0.85640890034147044     
   5.2200000000000010E-002   -0.68067425691873151     
   5.2500000000000005E-002   -0.37489223042955533     
   5.2800000000000000E-002     2.3340501779111390E-002
   5.3099999999999994E-002    0.46766628854304204     
   5.3400000000000003E-002    0.91049900452470434     
   5.3699999999999998E-002     1.3077751738965167     
   5.4000000000000006E-002     1.6240178730548800     
   5.4300000000000001E-002     1.8373860524142085     
   5.4599999999999996E-002     1.9415122669581142     
   5.4900000000000004E-002     1.9473350421585884     
   5.5199999999999999E-002     1.8810949659069125     
   5.5499999999999994E-002     1.7824423600090360     
   5.5800000000000002E-002     1.6979302411793251     
   5.6099999999999997E-002     1.6757217860479046     
   5.6400000000000006E-002     1.7603726595194256     
   5.6700000000000000E-002     1.9835877650075682     
   5.6999999999999995E-002     2.3623059083758249     
   5.7300000000000004E-002     2.8928990740649461     
   5.7599999999999998E-002     3.5496426122421298     
   5.7900000000000007E-002     4.2885780964524072     
   5.8200000000000002E-002     5.0472842037086094     
   5.8499999999999996E-002     5.7524753529162114     
   5.8800000000000005E-002     6.3261228636261917     
   5.9100000000000000E-002     6.6910148776291054     
   5.9400000000000008E-002     6.7811189839235402     
   5.9700000000000003E-002     6.5448304337773235     
   6.0000000000000012E-002     5.9508634638169529     
   6.0300000000000006E-002     4.9917231474007409     
   6.0600000000000001E-002     3.6827936820681852     
   6.0900000000000010E-002     2.0623433961900233     
   6.1200000000000004E-002    0.18745719395754257     
   6.1500000000000013E-002    -1.8690651960103306     
   6.1800000000000008E-002    -4.0250035010128498     
   6.2100000000000002E-002    -6.1943346122759460     
   6.2399999999999997E-002    -8.2900392039932225     
   6.2700000000000006E-002    -10.231414016178196     
   6.3000000000000000E-002    -11.945789541466810     
   6.3300000000000009E-002    -13.370599975284916     
   6.3600000000000004E-002    -14.456421145239764     
   6.3899999999999998E-002    -15.164462347993011     
   6.4199999999999993E-002    -15.469804073210772     
   6.4500000000000002E-002    -15.359361909089950     
   6.4800000000000010E-002    -14.829563391776857     
   6.5100000000000005E-002    -13.889428373090835     
   6.5400000000000000E-002    -12.555808278692568     
   6.5700000000000008E-002    -10.857052985562181     
   6.5999999999999989E-002    -8.8324376637339963     
   6.6299999999999998E-002    -6.5295005946852047     
   6.6600000000000006E-002    -4.0087538452101699     
   6.6900000000000001E-002    -1.3393653881556562     
   6.7199999999999996E-002     1.3989112571588529     
   6.7500000000000004E-002     4.1186528840333869     
   6.7800000000000013E-002     6.7275391680523580     
   6.8099999999999994E-002     9.1300927652848998     
   6.8400000000000002E-002     11.234923541357219     
   6.8700000000000011E-002     12.955127923063367     
   6.8999999999999992E-002     14.217978705826679     
   6.9300000000000000E-002     14.967424634576471     
   6.9600000000000009E-002     15.168015727096940     
   6.9900000000000004E-002     14.811389212990253     
   7.0199999999999999E-002     13.914247744496175     
   7.0500000000000007E-002     12.522626135121968     
   7.0800000000000016E-002     10.708951181694701     
   7.1099999999999997E-002     8.5668927770672241     
   7.1400000000000005E-002     6.2121759632036611     
   7.1700000000000000E-002     3.7701388196146834     
   7.1999999999999995E-002     1.3712194376973650     
   7.2300000000000003E-002   -0.85497331106667440     
   7.2600000000000012E-002    -2.7921636372560670     
   7.2900000000000006E-002    -4.3401175076157505     
   7.3200000000000001E-002    -5.4246946105024163     
   7.3499999999999996E-002    -6.0013681295742387     
   7.3800000000000004E-002    -6.0571399604563210     
   7.4099999999999999E-002    -5.6148720608111553     
   7.4400000000000008E-002    -4.7279902202921065     
   7.4700000000000003E-002    -3.4804480591142730     
   7.5000000000000011E-002    -1.9794968654527121     
   7.5299999999999992E-002   -0.34819502002155261     
   7.5600000000000001E-002     1.2822602014154594     
   7.5900000000000009E-002     2.7842996575846168     
   7.6200000000000004E-002     4.0391240774582080     
   7.6499999999999999E-002     4.9504533613220971     
   7.6800000000000007E-002     5.4488621634966643     
   7.7099999999999988E-002     5.4965353893880300     
   7.7399999999999997E-002     5.0943141795619500     
   7.7700000000000005E-002     4.2756353098600108     
   7.8000000000000014E-002     3.1076617719182926     
   7.8299999999999995E-002     1.6850877047302337     
   7.8600000000000003E-002    0.11808724473003974     
   7.8900000000000012E-002    -1.4700761130354025     
   7.9199999999999993E-002    -2.9607391896363100     
   7.9500000000000001E-002    -4.2476845541294201     
   7.9800000000000010E-002    -5.2431040730781193     
   8.0100000000000018E-002    -5.8914519384537085     
   8.0399999999999999E-002    -6.1666365743368514     
   8.0700000000000008E-002    -6.0773097142580923     
   8.1000000000000003E-002    -5.6657916103637156     
   8.1299999999999997E-002    -4.9989968222941226     
   8.1600000000000006E-002    -4.1635847829601875     
   8.1900000000000014E-002    -3.2554786793061479     
   8.2199999999999995E-002    -2.3701200928469173     
   8.2500000000000004E-002    -1.5934337695777645     
   8.2799999999999999E-002   -0.99237778041262548     
   8.3100000000000007E-002   -0.61002840282479243     
   8.3400000000000002E-002   -0.46230615689241350     
   8.3700000000000011E-002   -0.53878559387985514     
   8.4000000000000005E-002   -0.80405404401882552     
   8.4300000000000000E-002    -1.2058838900219964     
   8.4599999999999995E-002    -1.6808120388717012     
   8.4900000000000003E-002    -2.1603208045814033     
   8.5199999999999998E-002    -2.5837581683746573     
   8.5500000000000007E-002    -2.8989549257627143     
   8.5800000000000001E-002    -3.0701242090338745     
   8.6100000000000010E-002    -3.0810793036512560     
   8.6399999999999991E-002    -2.9299901088321203     
   8.6699999999999999E-002    -2.6350784799647551     
   8.7000000000000008E-002    -2.2255750122264732     
   8.7300000000000003E-002    -1.7374880643932034     
   8.7599999999999997E-002    -1.2127223248318011     
   8.7900000000000006E-002   -0.68749983503350887     
   8.8200000000000014E-002   -0.19509244459862288     
   8.8499999999999995E-002    0.23977789579164335     
   8.8800000000000004E-002    0.60423923496681886     
   8.9100000000000013E-002    0.89387889210953209     
   8.9399999999999993E-002     1.1155275297504996     
   8.9700000000000002E-002     1.2826569303570707     
   9.0000000000000011E-002     1.4145626079369713     
   9.0299999999999991E-002     1.5333951985947518     
   9.0600000000000000E-002     1.6603944603037473     
   9.0900000000000009E-002     1.8154543972594581     
   9.1200000000000017E-002     2.0119614978043763     
   9.1499999999999998E-002     2.2582538557834888     
   9.1800000000000007E-002     2.5534759061645760     
   9.2100000000000001E-002     2.8898823828542790     
   9.2399999999999996E-002     3.2548545052705729     
   9.2700000000000005E-002     3.6276772749367483     
   9.3000000000000013E-002     3.9903565257598452     
   9.3300000000000008E-002     4.3234849850027048     
   9.3600000000000003E-002     4.6110053994873974     
   9.3899999999999997E-002     4.8476892494047608     
   9.4200000000000006E-002     5.0324603135162658     
   9.4500000000000001E-002     5.1751681403601815     
   9.4800000000000009E-002     5.2917743773561092     
   9.5100000000000004E-002     5.3986698257309369     
   9.5399999999999999E-002     5.5157471784241245     
   9.5699999999999993E-002     5.6532989660343427     
   9.6000000000000002E-002     5.8115092478782282     
   9.6300000000000011E-002     5.9786931290007956     
   9.6600000000000005E-002     6.1254054375289275     
   9.6900000000000000E-002     6.2115575187495171     
   9.7200000000000009E-002     6.1871372596756453     
   9.7499999999999989E-002     5.9997846010749880     
   9.7799999999999998E-002     5.6038476288726606     
   9.8100000000000007E-002     4.9667683777874725     
   9.8400000000000015E-002     4.0776401511283069     
   9.8699999999999996E-002     2.9508739217709943     
   9.9000000000000005E-002     1.6267779277537164     
   9.9300000000000013E-002    0.16555980596177769     
   9.9599999999999994E-002    -1.3563955097717282     
   9.9900000000000003E-002    -2.8611066942452346     
  0.10020000000000001         -4.2828522633798984     
  0.10049999999999999         -5.5763045525234096     
  0.10080000000000000         -6.7324248743734110     
  0.10110000000000001         -7.7802349694803450     
  0.10140000000000000         -8.7850009720997502     
  0.10170000000000000         -9.8474952654991323     
  0.10200000000000001         -11.080994811599608     
  0.10230000000000002         -12.598260157607237     
  0.10260000000000000         -14.488267212592111     
  0.10290000000000001         -16.786363917084703     
  0.10320000000000000         -19.464538948957703     
  0.10350000000000001         -22.410368409468038     
  0.10380000000000000         -25.423225921124963     
  0.10410000000000001         -28.223854656619860     
  0.10440000000000001         -30.466063201552245     
  0.10470000000000000         -31.769776091779956     
  0.10500000000000000         -31.755627396624902     
  0.10530000000000000         -30.086025935990026     
  0.10560000000000000         -26.507982887639940     
  0.10590000000000001         -20.892210527723275     
  0.10620000000000000         -13.262359978891592     
  0.10650000000000001         -3.8113524065581026     
  0.10679999999999999          7.0946722926012624     
  0.10710000000000000          18.933340430341971     
  0.10740000000000001          31.057383219356428     
  0.10770000000000000          42.734501791625803     
  0.10800000000000000          53.211934288067638     
  0.10830000000000001          61.767037792900517     
  0.10859999999999999          67.770593235943451     
  0.10890000000000000          70.745362903715090     
  0.10920000000000001          70.393914843605231     
  0.10950000000000001          66.641511504485919     
  0.10979999999999999          59.633412746798584     
  0.11009999999999999          49.724965258841671     
  0.11040000000000001          37.464997177937605     
  0.11070000000000001          23.537350225961273     
  0.11100000000000000          8.7246610635245556     
  0.11130000000000000         -6.1559020547394709     
  0.11160000000000002         -20.314461218611481     
  0.11190000000000001         -33.028553757727920     
  0.11220000000000001         -43.700345071290094     
  0.11250000000000000         -51.883027287886193     
  0.11280000000000000         -57.297318785564386     
  0.11309999999999999         -59.844087024478085     
  0.11340000000000001         -59.589799291967857     
  0.11369999999999998         -56.753232296282995     
  0.11400000000000000         -51.677975828408179     
  0.11430000000000000         -44.800240530931262     
  0.11460000000000002         -36.614426439676691     
  0.11489999999999999         -27.636601071462774     
  0.11520000000000001         -18.378233324945636     
  0.11550000000000001         -9.3104774238895107     
  0.11580000000000000        -0.84943823054395085     
  0.11609999999999999          6.6655036854613838     
  0.11640000000000002          12.984982809972877     
  0.11670000000000001          17.945833630275565     
  0.11700000000000001          21.481030006585854     
  0.11730000000000000          23.602129518683949     
  0.11760000000000000          24.396059582921417     
  0.11789999999999999          24.013504559380035     
  0.11820000000000001          22.643417852654348     
  0.11850000000000001          20.508436644155005     
  0.11880000000000000          17.837667842467717     
  0.11910000000000000          14.855360338857837     
  0.11940000000000002          11.769781349808845     
  0.11970000000000001          8.7565995958223670     
  0.12000000000000001          5.9591466075138664     
  0.12030000000000000          3.4791844433981698     
  0.12060000000000000          1.3806356291382336     
  0.12089999999999999        -0.30764725300045814     
  0.12119999999999999         -1.5896748805490191     
  0.12150000000000001         -2.4894345476944659     
  0.12180000000000001         -3.0501812269362452     
  0.12210000000000000         -3.3226407372845634     
  0.12239999999999999         -3.3612857649487045     
  0.12270000000000002         -3.2217217225344359     
  0.12300000000000001         -2.9516506853527749     
  0.12330000000000001         -2.5967686743318783     
  0.12360000000000000         -2.1942325105937956     
  0.12390000000000000         -1.7745985160024977     
  0.12419999999999999         -1.3655920299224358     
  0.12450000000000001        -0.98599870838812131     
  0.12480000000000001        -0.65251077286408765     
  0.12509999999999999        -0.37662500583616648     
  0.12540000000000001        -0.16384766983930540     
  0.12570000000000003         -1.7973017540922537E-002
  0.12600000000000000          6.5355446976641807E-002
  0.12630000000000002          9.1005657700286943E-002
  0.12659999999999999          6.9169509935563117E-002
  0.12690000000000001          1.3157355354329858E-002
  0.12719999999999998         -6.5618768920297221E-002
  0.12750000000000000        -0.15251075029760519     
  0.12780000000000002        -0.23797554286994826     
  0.12809999999999999        -0.31233379927778049     
  0.12840000000000001        -0.37092144108258629     
  0.12869999999999998        -0.41327694936520415     
  0.12900000000000000        -0.43781200963970607     
  0.12930000000000003        -0.45057023477260655     
  0.12959999999999999        -0.45450738959327552     
  0.12990000000000002        -0.45390273013063753     
  0.13019999999999998        -0.45412520427564046     
  0.13050000000000000        -0.45379195481766971     
  0.13080000000000003        -0.45550549905230775     
  0.13109999999999999        -0.45589760840802379     
  0.13140000000000002        -0.45109284837613467     
  0.13169999999999998        -0.44025729011444642     
  0.13200000000000001        -0.41775692388932395     
  0.13229999999999997        -0.38398457390029839     
  0.13260000000000000        -0.33831591131430805     
  0.13290000000000002        -0.28191894886760405     
  0.13319999999999999        -0.22091167114753174     
  0.13350000000000001        -0.15759398335938266     
  0.13380000000000003         -9.9852541084691784E-002
  0.13410000000000000         -5.2033678001179667E-002
  0.13440000000000002         -1.7047049052274759E-002
  0.13469999999999999          1.5511875464992917E-003
  0.13500000000000001          7.4488188636081757E-003
  0.13529999999999998          9.3904655248410959E-004
  0.13560000000000000         -1.1999369648976611E-002
  0.13590000000000002         -2.4728513067616618E-002
  0.13619999999999999         -3.4664330170020345E-002
  0.13650000000000001         -3.4029902241015056E-002
  0.13680000000000003         -2.2358144708443349E-002
  0.13710000000000000         -6.4217934862498665E-005
  0.13740000000000002          3.1952724272609458E-002
  0.13769999999999999          6.4946131389383516E-002
  0.13800000000000001          9.5158594249569559E-002
  0.13829999999999998         0.11478233639507829     
  0.13860000000000000         0.11737065345954902     
  0.13890000000000002         0.10223999167480316     
  0.13919999999999999          6.7883851211431298E-002
  0.13950000000000001          1.8435847747505552E-002
  0.13979999999999998         -3.8817473639304281E-002
  0.14010000000000000         -9.4492132510699975E-002
  0.14040000000000002        -0.13846250264139726     
  0.14069999999999999        -0.16019238998085225     
  0.14100000000000001        -0.15341379219433268     
  0.14130000000000004        -0.11670511595180121     
  0.14160000000000000         -4.9325099548014013E-002
  0.14189999999999997          3.8684860011463706E-002
  0.14219999999999999         0.13726721991065047     
  0.14250000000000002         0.23516129494938770     
  0.14279999999999998         0.31362561167244191     
  0.14310000000000000         0.36510158499191575     
  0.14339999999999997         0.37765867471047576     
  0.14369999999999999         0.34656927881487104     
  0.14400000000000002         0.28018168311984820     
  0.14429999999999998         0.18152682920196966     
  0.14460000000000001          6.7671553572908300E-002
  0.14490000000000003         -4.2567672332235865E-002
  0.14520000000000000        -0.13703099343592606     
  0.14550000000000002        -0.19505905244719132     
  0.14579999999999999        -0.20772815432158495     
  0.14610000000000001        -0.17218107565420074     
  0.14640000000000003         -8.8647086146324924E-002
  0.14670000000000000          2.7789249584299257E-002
  0.14699999999999996         0.16189071873887056     
  0.14729999999999999         0.29301459303089450     
  0.14760000000000001         0.39625478807068470     
  0.14789999999999998         0.45366988791596480     
  0.14820000000000000         0.45224849611885903     