  -1.4999999999999999E-002     0.0000000000000000     
  -1.4700000000000000E-002     0.0000000000000000     
  -1.4400000000000000E-002     0.0000000000000000     
  -1.4100000000000000E-002     1.1552686423370183E-044
  -1.3800000000000000E-002    -1.0610713342233651E-033
  -1.3500000000000000E-002    -1.2752388287608442E-031
  -1.3200000000000000E-002    -5.6404067497397972E-030
  -1.2899999999999998E-002     2.1638626546086451E-028
  -1.2600000000000000E-002     1.9906185011119421E-027
  -1.2299999999999998E-002    -1.9228129677697645E-026
  -1.2000000000000000E-002    -1.4800198340608220E-025
  -1.1699999999999999E-002    -2.6945651412417994E-025
  -1.1399999999999999E-002     2.7387650959085381E-023
  -1.1099999999999999E-002    -2.6222658922294638E-022
  -1.0799999999999999E-002     5.8967977064911839E-022
  -1.0499999999999999E-002     1.2263627591616228E-020
  -1.0199999999999999E-002    -1.3322878398130117E-019
  -9.8999999999999991E-003     5.6561645550648237E-019
  -9.5999999999999992E-003    -6.5511553313280747E-019
  -9.2999999999999992E-003    -4.7955683900910077E-018
  -8.9999999999999993E-003     3.1230434295677608E-017
  -8.6999999999999994E-003    -1.0626479224434076E-016
  -8.3999999999999995E-003     2.5023591806549434E-016
  -8.0999999999999996E-003    -3.9615733954488430E-016
  -7.7999999999999988E-003     2.8206626824998041E-016
  -7.4999999999999997E-003     5.0639998809574855E-016
  -7.1999999999999998E-003    -2.3837998675492433E-015
  -6.8999999999999981E-003     5.1513083564107901E-015
  -6.5999999999999982E-003    -5.2660149626424076E-015
  -6.3000000000000000E-003    -3.1617871995941580E-015
  -6.0000000000000001E-003     4.3140058615146169E-015
  -5.6999999999999985E-003     7.4348740511510947E-014
  -5.3999999999999986E-003    -3.1056319956218939E-013
  -5.1000000000000004E-003     5.3659587993595403E-013
  -4.7999999999999987E-003     1.5161349693828879E-014
  -4.5000000000000005E-003    -2.5075361031236725E-012
  -4.1999999999999989E-003     6.6247457029693635E-012
  -3.8999999999999990E-003    -7.5963385729300374E-012
  -3.5999999999999990E-003    -3.0836251171903522E-012
  -3.2999999999999991E-003     2.7713427528850232E-011
  -2.9999999999999992E-003    -4.8041772574529919E-011
  -2.6999999999999993E-003     2.7749048722019901E-011
  -2.3999999999999994E-003     5.0322963460003654E-011
  -2.0999999999999977E-003    -1.3749271702216422E-010
  -1.7999999999999995E-003     1.2875672841917778E-010
  -1.4999999999999979E-003     4.2976593849029678E-011
  -1.1999999999999997E-003    -2.9499320827030109E-010
  -8.9999999999999976E-004     3.9352936695548614E-010
  -5.9999999999999810E-004    -1.4455729444556442E-010
  -2.9999999999999992E-004    -3.4430440481428014E-010
   0.0000000000000000          6.5725530420440687E-010
   3.0000000000000165E-004    -5.1385747955528668E-010
   5.9999999999999984E-004     2.9370842102813779E-010
   9.0000000000000149E-004    -6.5820218008488099E-010
   1.2000000000000031E-003     8.4153064589125492E-010
   1.5000000000000013E-003     1.9920547507438374E-009
   1.8000000000000030E-003    -8.4289222509037707E-009
   2.1000000000000012E-003     1.1086465223226105E-008
   2.3999999999999994E-003     2.2174040452353579E-010
   2.7000000000000010E-003    -2.8380966805875706E-008
   2.9999999999999992E-003     7.2769742210161328E-008
   3.3000000000000008E-003    -7.8166480045800773E-008
   3.6000000000000025E-003    -1.7397785249024731E-007
   3.9000000000000007E-003     6.2820180456160154E-007
   4.2000000000000023E-003     5.5417034755771126E-008
   4.5000000000000005E-003    -2.4582320917252187E-006
   4.7999999999999987E-003     1.3646934264606726E-007
   5.1000000000000004E-003     7.6295240086305739E-006
   5.4000000000000020E-003     1.8758067787370109E-006
   5.7000000000000037E-003    -1.9893935803051814E-005
   5.9999999999999984E-003    -1.3945170155537864E-005
   6.3000000000000000E-003     5.3953032392716063E-005
   6.6000000000000017E-003     1.3635280755613068E-004
   6.9000000000000034E-003     1.7063808840174415E-004
   7.2000000000000015E-003     1.9774382009163174E-004
   7.5000000000000032E-003     3.2201068492074779E-004
   7.8000000000000014E-003     5.7852986538052163E-004
   8.0999999999999996E-003     9.2630029684564585E-004
   8.4000000000000012E-003     1.3717502101419771E-003
   8.7000000000000029E-003     2.0342949669615450E-003
   9.0000000000000011E-003     3.0657531491478582E-003
   9.2999999999999992E-003     4.5800811501170375E-003
   9.6000000000000009E-003     6.7055078774464179E-003
   9.8999999999999991E-003     9.6623127817179848E-003
   1.0200000000000001E-002     1.3755534285968594E-002
   1.0500000000000002E-002     1.9294718862524110E-002
   1.0800000000000004E-002     2.6620455823951714E-002
   1.1099999999999999E-002     3.6199786688017987E-002
   1.1400000000000000E-002     4.8527025817364802E-002
   1.1700000000000002E-002     6.3978814932829600E-002
   1.2000000000000004E-002     8.2885885271014217E-002
   1.2300000000000002E-002    0.10559507624814288     
   1.2600000000000000E-002    0.13224762850348087     
   1.2900000000000002E-002    0.16251771317547667     
   1.3200000000000000E-002    0.19566106932266525     
   1.3500000000000002E-002    0.23059742231614291     
   1.3800000000000003E-002    0.26563113918743397     
   1.4100000000000001E-002    0.29817452890046486     
   1.4400000000000000E-002    0.32488077566385032     
   1.4700000000000001E-002    0.34182717858218292     
   1.4999999999999999E-002    0.34457649972408566     
   1.5300000000000001E-002    0.32825063542550997     
   1.5600000000000003E-002    0.28787280657081504     
   1.5899999999999997E-002    0.21899884635170994     
   1.6199999999999999E-002    0.11805855603856315     
   1.6500000000000001E-002    -1.7138843942821148E-002
   1.6800000000000002E-002   -0.18674921564682553     
   1.7100000000000004E-002   -0.38825800631675494     
   1.7400000000000006E-002   -0.61625554640751301     
   1.7700000000000000E-002   -0.86238445975488198     
   1.8000000000000002E-002    -1.1152677691925903     
   1.8300000000000004E-002    -1.3609560804388467     
   1.8600000000000005E-002    -1.5834875081444622     
   1.8900000000000000E-002    -1.7659380289867173     
   1.9200000000000002E-002    -1.8918883520345067     
   1.9500000000000003E-002    -1.9465291080050464     
   1.9799999999999998E-002    -1.9181790987422689     
   2.0100000000000000E-002    -1.7994920527944984     
   2.0400000000000001E-002    -1.5885881598903944     
   2.0700000000000003E-002    -1.2897371401412410     
   2.0999999999999998E-002   -0.91329804316914842     
   2.1299999999999999E-002   -0.47596124298575593     
   2.1600000000000001E-002     6.5030066172177777E-004
   2.1900000000000003E-002    0.49084458315051538     
   2.2200000000000004E-002    0.96659545996195861     
   2.2500000000000006E-002     1.3995367573614408     
   2.2800000000000001E-002     1.7628256140884322     
   2.3100000000000002E-002     2.0331730662874241     
   2.3400000000000004E-002     2.1919741215061657     
   2.3699999999999999E-002     2.2275206408829340     
   2.4000000000000000E-002     2.1355818881518096     
   2.4300000000000002E-002     1.9198332061438159     
   2.4599999999999997E-002     1.5920395990442009     
   2.4900000000000005E-002     1.1711553443849116     
   2.5200000000000000E-002    0.68399830079587420     
   2.5499999999999995E-002    0.16248496730014994     
   2.5800000000000003E-002   -0.35777141792404493     
   2.6099999999999998E-002   -0.83844155243755247     
   2.6400000000000007E-002    -1.2415939952603281     
   2.6700000000000002E-002    -1.5310677422812298     
   2.6999999999999996E-002    -1.6755910990806568     
   2.7300000000000005E-002    -1.6507347461785080     
   2.7600000000000000E-002    -1.4403178122376630     
   2.7900000000000008E-002    -1.0386498434000779     
   2.8200000000000003E-002   -0.45088306637786535     
   2.8499999999999998E-002    0.30580892961021122     
   2.8800000000000006E-002     1.2032105569065616     
   2.9100000000000001E-002     2.2035179868469053     
   2.9400000000000003E-002     3.2605932313725390     
   2.9700000000000004E-002     4.3225770317776187     
   3.0000000000000006E-002     5.3347506565488478     
   3.0300000000000001E-002     6.2428412173563306     
   3.0600000000000002E-002     6.9950498955323424     
   3.0900000000000004E-002     7.5451249191972076     
   3.1199999999999999E-002     7.8547772201155235     
   3.1500000000000007E-002     7.8945725958152302     
   3.1800000000000002E-002     7.6459868778382036     
   3.2099999999999997E-002     7.1011913546250360     
   3.2400000000000005E-002     6.2635439140215565     
   3.2700000000000000E-002     5.1476205144987768     
   3.3000000000000002E-002     3.7774890343737098     
   3.3300000000000003E-002     2.1877657051140202     
   3.3599999999999998E-002    0.42080132468919179     
   3.3900000000000000E-002    -1.4741340444031570     
   3.4200000000000001E-002    -3.4410191001643091     
   3.4500000000000003E-002    -5.4208493283791892     
   3.4799999999999998E-002    -7.3522843979034462     
   3.5099999999999999E-002    -9.1741942627181334     
   3.5400000000000001E-002    -10.828856355150783     
   3.5699999999999996E-002    -12.262832489047415     
   3.6000000000000004E-002    -13.429944800901394     
   3.6299999999999999E-002    -14.293824921409684     
   3.6600000000000008E-002    -14.827523922494564     
   3.6900000000000002E-002    -15.014571849680216     
   3.7199999999999997E-002    -14.849843658616578     
   3.7500000000000006E-002    -14.336700098965066     
   3.7800000000000000E-002    -13.487660055231244     
   3.8100000000000009E-002    -12.322855594349585     
   3.8400000000000004E-002    -10.867191922744048     
   3.8699999999999998E-002    -9.1513764014354528     
   3.9000000000000007E-002    -7.2090308194022850     
   3.9300000000000002E-002    -5.0785949277427482     
   3.9600000000000003E-002    -2.8037176842618368     
   3.9900000000000005E-002   -0.43107834546575929     
   4.0200000000000000E-002     1.9845898145961591     
   4.0500000000000001E-002     4.3839620582028802     
   4.0800000000000003E-002     6.7025731056552713     
   4.1100000000000005E-002     8.8697783445853151     
   4.1399999999999999E-002     10.814454657188000     
   4.1700000000000008E-002     12.466145066936173     
   4.2000000000000003E-002     13.759177657546998     
   4.2299999999999997E-002     14.638010440584802     
   4.2600000000000006E-002     15.061306405570983     
   4.2900000000000001E-002     15.005383912882827     
   4.3200000000000002E-002     14.468135341932406     
   4.3500000000000004E-002     13.470985938177501     
   4.3799999999999999E-002     12.059143675609953     
   4.4100000000000000E-002     10.299736731075733     
   4.4400000000000002E-002     8.2782419739925466     
   4.4700000000000004E-002     6.0959758502258232     
   4.4999999999999998E-002     3.8633809917927606     
   4.5300000000000000E-002     1.6909121895846035     
   4.5600000000000002E-002   -0.31504255961684530     
   4.5899999999999996E-002    -2.0588695126897392     
   4.6200000000000005E-002    -3.4638060269564339     
   4.6500000000000000E-002    -4.4750562726258831     
   4.6799999999999994E-002    -5.0639411174573432     
   4.7100000000000003E-002    -5.2286006563661411     
   4.7399999999999998E-002    -4.9924080123038115     
   4.7700000000000006E-002    -4.4042590162637092     
   4.8000000000000001E-002    -3.5315843965209410     
   4.8300000000000010E-002    -2.4549152661822236     
   4.8600000000000004E-002    -1.2643442774065459     
   4.8899999999999999E-002    -4.9364087382938418E-002
   4.9200000000000008E-002     1.1056322399753069     
   4.9500000000000002E-002     2.1263773655692062     
   4.9800000000000011E-002     2.9558622947615829     
   5.0100000000000006E-002     3.5542736278121505     
   5.0400000000000000E-002     3.9012659126472591     
   5.0700000000000009E-002     3.9981914558572966     
   5.1000000000000004E-002     3.8624660139629743     
   5.1299999999999998E-002     3.5268022790556088     
   5.1600000000000007E-002     3.0364175214479769     
   5.1900000000000002E-002     2.4413939426876183     
   5.2200000000000010E-002     1.7940558342435462     
   5.2500000000000005E-002     1.1438936458958249     
   5.2800000000000000E-002    0.53207147703530744     
   5.3099999999999994E-002    -9.5335593093157246E-003
   5.3400000000000003E-002   -0.46295751874644170     
   5.3699999999999998E-002   -0.82535933966806752     
   5.4000000000000006E-002    -1.1056583583869650     
   5.4300000000000001E-002    -1.3258405501820618     
   5.4599999999999996E-002    -1.5166245379078440     
   5.4900000000000004E-002    -1.7112716194177902     
   5.5199999999999999E-002    -1.9452286771877709     
   5.5499999999999994E-002    -2.2484549137379140     
   5.5800000000000002E-002    -2.6394885660127665     
   5.6099999999999997E-002    -3.1286166814511174     
   5.6400000000000006E-002    -3.7131980592883065     
   5.6700000000000000E-002    -4.3791073517952386     
   5.6999999999999995E-002    -5.1059821809904111     
   5.7300000000000004E-002    -5.8690570540378104     
   5.7599999999999998E-002    -6.6476048124089333     
   5.7900000000000007E-002    -7.4285362766061338     
   5.8200000000000002E-002    -8.2068994939792059     
   5.8499999999999996E-002    -8.9924839353773898     
   5.8800000000000005E-002    -9.8042810773893478     
   5.9100000000000000E-002    -10.663220263814788     
   5.9400000000000008E-002    -11.588657277578607     
   5.9700000000000003E-002    -12.585573167981154     
   6.0000000000000012E-002    -13.633565986715718     
   6.0300000000000006E-002    -14.679197550394298     
   6.0600000000000001E-002    -15.630650954521979     
   6.0900000000000010E-002    -16.357714361061451     
   6.1200000000000004E-002    -16.695580436533465     
   6.1500000000000013E-002    -16.458543022163564     
   6.1800000000000008E-002    -15.458324849183786     
   6.2100000000000002E-002    -13.523917781335193     
   6.2399999999999997E-002    -10.526010231085399     
   6.2700000000000006E-002    -6.4018332398519515     
   6.3000000000000000E-002    -1.1733758992754824     
   6.3300000000000009E-002     5.0443460529576560     
   6.3600000000000004E-002     12.031863304194676     
   6.3899999999999998E-002     19.474183649813476     
   6.4199999999999993E-002     26.982807327991374     
   6.4500000000000002E-002     34.110379033085032     
   6.4800000000000010E-002     40.389146267014958     
   6.5100000000000005E-002     45.369230292901200     
   6.5400000000000000E-002     48.649729271957398     
   6.5700000000000008E-002     49.919985664022988     
   6.5999999999999989E-002     48.986941424673134     
   6.6299999999999998E-002     45.790698157092535     
   6.6600000000000006E-002     40.421900691705574     
   6.6900000000000001E-002     33.112585626421691     
   6.7199999999999996E-002     24.224083014126599     
   6.7500000000000004E-002     14.225501469894496     
   6.7800000000000013E-002     3.6533870268379056     
   6.8099999999999994E-002    -6.9218516853447776     
   6.8400000000000002E-002    -16.936516563729604     
   6.8700000000000011E-002    -25.877648797482436     
   6.8999999999999992E-002    -33.312543897780181     
   6.9300000000000000E-002    -38.917944386943375     
   6.9600000000000009E-002    -42.499560084731563     
   6.9900000000000004E-002    -43.993956382728179     
   7.0199999999999999E-002    -43.466574416995741     
   7.0500000000000007E-002    -41.102289692055791     
   7.0800000000000016E-002    -37.176077054921471     
   7.1099999999999997E-002    -32.030187360181159     
   7.1400000000000005E-002    -26.047108892593929     
   7.1700000000000000E-002    -19.614788767831875     
   7.1999999999999995E-002    -13.104975942158299     
   7.2300000000000003E-002    -6.8478820815779811     
   7.2600000000000012E-002    -1.1168349144271810     
   7.2900000000000006E-002     3.8784178725721645     
   7.3200000000000001E-002     8.0015527013262435     
   7.3499999999999996E-002     11.180951371731236     
   7.3800000000000004E-002     13.404299090943864     
   7.4099999999999999E-002     14.716113385067905     
   7.4400000000000008E-002     15.197316391520589     
   7.4700000000000003E-002     14.957158191190782     
   7.5000000000000011E-002     14.126970241745489     
   7.5299999999999992E-002     12.844541327947843     
   7.5600000000000001E-002     11.246532037563053     
   7.5900000000000009E-002     9.4641765502768518     
   7.6200000000000004E-002     7.6172673361324481     
   7.6499999999999999E-002     5.8092456407386663     
   7.6800000000000007E-002     4.1252974740368016     
   7.7099999999999988E-002     2.6286452472990094     
   7.7399999999999997E-002     1.3641488481802166     
   7.7700000000000005E-002    0.35494519018609105     
   7.8000000000000014E-002   -0.39736784791196411     
   7.8299999999999995E-002   -0.90296913317443994     
   7.8600000000000003E-002    -1.1888576072212216     
   7.8900000000000012E-002    -1.2927401275095329     
   7.9199999999999993E-002    -1.2529545848141896     
   7.9500000000000001E-002    -1.1128559722609794     
   7.9800000000000010E-002   -0.91182657262727296     
   8.0100000000000018E-002   -0.68270389828071265     
   8.0399999999999999E-002   -0.45344130777366798     
   8.0700000000000008E-002   -0.24244769591078127     
   8.1000000000000003E-002    -6.2151666147292207E-002
   8.1299999999999997E-002     8.0746624032439998E-002
   8.1600000000000006E-002    0.18519545215289476     
   8.1900000000000014E-002    0.25207248308928776     
   8.2199999999999995E-002    0.28305543156145774     
   8.2500000000000004E-002    0.28171990647932799     
   8.2799999999999999E-002    0.25037549818531574     
   8.3100000000000007E-002    0.19102438562515164     
   8.3400000000000002E-002    0.10984896390705114     
   8.3700000000000011E-002     1.0416687210854397E-002
   8.4000000000000005E-002   -0.10131868013367178     
   8.4300000000000000E-002   -0.21432761621092158     
   8.4599999999999995E-002   -0.32138993303938823     
   8.4900000000000003E-002   -0.41282370430215076     
   8.5199999999999998E-002   -0.47940078856317764     
   8.5500000000000007E-002   -0.51668859649945664     
   8.5800000000000001E-002   -0.52010311237081985     
   8.6100000000000010E-002   -0.49180199437385752     
   8.6399999999999991E-002   -0.43685601829041637     
   8.6699999999999999E-002   -0.36167107426993333     
   8.7000000000000008E-002   -0.27717740358505477     
   8.7300000000000003E-002   -0.19357324254742472     
   8.7599999999999997E-002   -0.11849051196867126     
   8.7900000000000006E-002    -5.9785503734610966E-002
   8.8200000000000014E-002    -2.0743514236677217E-002
   8.8499999999999995E-002    -7.2995439647438045E-004
   8.8800000000000004E-002     1.2483504355881091E-003
   8.9100000000000013E-002    -8.2108052399182431E-003
   8.9399999999999993E-002    -2.3867514778035767E-002
   8.9700000000000002E-002    -4.1729944746134728E-002
   9.0000000000000011E-002    -5.5373215411473220E-002
   9.0299999999999991E-002    -6.4237346941760171E-002
   9.0600000000000000E-002    -6.8385289992045184E-002
   9.0900000000000009E-002    -6.7697708702318879E-002
   9.1200000000000017E-002    -6.6608206505207518E-002
   9.1499999999999998E-002    -6.6708637636440929E-002
   9.1800000000000007E-002    -6.9807839777995970E-002
   9.2100000000000001E-002    -7.7618143184590732E-002
   9.2399999999999996E-002    -8.8626423819805636E-002
   9.2700000000000005E-002   -0.10070076502579892     
   9.3000000000000013E-002   -0.11074479411359243     
   9.3300000000000008E-002   -0.11532945482378122     
   9.3600000000000003E-002   -0.11120399099785393     
   9.3899999999999997E-002    -9.7656856903606745E-002
   9.4200000000000006E-002    -7.4215416645539878E-002
   9.4500000000000001E-002    -4.3171670126722281E-002
   9.4800000000000009E-002    -8.0432419172280986E-003
   9.5100000000000004E-002     2.8015027681068960E-002
   9.5399999999999999E-002     5.8279073993739904E-002
   9.5699999999999993E-002     8.0912890998952214E-002
   9.6000000000000002E-002     9.3920408127984911E-002
   9.6300000000000011E-002     9.4592250667123512E-002
   9.6600000000000005E-002     8.5936963229216679E-002
   9.6900000000000000E-002     7.0800108849217155E-002
   9.7200000000000009E-002     5.2460111070608217E-002
   9.7499999999999989E-002     3.5663407638349978E-002
   9.7799999999999998E-002     2.4265761875269201E-002
   9.8100000000000007E-002     2.1185149805772303E-002
   9.8400000000000015E-002     2.7107656734912531E-002
   9.8699999999999996E-002     4.1615958863278998E-002
   9.9000000000000005E-002     6.2116289377839619E-002
   9.9300000000000013E-002     8.4297740246835673E-002
   9.9599999999999994E-002    0.10243238994603146     
   9.9900000000000003E-002    0.11267957922049508     
  0.10020000000000001         0.11144380649414817     
  0.10049999999999999          9.3729240311439796E-002
  0.10080000000000000          6.0851474341489402E-002
  0.10110000000000001          1.4458420373832010E-002
  0.10140000000000000         -4.3202077906960457E-002
  0.10170000000000000        -0.10416468936873083     
  0.10200000000000001        -0.16280252303373349     
  0.10230000000000002        -0.21091340129053662     
  0.10260000000000000        -0.24281472067668455     
  0.10290000000000001        -0.25431274248316826     
  0.10320000000000000        -0.24093586560312269     
  0.10350000000000001        -0.20626337901612504     
  0.10380000000000000        -0.15413532685025658     
  0.10410000000000001         -8.9560421797546239E-002
  0.10440000000000001         -2.3095713118320378E-002
  0.10470000000000000          3.4483656439318479E-002
  0.10500000000000000          7.4902199266212263E-002
  0.10530000000000000          9.0817933042108737E-002
  0.10560000000000000          7.6815953583724575E-002
  0.10590000000000001          3.2984475481264666E-002
  0.10620000000000000         -3.5731413329900145E-002
  0.10650000000000001        -0.12112636150426845     
  0.10679999999999999        -0.21177523368784931     
  0.10710000000000000        -0.29381926700125133     
  0.10740000000000001        -0.35230639532148961     
  0.10770000000000000        -0.37777567607482454     
  0.10800000000000000        -0.36217419225909819     
  0.10830000000000001        -0.30264875773830197     
  0.10859999999999999        -0.20615454957199675     
  0.10890000000000000         -8.3652951678050230E-002
  0.10920000000000001          4.8312894975871774E-002
  0.10950000000000001         0.16972483872026298     
  0.10979999999999999         0.25863121992964311     
  0.11009999999999999         0.29671174660013117     
  0.11040000000000001         0.27192897514236519     
  0.11070000000000001         0.17822984337334816     
  0.11100000000000000          2.1484342762239907E-002
  0.11130000000000000        -0.18331276313466993     
  0.11160000000000002        -0.41150004293160136     
  0.11190000000000001        -0.63275317552690813     
  0.11220000000000001        -0.81324269132445759     
  0.11250000000000000        -0.91832338565762295     
  0.11280000000000000        -0.92355436978342154     
  0.11309999999999999        -0.81151719611330153     
  0.11340000000000001        -0.57752729487433763     
  0.11369999999999998        -0.23395966314093267     
  0.11400000000000000         0.19589966822665897     
  0.11430000000000000         0.67359391296748916     
  0.11460000000000002          1.1556667358274428     
  0.11489999999999999          1.5937925183876569     
  0.11520000000000001          1.9403133476882557     
  0.11550000000000001          2.1588770614273951     
  0.11580000000000000          2.2211966023214806     
  0.11609999999999999          2.1153609333723251     
  0.11640000000000002          1.8458749729144754     
  0.11670000000000001          1.4308493546575525     
  0.11700000000000001         0.90400832997516611     
  0.11730000000000000         0.30633546022293218     
  0.11760000000000000        -0.31421045863203295     
  0.11789999999999999        -0.90965531233428665     
  0.11820000000000001         -1.4359610982766102     
  0.11850000000000001         -1.8555190698764947     
  0.11880000000000000         -2.1421112274076526     
  0.11910000000000000         -2.2797898690594773     
  0.11940000000000002         -2.2653912992701892     
  0.11970000000000001         -2.1055859931343588     
  0.12000000000000001         -1.8183548855576463     
  0.12030000000000000         -1.4294681662478173     
  0.12060000000000000        -0.96747676022363494     
  0.12089999999999999        -0.46606957376379948     
  0.12119999999999999          4.1028225612540388E-002
  0.12150000000000001         0.52309748147010260     
  0.12180000000000001         0.95260983811986666     
  0.12210000000000000          1.3070456682457718     
  0.12239999999999999          1.5697451738375157     
  0.12270000000000002          1.7320959598634464     
  0.12300000000000001          1.7915930813965757     
  0.12330000000000001          1.7527068872787643     
  0.12360000000000000          1.6259311338014071     
  0.12390000000000000          1.4276299200667633     
  0.12419999999999999          1.1756164536351599     
  0.12450000000000001         0.88989506825330078     
  0.12480000000000001         0.59300335518251668     
  0.12509999999999999         0.30202394746241001     
  0.12540000000000001          3.3912542668015896E-002
  0.12570000000000003        -0.19809729334600232     
  0.12600000000000000        -0.38760791828810742     
  0.12630000000000002        -0.52918099631105320     
  0.12659999999999999        -0.62459331274366781     
  0.12690000000000001        -0.67607193610662430     
  0.12719999999999998        -0.68908452009824139     
  0.12750000000000000        -0.67232905253192710     
  0.12780000000000002        -0.63098017067479317     
  0.12809999999999999        -0.57299485686486973     
  0.12840000000000001        -0.50562520898912822     
  0.12869999999999998        -0.43393982738229980     
  0.12900000000000000        -0.36238310298422716     
  0.12930000000000003        -0.29421195292229801     
  0.12959999999999999        -0.23384214294311087     
  0.12990000000000002        -0.18233876334483140     
  0.13019999999999998        -0.14199268918433172     
  0.13050000000000000        -0.11339111546689581     
  0.13080000000000003         -9.6689565640515618E-002
  0.13109999999999999         -9.2024244051870624E-002
  0.13140000000000002         -9.5380061686779719E-002
  0.13169999999999998        -0.10671987772979961     
  0.13200000000000001        -0.12231489207939050     
  0.13229999999999997        -0.13786072486188047     
  0.13260000000000000        -0.15269465456972617     
  0.13290000000000002        -0.16227735445860128     
  0.13319999999999999        -0.16597433338830744     
  0.13350000000000001        -0.16380481386930812     
  0.13380000000000003        -0.15542773802423590     
  0.13410000000000000        -0.14330778833776908     
  0.13440000000000002        -0.12830103661247311     
  0.13469999999999999        -0.11267435209668156     
  0.13500000000000001         -9.8655503403490843E-002
  0.13529999999999998         -8.6929012730229890E-002
  0.13560000000000000         -7.7603799773848792E-002
  0.13590000000000002         -7.1325599086175973E-002
  0.13619999999999999         -6.6809810998480532E-002
  0.13650000000000001         -6.2192776534725547E-002
  0.13680000000000003         -5.7934193175899484E-002
  0.13710000000000000         -5.1758917247588618E-002
  0.13740000000000002         -4.3817476928111235E-002
  0.13769999999999999         -3.5139386348030155E-002
  0.13800000000000001         -2.5086430307774715E-002
  0.13829999999999998         -1.6461764122349301E-002
  0.13860000000000000         -8.0701894392398998E-003
  0.13890000000000002         -1.0636080871085612E-003
  0.13919999999999999          3.1414720264725184E-003
  0.13950000000000001          7.3397903467911623E-003
  0.13979999999999998          1.1693031426631395E-002
  0.14010000000000000          1.7082752086342492E-002
  0.14040000000000002          2.5698515037149712E-002
  0.14069999999999999          3.8065981038666284E-002
  0.14100000000000001          5.4125696656256717E-002
  0.14130000000000004          7.4020644137516370E-002
  0.14160000000000000          9.5868676181770293E-002
  0.14189999999999997         0.11722384501015423     
  0.14219999999999999         0.13724273733583708     
  0.14250000000000002         0.15180240980693019     
  0.14279999999999998         0.16068788323808197     
  0.14310000000000000         0.16323915539063630     
  0.14339999999999997         0.15841630371017265     
  0.14369999999999999         0.14978224124897141     
  0.14400000000000002         0.13715024163032849     
  0.14429999999999998         0.12340282291852149     
  0.14460000000000001         0.11200443897648991     
  0.14490000000000003         0.10202965285706667     
  0.14520000000000000          9.6499347662659538E-002
  0.14550000000000002          9.4331281688608909E-002
  0.14579999999999999          9.4606805426688992E-002
  0.14610000000000001          9.6483094214981066E-002
  0.14640000000000003          9.7804552990631191E-002
  0.14670000000000000          9.8131761162656969E-002
  0.14699999999999996          9.5203705647050094E-002
  0.14729999999999999          9.0652279906265634E-002
  0.14760000000000001          8.4699570581938805E-002
  0.14789999999999998          7.8199839440219326E-002
  0.14820000000000000          7.3649299551482666E-002