  -1.4999999999999999E-002     0.0000000000000000     
  -1.4700000000000000E-002    -6.0280807606210553E-029
  -1.4400000000000000E-002    -1.3707149645160025E-023
  -1.4100000000000000E-002    -7.5204821974705085E-021
  -1.3800000000000000E-002    -1.8066740661699209E-019
  -1.3500000000000000E-002     1.8248062994236399E-017
  -1.3200000000000000E-002     2.2862982289997838E-016
  -1.2899999999999998E-002    -1.5274073140812776E-015
  -1.2600000000000000E-002    -9.2091319654755114E-015
  -1.2299999999999998E-002     3.1054825477096077E-014
  -1.2000000000000000E-002     1.2716779657780708E-013
  -1.1699999999999999E-002    -9.9665424527156839E-014
  -1.1399999999999999E-002    -1.2763263951720245E-012
  -1.1099999999999999E-002    -2.1995240539532967E-012
  -1.0799999999999999E-002     1.2801928784600893E-011
  -1.0499999999999999E-002     2.1581676485782319E-011
  -1.0199999999999999E-002    -1.0263313258011306E-010
  -9.8999999999999991E-003    -1.3062286089382592E-012
  -9.5999999999999992E-003     3.4338540351032117E-010
  -9.2999999999999992E-003    -5.2461068474483863E-010
  -8.9999999999999993E-003     3.0140384684598767E-010
  -8.6999999999999994E-003     1.1073237895011170E-009
  -8.3999999999999995E-003    -3.8012258872186554E-009
  -8.0999999999999996E-003     2.7774239031302058E-009
  -7.7999999999999988E-003     4.6452734176160394E-009
  -7.4999999999999997E-003    -9.5973223801012125E-009
  -7.1999999999999998E-003     4.8259525660721750E-009
  -6.8999999999999981E-003     6.0475346659468820E-009
  -6.5999999999999982E-003    -7.9302731989053985E-009
  -6.3000000000000000E-003    -9.3832055388399262E-009
  -6.0000000000000001E-003     4.1010979204162465E-009
  -5.6999999999999985E-003     4.1100943238278855E-008
  -5.3999999999999986E-003    -3.5056389782738377E-008
  -5.1000000000000004E-003    -3.7894734734819707E-008
  -4.7999999999999987E-003     7.6938492477224340E-008
  -4.5000000000000005E-003    -2.8055438393512716E-008
  -4.1999999999999989E-003    -8.5331090202054701E-008
  -3.8999999999999990E-003     4.8488991085728190E-008
  -3.5999999999999990E-003     1.1988409443894874E-007
  -3.2999999999999991E-003     5.1505598533980888E-008
  -2.9999999999999992E-003    -1.7022665100019070E-007
  -2.6999999999999993E-003    -3.7048123135676973E-007
  -2.3999999999999994E-003     1.4925576849131485E-007
  -2.0999999999999977E-003     1.3966700108139389E-006
  -1.7999999999999995E-003    -1.4034013810739303E-007
  -1.4999999999999979E-003    -4.4304351048661177E-006
  -1.1999999999999997E-003    -5.1460700570253814E-007
  -8.9999999999999976E-004     1.1628882246495064E-005
  -5.9999999999999810E-004     6.0143797672839114E-006
  -2.9999999999999992E-004    -2.5262034975571010E-005
   0.0000000000000000         -3.1261859059206398E-005
   3.0000000000000165E-004     5.5053049672193350E-005
   5.9999999999999984E-004     2.2991296588803471E-004
   9.0000000000000149E-004     4.1094654387733144E-004
   1.2000000000000031E-003     5.6704941706385917E-004
   1.5000000000000013E-003     8.0702844491371156E-004
   1.8000000000000030E-003     1.2767981840799256E-003
   2.1000000000000012E-003     2.0489205480794795E-003
   2.3999999999999994E-003     3.1791041949661802E-003
   2.7000000000000010E-003     4.8331076729616331E-003
   2.9999999999999992E-003     7.2901731427479893E-003
   3.3000000000000008E-003     1.0860033099259019E-002
   3.6000000000000025E-003     1.5951743031890491E-002
   3.9000000000000007E-003     2.3164649984119223E-002
   4.2000000000000023E-003     3.3191024656640408E-002
   4.5000000000000005E-003     4.6803127199752478E-002
   4.7999999999999987E-003     6.5001337767325279E-002
   5.1000000000000004E-003     8.8979518763795923E-002
   5.4000000000000020E-003    0.11994166539973207     
   5.7000000000000037E-003    0.15907302352977779     
   5.9999999999999984E-003    0.20754179208359325     
   6.3000000000000000E-003    0.26626333453632928     
   6.6000000000000017E-003    0.33557775508375370     
   6.9000000000000034E-003    0.41509681899828177     
   7.2000000000000015E-003    0.50343847349065163     
   7.5000000000000032E-003    0.59775412329064259     
   7.8000000000000014E-003    0.69345725069140163     
   8.0999999999999996E-003    0.78400499431856419     
   8.4000000000000012E-003    0.86070789110062929     
   8.7000000000000029E-003    0.91279114981603504     
   9.0000000000000011E-003    0.92763378486679482     
   9.2999999999999992E-003    0.89114740376177293     
   9.6000000000000009E-003    0.78853497424867658     
   9.8999999999999991E-003    0.60538182775877469     
   1.0200000000000001E-002    0.32920013492869032     
   1.0500000000000002E-002    -4.8995996938019468E-002
   1.0800000000000004E-002   -0.53306973941589797     
   1.1099999999999999E-002    -1.1201486114231534     
   1.1400000000000000E-002    -1.7994125676901804     
   1.1700000000000002E-002    -2.5511436174982429     
   1.2000000000000004E-002    -3.3463683010364851     
   1.2300000000000002E-002    -4.1474027737832753     
   1.2600000000000000E-002    -4.9094443696007426     
   1.2900000000000002E-002    -5.5826917379355274     
   1.3200000000000000E-002    -6.1152888364440381     
   1.3500000000000002E-002    -6.4571038655016499     
   1.3800000000000003E-002    -6.5636603138009297     
   1.4100000000000001E-002    -6.3999192308595720     
   1.4400000000000000E-002    -5.9434997853936054     
   1.4700000000000001E-002    -5.1872665839095404     
   1.4999999999999999E-002    -4.1407330026645015     
   1.5300000000000001E-002    -2.8305766487516153     
   1.5600000000000003E-002    -1.2984219483947310     
   1.5899999999999997E-002    0.40111840211124800     
   1.6199999999999999E-002     2.2035020488108992     
   1.6500000000000001E-002     4.0399450510398065     
   1.6800000000000002E-002     5.8409552452369153     
   1.7100000000000004E-002     7.5404205873923233     
   1.7400000000000006E-002     9.0803986840164033     
   1.7700000000000000E-002     10.412988855520064     
   1.8000000000000002E-002     11.502909917728514     
   1.8300000000000004E-002     12.327048617348003     
   1.8600000000000005E-002     12.873183616107946     
   1.8900000000000000E-002     13.140008378477127     
   1.9200000000000002E-002     13.132942634358878     
   1.9500000000000003E-002     12.860624765144728     
   1.9799999999999998E-002     12.335121611246544     
   2.0100000000000000E-002     11.567163915711024     
   2.0400000000000001E-002     10.564781616256987     
   2.0700000000000003E-002     9.3348936196242267     
   2.0999999999999998E-002     7.8816746351710520     
   2.1299999999999999E-002     6.2093537317716931     
   2.1600000000000001E-002     4.3256141864601716     
   2.1900000000000003E-002     2.2422856148268275     
   2.2200000000000004E-002    -1.8970536466000647E-002
   2.2500000000000006E-002    -2.4247344329572273     
   2.2800000000000001E-002    -4.9286777505029260     
   2.3100000000000002E-002    -7.4683311670141395     
   2.3400000000000004E-002    -9.9682888415554203     
   2.3699999999999999E-002    -12.340742636756490     
   2.4000000000000000E-002    -14.490286491444662     
   2.4300000000000002E-002    -16.321245884839115     
   2.4599999999999997E-002    -17.741591240320968     
   2.4900000000000005E-002    -18.672589109440512     
   2.5200000000000000E-002    -19.057099138622977     
   2.5499999999999995E-002    -18.862894764584027     
   2.5800000000000003E-002    -18.089531576262544     
   2.6099999999999998E-002    -16.770922235712828     
   2.6400000000000007E-002    -14.973741934632120     
   2.6700000000000002E-002    -12.795192027493222     
   2.6999999999999996E-002    -10.356143113417746     
   2.7300000000000005E-002    -7.7934202862800950     
   2.7600000000000000E-002    -5.2507603939810563     
   2.7900000000000008E-002    -2.8675553434997849     
   2.8200000000000003E-002   -0.77009552165177331     
   2.8499999999999998E-002    0.93828309195099224     
   2.8800000000000006E-002     2.1837718272090179     
   2.9100000000000001E-002     2.9241885995416483     
   2.9400000000000003E-002     3.1569895483827026     
   2.9700000000000004E-002     2.9165853972668208     
   3.0000000000000006E-002     2.2694873105134978     
   3.0300000000000001E-002     1.3177869677455709     
   3.0600000000000002E-002    0.19132685248763215     
   3.0900000000000004E-002   -0.96052556261930855     
   3.1199999999999999E-002    -1.9717438181803846     
   3.1500000000000007E-002    -2.6698297654493937     
   3.1800000000000002E-002    -2.8852368086939850     
   3.2099999999999997E-002    -2.4641914151975675     
   3.2400000000000005E-002    -1.2803585766105994     
   3.2700000000000000E-002    0.75368215145097339     
   3.3000000000000002E-002     3.6693748226976726     
   3.3300000000000003E-002     7.4317248195100643     
   3.3599999999999998E-002     11.934673891033647     
   3.3900000000000000E-002     16.991749141480383     
   3.4200000000000001E-002     22.341876987248920     
   3.4500000000000003E-002     27.660602182199995     
   3.4799999999999998E-002     32.573786872657209     
   3.5099999999999999E-002     36.686339079304339     
   3.5400000000000001E-002     39.610147723885675     
   3.5699999999999996E-002     40.996557143618148     
   3.6000000000000004E-002     40.570932058212932     
   3.6299999999999999E-002     38.160825291875256     
   3.6600000000000008E-002     33.717343889623805     
   3.6900000000000002E-002     27.332614704477077     
   3.7199999999999997E-002     19.237270512744129     
   3.7500000000000006E-002     9.7908055051124077     
   3.7800000000000000E-002   -0.53651293466967631     
   3.8100000000000009E-002    -11.201853782689934     
   3.8400000000000004E-002    -21.622935614270570     
   3.8699999999999998E-002    -31.219607038959616     
   3.9000000000000007E-002    -39.464944921422251     
   3.9300000000000002E-002    -45.913407918750480     
   3.9600000000000003E-002    -50.234502134252622     
   3.9900000000000005E-002    -52.240628403011961     
   4.0200000000000000E-002    -51.888848497984597     
   4.0500000000000001E-002    -49.282147793901011     
   4.0800000000000003E-002    -44.660497431612264     
   4.1100000000000005E-002    -38.369219038457636     
   4.1399999999999999E-002    -30.837898989302598     
   4.1700000000000008E-002    -22.544753415391519     
   4.2000000000000003E-002    -13.973489706546617     
   4.2299999999999997E-002    -5.5904407383902681     
   4.2600000000000006E-002     2.1922333618926304     
   4.2900000000000001E-002     9.0414358740612233     
   4.3200000000000002E-002     14.708354376180251     
   4.3500000000000004E-002     19.047109842727739     
   4.3799999999999999E-002     22.009298529963274     
   4.4100000000000000E-002     23.628780634998691     
   4.4400000000000002E-002     24.019049106070877     
   4.4700000000000004E-002     23.347880031051513     
   4.4999999999999998E-002     21.817505750081850     
   4.5300000000000000E-002     19.648785768934129     
   4.5600000000000002E-002     17.058825934555308     
   4.5899999999999996E-002     14.251551364389291     
   4.6200000000000005E-002     11.405221895510904     
   4.6500000000000000E-002     8.6607381329315487     
   4.6799999999999994E-002     6.1294787424441797     
   4.7100000000000003E-002     3.8885757095788356     
   4.7399999999999998E-002     1.9779507980591615     
   4.7700000000000006E-002    0.41813235716140879     
   4.8000000000000001E-002   -0.79275658829127482     
   4.8300000000000010E-002    -1.6768737908856790     
   4.8600000000000004E-002    -2.2623300785305389     
   4.8899999999999999E-002    -2.5879026179827394     
   4.9200000000000008E-002    -2.6976817948000393     
   4.9500000000000002E-002    -2.6344179644564116     
   4.9800000000000011E-002    -2.4465086630160071     
   5.0100000000000006E-002    -2.1764598670410473     
   5.0400000000000000E-002    -1.8633010530990242     
   5.0700000000000009E-002    -1.5455890322517454     
   5.1000000000000004E-002    -1.2485160644037878     
   5.1299999999999998E-002   -0.99334312532834035     
   5.1600000000000007E-002   -0.79487559102174032     
   5.1900000000000002E-002   -0.65275053102443781     
   5.2200000000000010E-002   -0.56598053559473283     
   5.2500000000000005E-002   -0.52593396004603943     
   5.2800000000000000E-002   -0.51764777678869156     
   5.3099999999999994E-002   -0.53103270876453623     
   5.3400000000000003E-002   -0.55103560509251648     
   5.3699999999999998E-002   -0.56768615977075687     
   5.4000000000000006E-002   -0.57859750410281063     
   5.4300000000000001E-002   -0.57723857892889152     
   5.4599999999999996E-002   -0.56578680035598838     
   5.4900000000000004E-002   -0.54977133184340754     
   5.5199999999999999E-002   -0.52893348927114214     
   5.5499999999999994E-002   -0.50786491488145791     
   5.5800000000000002E-002   -0.48822389907241498     
   5.6099999999999997E-002   -0.46834693673471134     
   5.6400000000000006E-002   -0.44807035329276573     
   5.6700000000000000E-002   -0.42366295923327030     
   5.6999999999999995E-002   -0.39243685485958779     
   5.7300000000000004E-002   -0.35577379497778161     
   5.7599999999999998E-002   -0.31223033548524093     
   5.7900000000000007E-002   -0.26533155470778813     
   5.8200000000000002E-002   -0.22215232934231874     
   5.8499999999999996E-002   -0.18557528904375648     
   5.8800000000000005E-002   -0.16241795188877162     
   5.9100000000000000E-002   -0.15681366059575441     
   5.9400000000000008E-002   -0.16759718845587199     
   5.9700000000000003E-002   -0.19504608331420126     
   6.0000000000000012E-002   -0.23225261419698631     
   6.0300000000000006E-002   -0.27029232727720670     
   6.0600000000000001E-002   -0.30353380525001422     
   6.0900000000000010E-002   -0.32076365771076948     
   6.1200000000000004E-002   -0.31729508251699989     
   6.1500000000000013E-002   -0.29169852221411757     
   6.1800000000000008E-002   -0.24272870252701390     
   6.2100000000000002E-002   -0.17792245126689510     
   6.2399999999999997E-002   -0.10556910502554814     
   6.2700000000000006E-002    -3.4064313190442536E-002
   6.3000000000000000E-002     2.5558820807483899E-002
   6.3300000000000009E-002     6.6714444246487800E-002
   6.3600000000000004E-002     8.4727908117117542E-002
   6.3899999999999998E-002     7.7844059412104621E-002
   6.4199999999999993E-002     5.1413963679733922E-002
   6.4500000000000002E-002     1.0979998217400075E-002
   6.4800000000000010E-002    -3.5249835430292829E-002
   6.5100000000000005E-002    -7.6628289443701994E-002
   6.5400000000000000E-002   -0.10731301229438570     
   6.5700000000000008E-002   -0.12245338194992580     
   6.5999999999999989E-002   -0.11784046173000964     
   6.6299999999999998E-002    -9.6843179273752300E-002
   6.6600000000000006E-002    -6.2699429965664188E-002
   6.6900000000000001E-002    -1.9660696800035682E-002
   6.7199999999999996E-002     2.4129436344414723E-002
   6.7500000000000004E-002     6.5241135439848885E-002
   6.7800000000000013E-002    0.10015193417989941     
   6.8099999999999994E-002    0.12617431126053896     
   6.8400000000000002E-002    0.14529949291502869     
   6.8700000000000011E-002    0.15932917814257228     
   6.8999999999999992E-002    0.17116341524544856     
   6.9300000000000000E-002    0.18439692940502875     
   6.9600000000000009E-002    0.19919029580841924     
   6.9900000000000004E-002    0.21774668033790559     
   7.0199999999999999E-002    0.23764965145083422     
   7.0500000000000007E-002    0.25354853112425285     
   7.0800000000000016E-002    0.26425778330047528     
   7.1099999999999997E-002    0.26473667394633388     
   7.1400000000000005E-002    0.24970840477217543     
   7.1700000000000000E-002    0.22035456359132025     
   7.1999999999999995E-002    0.17671748489690145     
   7.2300000000000003E-002    0.12126765408131483     
   7.2600000000000012E-002     6.0869334714265783E-002
   7.2900000000000006E-002     1.7664353549421440E-003
   7.3200000000000001E-002    -4.8702535301905131E-002
   7.3499999999999996E-002    -8.5108505249059066E-002
   7.3800000000000004E-002   -0.10250369539479409     
   7.4099999999999999E-002    -9.8117541002517961E-002
   7.4400000000000008E-002    -7.5378493544295294E-002
   7.4700000000000003E-002    -3.8784068994906697E-002
   7.5000000000000011E-002     7.0276061429164847E-003
   7.5299999999999992E-002     5.1713411073771483E-002
   7.5600000000000001E-002     8.6590048376796763E-002
   7.5900000000000009E-002    0.10674956360036696     
   7.6200000000000004E-002    0.10622754451535715     
   7.6499999999999999E-002     8.3191841372546135E-002
   7.6800000000000007E-002     4.0680759764102188E-002
   7.7099999999999988E-002    -1.5438720549323595E-002
   7.7399999999999997E-002    -7.6810322267885409E-002
   7.7700000000000005E-002   -0.13431554002431756     
   7.8000000000000014E-002   -0.17730840621404964     
   7.8299999999999995E-002   -0.19631371395221550     
   7.8600000000000003E-002   -0.18804583248671961     
   7.8900000000000012E-002   -0.15053956738345933     
   7.9199999999999993E-002    -8.6084087274155535E-002
   7.9500000000000001E-002    -4.2787076528403040E-003
   7.9800000000000010E-002     8.3271632633156248E-002
   8.0100000000000018E-002    0.16351779989831972     
   8.0399999999999999E-002    0.22110329624010747     
   8.0700000000000008E-002    0.24300778675784113     
   8.1000000000000003E-002    0.22124083830688235     
   8.1299999999999997E-002    0.15204606343919155     
   8.1600000000000006E-002     3.8837925179767523E-002
   8.1900000000000014E-002   -0.10819978425984951     
   8.2199999999999995E-002   -0.27184836851767552     
   8.2500000000000004E-002   -0.42993461545601802     
   8.2799999999999999E-002   -0.56004041605695176     
   8.3100000000000007E-002   -0.63767163231520274     
   8.3400000000000002E-002   -0.64148023795722442     
   8.3700000000000011E-002   -0.56057664540246965     
   8.4000000000000005E-002   -0.38980246193936435     
   8.4300000000000000E-002   -0.13530359727447530     
   8.4599999999999995E-002    0.18368606727951425     
   8.4900000000000003E-002    0.53984319843528650     
   8.5199999999999998E-002    0.89708353527726459     
   8.5500000000000007E-002     1.2156639418680910     
   8.5800000000000001E-002     1.4556394759409716     
   8.6100000000000010E-002     1.5809443851844514     
   8.6399999999999991E-002     1.5674049365082112     
   8.6699999999999999E-002     1.4017737615995653     
   8.7000000000000008E-002     1.0858291066416481     
   8.7300000000000003E-002    0.63915467253792346     
   8.7599999999999997E-002     9.4329081436399884E-002
   8.7900000000000006E-002   -0.50495352463743814     
   8.8200000000000014E-002    -1.1061969637996159     
   8.8499999999999995E-002    -1.6566247035800457     
   8.8800000000000004E-002    -2.1070052200799938     
   8.9100000000000013E-002    -2.4167931735981201     
   8.9399999999999993E-002    -2.5595088459382107     
   8.9700000000000002E-002    -2.5229292335507973     
   9.0000000000000011E-002    -2.3114829612838554     
   9.0299999999999991E-002    -1.9456431496328901     
   9.0600000000000000E-002    -1.4570125359488277     
   9.0900000000000009E-002   -0.88612960583698430     
   9.1200000000000017E-002   -0.27862132286201441     
   9.1499999999999998E-002    0.32159689612107589     
   9.1800000000000007E-002    0.87353598399735644     
   9.2100000000000001E-002     1.3441734503616403     
   9.2399999999999996E-002     1.7100360341904650     
   9.2700000000000005E-002     1.9559262804910693     
   9.3000000000000013E-002     2.0783177397615811     
   9.3300000000000008E-002     2.0823885047725659     
   9.3600000000000003E-002     1.9783242927152118     
   9.3899999999999997E-002     1.7833715865242903     
   9.4200000000000006E-002     1.5182185601395040     
   9.4500000000000001E-002     1.2037052607763170     
   9.4800000000000009E-002    0.86276505033044670     
   9.5100000000000004E-002    0.51553225724050433     
   9.5399999999999999E-002    0.18175284099852068     
   9.5699999999999993E-002   -0.12163300818413066     
   9.6000000000000002E-002   -0.38193404648155421     
   9.6300000000000011E-002   -0.58867101793927290     
   9.6600000000000005E-002   -0.73553191041863508     
   9.6900000000000000E-002   -0.82159505683042211     
   9.7200000000000009E-002   -0.84871946625239536     
   9.7499999999999989E-002   -0.82257079806229194     
   9.7799999999999998E-002   -0.75295145190173529     
   9.8100000000000007E-002   -0.65111150577459820     
   9.8400000000000015E-002   -0.52926031404070861     
   9.8699999999999996E-002   -0.39993070557627347     
   9.9000000000000005E-002   -0.27397960612849231     
   9.9300000000000013E-002   -0.16038643961930477     
   9.9599999999999994E-002    -6.5293814358342320E-002
   9.9900000000000003E-002     9.5473792664989513E-003
  0.10020000000000001          6.2034255921996427E-002
  0.10049999999999999          9.5646843125194725E-002
  0.10080000000000000         0.11476176419957682     
  0.10110000000000001         0.12143262960872918     
  0.10140000000000000         0.12159677627789010     
  0.10170000000000000         0.11885305799461025     
  0.10200000000000001         0.11423840179359211     
  0.10230000000000002         0.10977239887946318     
  0.10260000000000000         0.10542234160460390     
  0.10290000000000001         0.10145535576671266     
  0.10320000000000000          9.6731539813196821E-002
  0.10350000000000001          9.0251406170223661E-002
  0.10380000000000000          8.3944006834320239E-002
  0.10410000000000001          7.7233061663442834E-002
  0.10440000000000001          7.0088924826933227E-002
  0.10470000000000000          6.4983482585293184E-002
  0.10500000000000000          6.1812750768914189E-002
  0.10530000000000000          6.0014139825312916E-002
  0.10560000000000000          6.0431144550567882E-002
  0.10590000000000001          6.1029101262613225E-002
  0.10620000000000000          6.0288471660899921E-002
  0.10650000000000001          5.7213340237478844E-002
  0.10679999999999999          4.9686468775991692E-002
  0.10710000000000000          3.7305462532868192E-002
  0.10740000000000001          1.9856735643789286E-002
  0.10770000000000000         -2.0350189173839531E-003
  0.10800000000000000         -2.6235337167903841E-002
  0.10830000000000001         -5.1110328876397389E-002
  0.10859999999999999         -7.4658308940614981E-002
  0.10890000000000000         -9.4185088394998964E-002
  0.10920000000000001        -0.10899281940161756     
  0.10950000000000001        -0.11871396506014965     
  0.10979999999999999        -0.12314805264746981     
  0.11009999999999999        -0.12386494138500312     
  0.11040000000000001        -0.12234525521854156     
  0.11070000000000001        -0.11928871541520823     
  0.11100000000000000        -0.11784632842296074     
  0.11130000000000000        -0.11754784361698037     
  0.11160000000000002        -0.11894742757784309     
  0.11190000000000001        -0.12259856919910066     
  0.11220000000000001        -0.12609569989626829     
  0.11250000000000000        -0.12976080387786793     
  0.11280000000000000        -0.13241616063774611     
  0.11309999999999999        -0.13295993381687157     
  0.11340000000000001        -0.13287599574476117     
  0.11369999999999998        -0.13091604641066484     
  0.11400000000000000        -0.12849852717861371     
  0.11430000000000000        -0.12764931006785074     
  0.11460000000000002        -0.12736027216179888     
  0.11489999999999999        -0.12878735588823698     
  0.11520000000000001        -0.13204848884466647     
  0.11550000000000001        -0.13568787274263894     
  0.11580000000000000        -0.13801713166262519     
  0.11609999999999999        -0.13773308449895830     
  0.11640000000000002        -0.13358869839696802     
  0.11670000000000001        -0.12409888628305825     
  0.11700000000000001        -0.10828495490110247     
  0.11730000000000000         -8.7451307247898957E-002
  0.11760000000000000         -6.3209406554850175E-002
  0.11789999999999999         -3.5924227181026405E-002
  0.11820000000000001         -8.7880284167486111E-003
  0.11850000000000001          1.5227435647698833E-002
  0.11880000000000000          3.6058004945540387E-002
  0.11910000000000000          5.2594561458366516E-002
  0.11940000000000002          6.3813288945641866E-002
  0.11970000000000001          7.1383638608132655E-002
  0.12000000000000001          7.6673946938193904E-002
  0.12030000000000000          8.0673479126255859E-002
  0.12060000000000000          8.4581175134817804E-002
  0.12089999999999999          8.9103387183649199E-002
  0.12119999999999999          9.5480979515532735E-002
  0.12150000000000001         0.10268102629395612     
  0.12180000000000001         0.10877890861262107     
  0.12210000000000000         0.11472499293489903     
  0.12239999999999999         0.11806335963694850     
  0.12270000000000002         0.11788067188122389     
  0.12300000000000001         0.11582177935004757     
  0.12330000000000001         0.11098896170078955     
  0.12360000000000000         0.10620577239231593     
  0.12390000000000000         0.10200591126558299     
  0.12419999999999999          9.9750122452592072E-002
  0.12450000000000001         0.10264285537825404     
  0.12480000000000001         0.10864595164974750     
  0.12509999999999999         0.11891513795630830     
  0.12540000000000001         0.13272063744500137     
  0.12570000000000003         0.14663702380839658     
  0.12600000000000000         0.16030357727839323     
  0.12630000000000002         0.17089836111313197     
  0.12659999999999999         0.17754374188483196     
  0.12690000000000001         0.17911936083838290     
  0.12719999999999998         0.17515280656809323     
  0.12750000000000000         0.16818600838998149     
  0.12780000000000002         0.15852217458368814     
  0.12809999999999999         0.14748443883122550     
  0.12840000000000001         0.13805723507839276     
  0.12869999999999998         0.13056637698546927     
  0.12900000000000000         0.12469498407478498     
  0.12930000000000003         0.12041455026034217     
  0.12959999999999999         0.11721964340426441     
  0.12990000000000002         0.11286604474027029     
  0.13019999999999998         0.10586164130165000     
  0.13050000000000000          9.5892995252697913E-002
  0.13080000000000003          8.2764104004392783E-002
  0.13109999999999999          6.6352949357878555E-002
  0.13140000000000002          4.7909649402541409E-002
  0.13169999999999998          3.0439070964243083E-002
  0.13200000000000001          1.4745763300992806E-002
  0.13229999999999997          2.2022951317582518E-003
  0.13260000000000000         -4.8850546153524025E-003
  0.13290000000000002         -6.9760447238331807E-003
  0.13319999999999999         -5.6411608376252757E-003
  0.13350000000000001         -1.5549951754186230E-003
  0.13380000000000003          2.9317329420490935E-003
  0.13410000000000000          5.1321623645905349E-003
  0.13440000000000002          3.2036337796930801E-003
  0.13469999999999999         -4.5835964654561594E-003
  0.13500000000000001         -1.7521543919652889E-002
  0.13529999999999998         -3.6117637149987870E-002
  0.13560000000000000         -5.8754537238486060E-002
  0.13590000000000002         -8.2274699823959824E-002
  0.13619999999999999        -0.10628187719540599     
  0.13650000000000001        -0.12797343682944015     
  0.13680000000000003        -0.14528480089952858     
  0.13710000000000000        -0.15947000600332570     
  0.13740000000000002        -0.16896632310596124     
  0.13769999999999999        -0.17541028664396649     
  0.13800000000000001        -0.18040228085223309     
  0.13829999999999998        -0.18487684715895317     
  0.13860000000000000        -0.19029914152985114     
  0.13890000000000002        -0.19617986956203673     
  0.13919999999999999        -0.20284325098584177     
  0.13950000000000001        -0.20913720229367558     
  0.13979999999999998        -0.21359023423806911     
  0.14010000000000000        -0.21437123311203340     
  0.14040000000000002        -0.21126332719997618     
  0.14069999999999999        -0.20242704321387994     
  0.14100000000000001        -0.18824499808391565     
  0.14130000000000004        -0.17151041429611127     
  0.14160000000000000        -0.15126018517637274     
  0.14189999999999997        -0.13097487860482027     
  0.14219999999999999        -0.11450987163555004     
  0.14250000000000002        -0.10036291877949320     
  0.14279999999999998         -9.2112845978674626E-002
  0.14310000000000000         -8.8957852053984085E-002
  0.14339999999999997         -8.9575339926254216E-002
  0.14369999999999999         -9.4030501817587639E-002
  0.14400000000000002         -9.7696751806520848E-002
  0.14429999999999998        -0.10117531439461026     
  0.14460000000000001        -0.10174548360908788     
  0.14490000000000003         -9.6506331768726208E-002
  0.14520000000000000         -8.8606801684315561E-002
  0.14550000000000002         -7.7080835987107577E-002
  0.14579999999999999         -6.1747270309895123E-002
  0.14610000000000001         -4.6586796338136574E-002
  0.14640000000000003         -3.1800557356042529E-002
  0.14670000000000000         -1.8029266032777418E-002
  0.14699999999999996         -6.8799769928203410E-003
  0.14729999999999999          2.5153340437733930E-003
  0.14760000000000001          1.0742319785914859E-002
  0.14789999999999998          1.8981747768217396E-002
  0.14820000000000000          2.9332189928579611E-002