  -1.4999999999999999E-002     0.0000000000000000     
  -1.4700000000000000E-002     0.0000000000000000     
  -1.4400000000000000E-002     0.0000000000000000     
  -1.4100000000000000E-002     0.0000000000000000     
  -1.3800000000000000E-002     0.0000000000000000     
  -1.3500000000000000E-002     0.0000000000000000     
  -1.3200000000000000E-002     0.0000000000000000     
  -1.2899999999999998E-002     0.0000000000000000     
  -1.2600000000000000E-002     0.0000000000000000     
  -1.2299999999999998E-002     0.0000000000000000     
  -1.2000000000000000E-002     0.0000000000000000     
  -1.1699999999999999E-002     0.0000000000000000     
  -1.1399999999999999E-002     0.0000000000000000     
  -1.1099999999999999E-002     0.0000000000000000     
  -1.0799999999999999E-002     0.0000000000000000     
  -1.0499999999999999E-002     0.0000000000000000     
  -1.0199999999999999E-002     0.0000000000000000     
  -9.8999999999999991E-003     0.0000000000000000     
  -9.5999999999999992E-003     0.0000000000000000     
  -9.2999999999999992E-003     0.0000000000000000     
  -8.9999999999999993E-003     0.0000000000000000     
  -8.6999999999999994E-003     0.0000000000000000     
  -8.3999999999999995E-003     0.0000000000000000     
  -8.0999999999999996E-003     0.0000000000000000     
  -7.7999999999999988E-003     0.0000000000000000     
  -7.4999999999999997E-003     0.0000000000000000     
  -7.1999999999999998E-003     0.0000000000000000     
  -6.8999999999999981E-003     0.0000000000000000     
  -6.5999999999999982E-003     0.0000000000000000     
  -6.3000000000000000E-003     0.0000000000000000     
  -6.0000000000000001E-003     0.0000000000000000     
  -5.6999999999999985E-003     0.0000000000000000     
  -5.3999999999999986E-003     0.0000000000000000     
  -5.1000000000000004E-003     0.0000000000000000     
  -4.7999999999999987E-003     0.0000000000000000     
  -4.5000000000000005E-003     0.0000000000000000     
  -4.1999999999999989E-003     0.0000000000000000     
  -3.8999999999999990E-003     0.0000000000000000     
  -3.5999999999999990E-003     0.0000000000000000     
  -3.2999999999999991E-003     0.0000000000000000     
  -2.9999999999999992E-003     0.0000000000000000     
  -2.6999999999999993E-003     0.0000000000000000     
  -2.3999999999999994E-003     0.0000000000000000     
  -2.0999999999999977E-003     0.0000000000000000     
  -1.7999999999999995E-003     0.0000000000000000     
  -1.4999999999999979E-003     0.0000000000000000     
  -1.1999999999999997E-003     0.0000000000000000     
  -8.9999999999999976E-004     0.0000000000000000     
  -5.9999999999999810E-004     0.0000000000000000     
  -2.9999999999999992E-004     0.0000000000000000     
   0.0000000000000000          0.0000000000000000     
   3.0000000000000165E-004     0.0000000000000000     
   5.9999999999999984E-004     0.0000000000000000     
   9.0000000000000149E-004     0.0000000000000000     
   1.2000000000000031E-003     0.0000000000000000     
   1.5000000000000013E-003     0.0000000000000000     
   1.8000000000000030E-003     0.0000000000000000     
   2.1000000000000012E-003     0.0000000000000000     
   2.3999999999999994E-003     0.0000000000000000     
   2.7000000000000010E-003     0.0000000000000000     
   2.9999999999999992E-003     0.0000000000000000     
   3.3000000000000008E-003     0.0000000000000000     
   3.6000000000000025E-003     0.0000000000000000     
   3.9000000000000007E-003     0.0000000000000000     
   4.2000000000000023E-003     0.0000000000000000     
   4.5000000000000005E-003     0.0000000000000000     
   4.7999999999999987E-003     0.0000000000000000     
   5.1000000000000004E-003     0.0000000000000000     
   5.4000000000000020E-003     0.0000000000000000     
   5.7000000000000037E-003    -1.1578176772966880E-042
   5.9999999999999984E-003    -1.0241486862215512E-040
   6.3000000000000000E-003     3.4036316960336981E-038
   6.6000000000000017E-003     9.5355961159540316E-036
   6.9000000000000034E-003    -1.4821465409209098E-035
   7.2000000000000015E-003    -9.3634989296923045E-034
   7.5000000000000032E-003     3.5040262271732888E-033
   7.8000000000000014E-003     3.4866827292195708E-032
   8.0999999999999996E-003    -3.2461335547336376E-031
   8.4000000000000012E-003     2.9488182115912673E-031
   8.7000000000000029E-003     9.3008588311356056E-030
   9.0000000000000011E-003    -5.5068540273081365E-029
   9.2999999999999992E-003     3.4715085743080327E-029
   9.6000000000000009E-003     1.0883678267300491E-027
   9.8999999999999991E-003    -6.0997469926932750E-027
   1.0200000000000001E-002     1.0270983377925121E-026
   1.0500000000000002E-002     4.8348792548423327E-026
   1.0800000000000004E-002    -3.7727794822566376E-025
   1.1099999999999999E-002     1.1432297085604248E-024
   1.1400000000000000E-002    -9.3348628934862587E-025
   1.1700000000000002E-002    -7.2136254030903850E-024
   1.2000000000000004E-002     3.7644029251454151E-023
   1.2300000000000002E-002    -8.9538286792610263E-023
   1.2600000000000000E-002     6.0833661387092358E-023
   1.2900000000000002E-002     3.7113180481076701E-022
   1.3200000000000000E-002    -1.4925033635588750E-021
   1.3500000000000002E-002     1.4837560568692763E-021
   1.3800000000000003E-002     1.0719534969185327E-020
   1.4100000000000001E-002    -7.2873213014414336E-020
   1.4400000000000000E-002     2.8309887991831965E-019
   1.4700000000000001E-002    -8.5724722605923546E-019
   1.4999999999999999E-002     2.2455867214213972E-018
   1.5300000000000001E-002    -5.5024117777637186E-018
   1.5600000000000003E-002     1.3589475021299267E-017
   1.5899999999999997E-002    -3.4410420938831670E-017
   1.6199999999999999E-002     7.5529619353339838E-017
   1.6500000000000001E-002    -2.3872524970095930E-017
   1.6800000000000002E-002    -1.2727842962047213E-015
   1.7100000000000004E-002     1.1070705436430570E-014
   1.7400000000000006E-002    -6.4685907234656015E-014
   1.7700000000000000E-002     2.9820373120322650E-013
   1.8000000000000002E-002    -1.1013211444593381E-012
   1.8300000000000004E-002     3.0825083057461715E-012
   1.8600000000000005E-002    -5.1571761304222633E-012
   1.8900000000000000E-002    -3.9373358891440056E-012
   1.9200000000000002E-002     6.2170870653116920E-011
   1.9500000000000003E-002    -2.1733920954092806E-010
   1.9799999999999998E-002     3.2516270605708036E-010
   2.0100000000000000E-002     4.1256154737557651E-010
   2.0400000000000001E-002    -3.0916319065798047E-009
   2.0700000000000003E-002     5.0139290062985849E-009
   2.0999999999999998E-002     5.6547314652397552E-009
   2.1299999999999999E-002    -3.2410867957924322E-008
   2.1600000000000001E-002     1.8030093715933992E-008
   2.1900000000000003E-002     1.0810218707877377E-007
   2.2200000000000004E-002    -1.3626514903173165E-007
   2.2500000000000006E-002    -3.2175290415596082E-007
   2.2800000000000001E-002     4.0826441571787467E-007
   2.3100000000000002E-002     1.0292349389978354E-006
   2.3400000000000004E-002    -6.2388209084437052E-007
   2.3699999999999999E-002    -3.3963231376760669E-006
   2.4000000000000000E-002    -1.1404491461417290E-006
   2.4300000000000002E-002     1.2593265848467463E-005
   2.4599999999999997E-002     3.8657244231060254E-005
   2.4900000000000005E-002     7.3533973917193544E-005
   2.5200000000000000E-002     1.1687227265694874E-004
   2.5499999999999995E-002     1.7678933329935107E-004
   2.5800000000000003E-002     2.7003388966028168E-004
   2.6099999999999998E-002     4.1969660576087462E-004
   2.6400000000000007E-002     6.5353111145341242E-004
   2.6700000000000002E-002     1.0062514828086330E-003
   2.6999999999999996E-002     1.5256356257149456E-003
   2.7300000000000005E-002     2.2787880771779042E-003
   2.7600000000000000E-002     3.3571762366339949E-003
   2.7900000000000008E-002     4.8808794994304253E-003
   2.8200000000000003E-002     7.0021736986681637E-003
   2.8499999999999998E-002     9.9080078600880684E-003
   2.8800000000000006E-002     1.3820442352903117E-002
   2.9100000000000001E-002     1.8995588544925199E-002
   2.9400000000000003E-002     2.5718553609761031E-002
   2.9700000000000004E-002     3.4289247109506572E-002
   3.0000000000000006E-002     4.4998018759237160E-002
   3.0300000000000001E-002     5.8094135843155190E-002
   3.0600000000000002E-002     7.3742528604054988E-002
   3.0900000000000004E-002     9.1969415086923745E-002
   3.1199999999999999E-002    0.11259624870410349     
   3.1500000000000007E-002    0.13516580686838156     
   3.1800000000000002E-002    0.15887365665725639     
   3.2099999999999997E-002    0.18250136707493880     
   3.2400000000000005E-002    0.20437507374899480     
   3.2700000000000000E-002    0.22234935986673884     
   3.3000000000000002E-002    0.23383193101934768     
   3.3300000000000003E-002    0.23586877191115874     
   3.3599999999999998E-002    0.22528358902600684     
   3.3900000000000000E-002    0.19889145478169762     
   3.4200000000000001E-002    0.15377715442293000     
   3.4500000000000003E-002     8.7616828938449881E-002
   3.4799999999999998E-002    -9.7319423375354704E-004
   3.5099999999999999E-002   -0.11205745157553501     
   3.5400000000000001E-002   -0.24409580189657817     
   3.5699999999999996E-002   -0.39369576804114437     
   3.6000000000000004E-002   -0.55548310178486693     
   3.6299999999999999E-002   -0.72219485213976820     
   3.6600000000000008E-002   -0.88487741863486757     
   3.6900000000000002E-002    -1.0333185231094295     
   3.7199999999999997E-002    -1.1566780652739046     
   3.7500000000000006E-002    -1.2442036801833325     
   3.7800000000000000E-002    -1.2861115702171526     
   3.8100000000000009E-002    -1.2744462061719770     
   3.8400000000000004E-002    -1.2038688030799578     
   3.8699999999999998E-002    -1.0723470388685010     
   3.9000000000000007E-002   -0.88154432088071655     
   3.9300000000000002E-002   -0.63698024086927596     
   3.9600000000000003E-002   -0.34791455140468452     
   3.9900000000000005E-002    -2.6793697640071897E-002
   4.0200000000000000E-002    0.31149351704054340     
   4.0500000000000001E-002    0.65052878456349694     
   4.0800000000000003E-002    0.97362677169226308     
   4.1100000000000005E-002     1.2648749360736731     
   4.1399999999999999E-002     1.5102500723061949     
   4.1700000000000008E-002     1.6986250167421337     
   4.2000000000000003E-002     1.8223274007133594     
   4.2299999999999997E-002     1.8776004251928491     
   4.2600000000000006E-002     1.8646915685866210     
   4.2900000000000001E-002     1.7874989049970123     
   4.3200000000000002E-002     1.6531915774306931     
   4.3500000000000004E-002     1.4714614279586851     
   4.3799999999999999E-002     1.2536184591800148     
   4.4100000000000000E-002     1.0118615601765306     
   4.4400000000000002E-002    0.75825785906996890     
   4.4700000000000004E-002    0.50409077332349694     
   4.4999999999999998E-002    0.25927788131432106     
   4.5300000000000000E-002     3.1885765578297032E-002
   4.5600000000000002E-002   -0.17199346172892094     
   4.5899999999999996E-002   -0.34836697404883793     
   4.6200000000000005E-002   -0.49520190722350954     
   4.6500000000000000E-002   -0.61214712300463792     
   4.6799999999999994E-002   -0.70027791537407635     
   4.7100000000000003E-002   -0.76167635703864311     
   4.7399999999999998E-002   -0.79907686389693189     
   4.7700000000000006E-002   -0.81556168566778287     
   4.8000000000000001E-002   -0.81423859076952465     
   4.8300000000000010E-002   -0.79803180309502675     
   4.8600000000000004E-002   -0.76956016874091571     
   4.8899999999999999E-002   -0.73101154039270977     
   4.9200000000000008E-002   -0.68419140161779235     
   4.9500000000000002E-002   -0.63050724286597237     
   4.9800000000000011E-002   -0.57106242421818543     
   5.0100000000000006E-002   -0.50682170834205476     
   5.0400000000000000E-002   -0.43866179062185895     
   5.0700000000000009E-002   -0.36755832481721151     
   5.1000000000000004E-002   -0.29470243330509538     
   5.1299999999999998E-002   -0.22157972246751828     
   5.1600000000000007E-002   -0.15013561690763000     
   5.1900000000000002E-002    -8.2737937285068022E-002
   5.2200000000000010E-002    -2.2235233467087931E-002
   5.2500000000000005E-002     2.8068958228128049E-002
   5.2800000000000000E-002     6.4665103503492916E-002
   5.3099999999999994E-002     8.3909053188082727E-002
   5.3400000000000003E-002     8.2360701887973189E-002
   5.3699999999999998E-002     5.7149507091709711E-002
   5.4000000000000006E-002     6.2478059832034132E-003
   5.4300000000000001E-002    -7.1024839955279404E-002
   5.4599999999999996E-002   -0.17361696560305481     
   5.4900000000000004E-002   -0.29849254642627931     
   5.5199999999999999E-002   -0.44033219718642586     
   5.5499999999999994E-002   -0.59158770252434911     
   5.5800000000000002E-002   -0.74261432209156286     
   5.6099999999999997E-002   -0.88200245883572814     
   5.6400000000000006E-002   -0.99731969900619744     
   5.6700000000000000E-002    -1.0758147840848156     
   5.6999999999999995E-002    -1.1054204569029311     
   5.7300000000000004E-002    -1.0758705996253703     
   5.7599999999999998E-002   -0.97968422625938612     
   5.7900000000000007E-002   -0.81303888580137895     
   5.8200000000000002E-002   -0.57660713980246459     
   5.8499999999999996E-002   -0.27591903282158614     
   5.8800000000000005E-002     7.8777822736828984E-002
   5.9100000000000000E-002    0.47259574817823113     
   5.9400000000000008E-002    0.88703489367505373     
   5.9700000000000003E-002     1.3010765436406753     
   6.0000000000000012E-002     1.6923477254751813     
   6.0300000000000006E-002     2.0390291460061944     
   6.0600000000000001E-002     2.3211171829782566     
   6.0900000000000010E-002     2.5218734495576856     
   6.1200000000000004E-002     2.6292467690008356     
   6.1500000000000013E-002     2.6363819186575568     
   6.1800000000000008E-002     2.5421252718868468     
   6.2100000000000002E-002     2.3511274879816249     
   6.2399999999999997E-002     2.0731255344257522     
   6.2700000000000006E-002     1.7222941693236982     
   6.3000000000000000E-002     1.3161873228962881     
   6.3300000000000009E-002    0.87419590308125372     
   6.3600000000000004E-002    0.41650140887194753     
   6.3899999999999998E-002    -3.7245167746796287E-002
   6.4199999999999993E-002   -0.46932023235912401     
   6.4500000000000002E-002   -0.86426189324596492     
   6.4800000000000010E-002    -1.2098519436972908     
   6.5100000000000005E-002    -1.4974132810216261     
   6.5400000000000000E-002    -1.7214334200676051     
   6.5700000000000008E-002    -1.8798257215254992     
   6.5999999999999989E-002    -1.9733185242051672     
   6.6299999999999998E-002    -2.0047978629406749     
   6.6600000000000006E-002    -1.9791555191943080     
   6.6900000000000001E-002    -1.9025332730821543     
   6.7199999999999996E-002    -1.7818283034665210     
   6.7500000000000004E-002    -1.6247198031934427     
   6.7800000000000013E-002    -1.4391592673671216     
   6.8099999999999994E-002    -1.2333097591537556     
   6.8400000000000002E-002    -1.0158230811442390     
   6.8700000000000011E-002   -0.79542321741996413     
   6.8999999999999992E-002   -0.58112576996155496     
   6.9300000000000000E-002   -0.38220173364809751     
   6.9600000000000009E-002   -0.20750383434119060     
   6.9900000000000004E-002    -6.5410790502243854E-002
   7.0199999999999999E-002     3.6881861082526696E-002
   7.0500000000000007E-002     9.4301025231552510E-002
   7.0800000000000016E-002    0.10432001138933464     
   7.1099999999999997E-002     6.7926903231357028E-002
   7.1400000000000005E-002    -9.7033164724925555E-003
   7.1700000000000000E-002   -0.11923049902004622     
   7.1999999999999995E-002   -0.24702773638275896     
   7.2300000000000003E-002   -0.37573579611814195     
   7.2600000000000012E-002   -0.48558499417756706     
   7.2900000000000006E-002   -0.55567975208259490     
   7.3200000000000001E-002   -0.56598763672787433     
   7.3499999999999996E-002   -0.49965122735889467     
   7.3800000000000004E-002   -0.34479329116157037     
   7.4099999999999999E-002    -9.6434756012114542E-002
   7.4400000000000008E-002    0.24198606797278932     
   7.4700000000000003E-002    0.65830919701317303     
   7.5000000000000011E-002     1.1316005234797641     
   7.5299999999999992E-002     1.6332262802534570     
   7.5600000000000001E-002     2.1291133339798209     
   7.5900000000000009E-002     2.5819748012922523     
   7.6200000000000004E-002     2.9545853663340687     
   7.6499999999999999E-002     3.2132525573578272     
   7.6800000000000007E-002     3.3304866980806254     
   7.7099999999999988E-002     3.2879016329915172     
   7.7399999999999997E-002     3.0781992217088483     
   7.7700000000000005E-002     2.7056250428815174     
   7.8000000000000014E-002     2.1862589546581956     
   7.8299999999999995E-002     1.5467646742636652     
   7.8600000000000003E-002    0.82201527697296506     
   7.8900000000000012E-002     5.2610559674843321E-002
   7.9199999999999993E-002   -0.71836648064242448     
   7.9500000000000001E-002    -1.4489064791337924     
   7.9800000000000010E-002    -2.1009855924040584     
   8.0100000000000018E-002    -2.6431640636052838     
   8.0399999999999999E-002    -3.0527855974409861     
   8.0700000000000008E-002    -3.3166790344418606     
   8.1000000000000003E-002    -3.4316371072917358     
   8.1299999999999997E-002    -3.4037861800225628     
   8.1600000000000006E-002    -3.2469053831832850     
   8.1900000000000014E-002    -2.9809384659296274     
   8.2199999999999995E-002    -2.6296101098487057     
   8.2500000000000004E-002    -2.2180417081049808     
   8.2799999999999999E-002    -1.7710036217732337     
   8.3100000000000007E-002    -1.3107600725629276     
   8.3400000000000002E-002   -0.85599515962132500     
   8.3700000000000011E-002   -0.42101944312945327     
   8.4000000000000005E-002    -1.5427499491994200E-002
   8.4300000000000000E-002    0.35551814983475144     
   8.4599999999999995E-002    0.69033876823565254     
   8.4900000000000003E-002    0.99028176433988813     
   8.5199999999999998E-002     1.2583705472494395     
   8.5500000000000007E-002     1.4982473984128406     
   8.5800000000000001E-002     1.7132002654363545     
   8.6100000000000010E-002     1.9053610232046339     
   8.6399999999999991E-002     2.0748996150557013     
   8.6699999999999999E-002     2.2200905123941541     
   8.7000000000000008E-002     2.3370957526803395     
   8.7300000000000003E-002     2.4200642956118417     
   8.7599999999999997E-002     2.4621753918514226     
   8.7900000000000006E-002     2.4557705772925966     
   8.8200000000000014E-002     2.3934234072615244     
   8.8499999999999995E-002     2.2690929962878705     
   8.8800000000000004E-002     2.0784148763082864     
   8.9100000000000013E-002     1.8199628448761811     
   8.9399999999999993E-002     1.4957273956835782     
   8.9700000000000002E-002     1.1112400853216333     
   9.0000000000000011E-002    0.67603293478845083     
   9.0299999999999991E-002    0.20313735001410993     
   9.0600000000000000E-002   -0.29157955884966819     
   9.0900000000000009E-002   -0.78998879502745778     
   9.1200000000000017E-002    -1.2730265702210457     
   9.1499999999999998E-002    -1.7218895836406856     
   9.1800000000000007E-002    -2.1191097509702885     
   9.2100000000000001E-002    -2.4497208589923840     
   9.2399999999999996E-002    -2.7024941050460978     
   9.2700000000000005E-002    -2.8701458373411826     
   9.3000000000000013E-002    -2.9497759398796983     
   9.3300000000000008E-002    -2.9429881822223001     
   9.3600000000000003E-002    -2.8547521181367719     
   9.3899999999999997E-002    -2.6930914238783554     
   9.4200000000000006E-002    -2.4681631133257556     
   9.4500000000000001E-002    -2.1905360638069178     
   9.4800000000000009E-002    -1.8710226698835566     
   9.5100000000000004E-002    -1.5194967561882560     
   9.5399999999999999E-002    -1.1439895746633513     
   9.5699999999999993E-002   -0.75152264643619526     
   9.6000000000000002E-002   -0.34767150936869912     
   9.6300000000000011E-002     6.2795663930574591E-002
   9.6600000000000005E-002    0.47463615853965430     
   9.6900000000000000E-002    0.88184846734510036     
   9.7200000000000009E-002     1.2766609489323923     
   9.7499999999999989E-002     1.6486745336072688     
   9.7799999999999998E-002     1.9853389199251419     
   9.8100000000000007E-002     2.2718073107490149     
   9.8400000000000015E-002     2.4915991204289050     
   9.8699999999999996E-002     2.6285092078126913     
   9.9000000000000005E-002     2.6675772607844239     
   9.9300000000000013E-002     2.5969561559565228     
   9.9599999999999994E-002     2.4102222240269384     
   9.9900000000000003E-002     2.1072745589873363     
  0.10020000000000001          1.6956369397019371     
  0.10049999999999999          1.1913031110145875     
  0.10080000000000000         0.61768897930207700     
  0.10110000000000001          5.0830798365048974E-003
  0.10140000000000000        -0.61098065062978935     
  0.10170000000000000         -1.1930335761318638     
  0.10200000000000001         -1.7035231507692026     
  0.10230000000000002         -2.1081761734781201     
  0.10260000000000000         -2.3794530237459379     
  0.10290000000000001         -2.4978296476241084     
  0.10320000000000000         -2.4545444986950380     
  0.10350000000000001         -2.2525819398227371     
  0.10380000000000000         -1.9057679899232292     
  0.10410000000000001         -1.4390691892863479     
  0.10440000000000001        -0.88619522842880993     
  0.10470000000000000        -0.28678809601901023     
  0.10500000000000000         0.31557000414171965     
  0.10530000000000000         0.87746545656701147     
  0.10560000000000000          1.3584878875684006     
  0.10590000000000001          1.7235687697884976     
  0.10620000000000000          1.9464498683932949     
  0.10650000000000001          2.0107119507471989     
  0.10679999999999999          1.9107977306342230     
  0.10710000000000000          1.6530390971183142     
  0.10740000000000001          1.2543884483101539     
  0.10770000000000000         0.74187395562012726     
  0.10800000000000000         0.15108238083502201     
  0.10830000000000001        -0.47664656364754743     
  0.10859999999999999         -1.0960712033090316     
  0.10890000000000000         -1.6610162795353494     
  0.10920000000000001         -2.1276546499907405     
  0.10950000000000001         -2.4569203083840163     
  0.10979999999999999         -2.6174631915258191     
  0.11009999999999999         -2.5880229606770921     
  0.11040000000000001         -2.3592165761952746     
  0.11070000000000001         -1.9350818265728336     
  0.11100000000000000         -1.3331409987509000     
  0.11130000000000000        -0.58398819232727195     
  0.11160000000000002         0.26996152893607478     
  0.11190000000000001          1.1770783624492824     
  0.11220000000000001          2.0797148024037688     
  0.11250000000000000          2.9176895795057374     
  0.11280000000000000          3.6327512660675141     
  0.11309999999999999          4.1729443844627392     
  0.11340000000000001          4.4960055082714163     
  0.11369999999999998          4.5731273873255969     
  0.11400000000000000          4.3913747017435565     
  0.11430000000000000          3.9548297512011104     
  0.11460000000000002          3.2851331772535439     
  0.11489999999999999          2.4197348716328766     
  0.11520000000000001          1.4100808527442474     
  0.11550000000000001         0.31818642501536282     
  0.11580000000000000        -0.78816444989868684     
  0.11609999999999999         -1.8392922122960018     
  0.11640000000000002         -2.7686836404925139     
  0.11670000000000001         -3.5182051160427879     
  0.11700000000000001         -4.0413150450924675     
  0.11730000000000000         -4.3067778826759220     
  0.11760000000000000         -4.3010892573114239     
  0.11789999999999999         -4.0285616155125030     
  0.11820000000000001         -3.5118350895875770     
  0.11850000000000001         -2.7898732992793409     
  0.11880000000000000         -1.9146801839651291     
  0.11910000000000000        -0.94854491503500760     
  0.11940000000000002          4.1290731399621944E-002
  0.11970000000000001         0.98730709767224112     
  0.12000000000000001          1.8258165323191580     
  0.12030000000000000          2.5025731562968456     
  0.12060000000000000          2.9757374842657378     
  0.12089999999999999          3.2184624503381642     
  0.12119999999999999          3.2215342399648095     
  0.12150000000000001          2.9926281883032542     
  0.12180000000000001          2.5557957088102254     
  0.12210000000000000          1.9496601962789306     
  0.12239999999999999          1.2231128157416422     
  0.12270000000000002         0.43228089649578094     
  0.12300000000000001        -0.36409085600016988     
  0.12330000000000001         -1.1101279766894572     
  0.12360000000000000         -1.7557370340013352     
  0.12390000000000000         -2.2608453840064553     
  0.12419999999999999         -2.5987451883752581     
  0.12450000000000001         -2.7563087621279636     
  0.12480000000000001         -2.7354780362981512     
  0.12509999999999999         -2.5521745978642425     
  0.12540000000000001         -2.2333024501103678     
  0.12570000000000003         -1.8152055475010687     
  0.12600000000000000         -1.3392018520971871     
  0.12630000000000002        -0.84729669618779435     
  0.12659999999999999        -0.37950761526325127     
  0.12690000000000001          3.0702100472152410E-002
  0.12719999999999998         0.35870821879712256     
  0.12750000000000000         0.59003543275575021     
  0.12780000000000002         0.72173896576621255     
  0.12809999999999999         0.76125789234897290     
  0.12840000000000001         0.72470377523420038     
  0.12869999999999998         0.63481254600157144     
  0.12900000000000000         0.51740992510045503     
  0.12930000000000003         0.39796943286660724     
  0.12959999999999999         0.29891383217727829     
  0.12990000000000002         0.23657207929237722     
  0.13019999999999998         0.21919767871955914     
  0.13050000000000000         0.24673408939078889     
  0.13080000000000003         0.31066030007755602     
  0.13109999999999999         0.39532864198156953     
  0.13140000000000002         0.48093897696961119     
  0.13169999999999998         0.54569732675999150     
  0.13200000000000001         0.56931761288955052     
  0.13229999999999997         0.53645898718262730     
  0.13260000000000000         0.43796938765947480     
  0.13290000000000002         0.27326014901107287     
  0.13319999999999999          5.0756785303324933E-002
  0.13350000000000001        -0.21374537727090903     
  0.13380000000000003        -0.49781346113469027     
  0.13410000000000000        -0.77549859197337701     
  0.13440000000000002         -1.0208745743302914     
  0.13469999999999999         -1.2101523844571640     
  0.13500000000000001         -1.3254936390115262     
  0.13529999999999998         -1.3568808503436491     
  0.13560000000000000         -1.3026837067641419     
  0.13590000000000002         -1.1706730423410900     
  0.13619999999999999        -0.97634396721154948     
  0.13650000000000001        -0.74090574907975559     
  0.13680000000000003        -0.48936174556396050     
  0.13710000000000000        -0.24697542873451972     
  0.13740000000000002         -3.6495442697236036E-002
  0.13769999999999999         0.12362011515846733     
  0.13800000000000001         0.22154650554386796     
  0.13829999999999998         0.25303220681385663     
  0.13860000000000000         0.22078645065537938     
  0.13890000000000002         0.13423940143541563     
  0.13919999999999999          8.2126783490502342E-003
  0.13950000000000001        -0.13947737342306621     
  0.13979999999999998        -0.28920962141575507     
  0.14010000000000000        -0.42149250809400696     
  0.14040000000000002        -0.51874693007742501     
  0.14069999999999999        -0.56551683289647436     
  0.14100000000000001        -0.54965881960014162     
  0.14130000000000004        -0.46232743196581405     
  0.14160000000000000        -0.29708709386286369     
  0.14189999999999997         -5.0634457874361438E-002
  0.14219999999999999         0.27792217546040437     
  0.14250000000000002         0.68756417202593667     
  0.14279999999999998          1.1740377619311932     
  0.14310000000000000          1.7304940193108334     
  0.14339999999999997          2.3466103936229845     
  0.14369999999999999          3.0070096767713057     
  0.14400000000000002          3.6919869709893764     
  0.14429999999999998          4.3767475739242006     
  0.14460000000000001          5.0315427621081712     
  0.14490000000000003          5.6233450108192695     
  0.14520000000000000          6.1168903814759252     
  0.14550000000000002          6.4771662694958296     
  0.14579999999999999          6.6719396989134125     
  0.14610000000000001          6.6742536395370049     
  0.14640000000000003          6.4650017590919280     
  0.14670000000000000          6.0349210853192572     
  0.14699999999999996          5.3856115314604907     
  0.14729999999999999          4.5299019334873663     
  0.14760000000000001          3.4912631009148267     
  0.14789999999999998          2.3018755660731900     
  0.14820000000000000          1.0006255951346790     