  -1.4999999999999999E-002     0.0000000000000000     
  -1.4700000000000000E-002     0.0000000000000000     
  -1.4400000000000000E-002     0.0000000000000000     
  -1.4100000000000000E-002     0.0000000000000000     
  -1.3800000000000000E-002     0.0000000000000000     
  -1.3500000000000000E-002     0.0000000000000000     
  -1.3200000000000000E-002     0.0000000000000000     
  -1.2899999999999998E-002     0.0000000000000000     
  -1.2600000000000000E-002     0.0000000000000000     
  -1.2299999999999998E-002     0.0000000000000000     
  -1.2000000000000000E-002     0.0000000000000000     
  -1.1699999999999999E-002     0.0000000000000000     
  -1.1399999999999999E-002    -2.0959294598834624E-058
  -1.1099999999999999E-002     3.1746255947722602E-044
  -1.0799999999999999E-002     3.8360600226027269E-036
  -1.0499999999999999E-002    -1.9073693256381856E-035
  -1.0199999999999999E-002    -1.3764200048065056E-033
  -9.8999999999999991E-003     1.9772654177622280E-032
  -9.5999999999999992E-003    -2.3389773012392575E-031
  -9.2999999999999992E-003     3.0720779149911642E-030
  -8.9999999999999993E-003    -3.4806090203170840E-029
  -8.6999999999999994E-003     2.9900642455408271E-028
  -8.3999999999999995E-003    -1.9162699649340899E-027
  -8.0999999999999996E-003     9.2937772484864542E-027
  -7.7999999999999988E-003    -3.4791198535708417E-026
  -7.4999999999999997E-003     1.0257322415719729E-025
  -7.1999999999999998E-003    -2.4318168879202787E-025
  -6.8999999999999981E-003     4.8196741747909306E-025
  -6.5999999999999982E-003    -9.5647640851443768E-025
  -6.3000000000000000E-003     3.1583234843778661E-024
  -6.0000000000000001E-003    -1.7356607466986942E-023
  -5.6999999999999985E-003     9.4642712228781182E-023
  -5.3999999999999986E-003    -4.3071124273905568E-022
  -5.1000000000000004E-003     1.6138209208423605E-021
  -4.7999999999999987E-003    -5.0105685556571077E-021
  -4.5000000000000005E-003     1.2847327290702677E-020
  -4.1999999999999989E-003    -2.6341089709477048E-020
  -3.8999999999999990E-003     3.7909481519960739E-020
  -3.5999999999999990E-003    -1.0491133198671475E-020
  -3.2999999999999991E-003    -1.6397406295293847E-019
  -2.9999999999999992E-003     7.2724458039950217E-019
  -2.6999999999999993E-003    -2.1117101472547757E-018
  -2.3999999999999994E-003     4.9030577936940587E-018
  -2.0999999999999977E-003    -9.5082739863112658E-018
  -1.7999999999999995E-003     1.5168784347564612E-017
  -1.4999999999999979E-003    -1.7899021329125435E-017
  -1.1999999999999997E-003     7.5966872229015935E-018
  -8.9999999999999976E-004     3.2820165722734816E-017
  -5.9999999999999810E-004    -1.1859825133395345E-016
  -2.9999999999999992E-004     2.3501242226554251E-016
   0.0000000000000000         -2.9428374347613770E-016
   3.0000000000000165E-004     1.2321251042850360E-016
   5.9999999999999984E-004     4.2676140241155947E-016
   9.0000000000000149E-004    -1.1873077773098764E-015
   1.2000000000000031E-003     1.3399553867775685E-015
   1.5000000000000013E-003     5.0883822013494001E-016
   1.8000000000000030E-003    -5.3109957491797358E-015
   2.1000000000000012E-003     1.1626136647862365E-014
   2.3999999999999994E-003    -1.3843007347711573E-014
   2.7000000000000010E-003     2.3593024126551025E-015
   2.9999999999999992E-003     3.3863898868283559E-014
   3.3000000000000008E-003    -1.0549304385486704E-013
   3.6000000000000025E-003     2.2168325559555194E-013
   3.9000000000000007E-003    -3.5269171237724230E-013
   4.2000000000000023E-003     2.4361232153554292E-013
   4.5000000000000005E-003     9.3886321417013171E-013
   4.7999999999999987E-003    -4.2134385105576335E-012
   5.1000000000000004E-003     6.4220535299874460E-012
   5.4000000000000020E-003     1.2488033250298556E-011
   5.7000000000000037E-003    -1.0334048190126973E-010
   5.9999999999999984E-003     3.0358413017887516E-010
   6.3000000000000000E-003    -3.6293476479119742E-010
   6.6000000000000017E-003    -9.0213460779285396E-010
   6.9000000000000034E-003     5.5585279493820982E-009
   7.2000000000000015E-003    -1.1260102867631807E-008
   7.5000000000000032E-003    -2.2790163323858439E-009
   7.8000000000000014E-003     6.6397715221029669E-008
   8.0999999999999996E-003    -1.2130787886418740E-007
   8.4000000000000012E-003    -9.7921947733181821E-008
   8.7000000000000029E-003     6.2170059176278084E-007
   9.0000000000000011E-003    -2.5177501937576021E-007
   9.2999999999999992E-003    -1.9788220246245812E-006
   9.6000000000000009E-003     1.3523916171992467E-006
   9.8999999999999991E-003     5.6663935263352422E-006
   1.0200000000000001E-002    -2.1811468406398926E-006
   1.0500000000000002E-002    -1.6800377683147586E-005
   1.0800000000000004E-002    -5.7260477036766877E-006
   1.1099999999999999E-002     5.9128480065353288E-005
   1.1400000000000000E-002     1.6823397539188700E-004
   1.1700000000000002E-002     2.9139120388492956E-004
   1.2000000000000004E-002     4.2363107143706763E-004
   1.2300000000000002E-002     5.9881385042802966E-004
   1.2600000000000000E-002     8.8350794752282047E-004
   1.2900000000000002E-002     1.3637691439950239E-003
   1.3200000000000000E-002     2.1193904256395528E-003
   1.3500000000000002E-002     3.2382830609444819E-003
   1.3800000000000003E-002     4.8573685943630318E-003
   1.4100000000000001E-002     7.1693928610267908E-003
   1.4400000000000000E-002     1.0424273724921109E-002
   1.4700000000000001E-002     1.4945746378888727E-002
   1.4999999999999999E-002     2.1136853264012302E-002
   1.5300000000000001E-002     2.9457343666406902E-002
   1.5600000000000003E-002     4.0397955695993630E-002
   1.5899999999999997E-002     5.4489917637437150E-002
   1.6199999999999999E-002     7.2275665317110702E-002
   1.6500000000000001E-002     9.4202024984825203E-002
   1.6800000000000002E-002    0.12053260937639799     
   1.7100000000000004E-002    0.15126016162388767     
   1.7400000000000006E-002    0.18595392637640237     
   1.7700000000000000E-002    0.22357413034350740     
   1.8000000000000002E-002    0.26229767594948789     
   1.8300000000000004E-002    0.29936723725804143     
   1.8600000000000005E-002    0.33096115792117015     
   1.8900000000000000E-002    0.35215591516517714     
   1.9200000000000002E-002    0.35697614299782737     
   1.9500000000000003E-002    0.33854146823851128     
   1.9799999999999998E-002    0.28943325793461389     
   2.0100000000000000E-002    0.20221173438126772     
   2.0400000000000001E-002     7.0140506901667787E-002
   2.0700000000000003E-002   -0.11197829255320592     
   2.0999999999999998E-002   -0.34676786453605907     
   2.1299999999999999E-002   -0.63328740926109572     
   2.1600000000000001E-002   -0.96613323633898818     
   2.1900000000000003E-002    -1.3347256994606937     
   2.2200000000000004E-002    -1.7229657023034650     
   2.2500000000000006E-002    -2.1092528183128754     
   2.2800000000000001E-002    -2.4672259380788701     
   2.3100000000000002E-002    -2.7671176657649390     
   2.3400000000000004E-002    -2.9775423393344043     
   2.3699999999999999E-002    -3.0678746136655533     
   2.4000000000000000E-002    -3.0109986653750012     
   2.4300000000000002E-002    -2.7860242573467024     
   2.4599999999999997E-002    -2.3811701732963382     
   2.4900000000000005E-002    -1.7958656392066081     
   2.5200000000000000E-002    -1.0420270548131982     
   2.5499999999999995E-002   -0.14474395382591776     
   2.5800000000000003E-002    0.85872405302458243     
   2.6099999999999998E-002     1.9206701502466723     
   2.6400000000000007E-002     2.9859473125628231     
   2.6700000000000002E-002     3.9957427990677519     
   2.6999999999999996E-002     4.8917849598665057     
   2.7300000000000005E-002     5.6208475593448357     
   2.7600000000000000E-002     6.1388500991054826     
   2.7900000000000008E-002     6.4144133545471593     
   2.8200000000000003E-002     6.4309228876324651     
   2.8499999999999998E-002     6.1878932781695521     
   2.8800000000000006E-002     5.7006782067795356     
   2.9100000000000001E-002     4.9986446452441102     
   2.9400000000000003E-002     4.1227180987932552     
   2.9700000000000004E-002     3.1215929424517546     
   3.0000000000000006E-002     2.0478872060291207     
   3.0300000000000001E-002    0.95385956285705054     
   3.0600000000000002E-002   -0.11220010409016085     
   3.0900000000000004E-002    -1.1092508503295058     
   3.1199999999999999E-002    -2.0060261487991107     
   3.1500000000000007E-002    -2.7815162400529978     
   3.1800000000000002E-002    -3.4258975629190660     
   3.2099999999999997E-002    -3.9389870119365971     
   3.2400000000000005E-002    -4.3282907195053859     
   3.2700000000000000E-002    -4.6073787569188127     
   3.3000000000000002E-002    -4.7915585512776797     
   3.3300000000000003E-002    -4.8962066712754977     
   3.3599999999999998E-002    -4.9340456099516441     
   3.3900000000000000E-002    -4.9121120533689435     
   3.4200000000000001E-002    -4.8318665538681671     
   3.4500000000000003E-002    -4.6880982345799795     
   3.4799999999999998E-002    -4.4694984245852369     
   3.5099999999999999E-002    -4.1612041089534193     
   3.5400000000000001E-002    -3.7462243865271816     
   3.5699999999999996E-002    -3.2092999905219513     
   3.6000000000000004E-002    -2.5402201680983820     
   3.6299999999999999E-002    -1.7360166077119537     
   3.6600000000000008E-002   -0.80477861411229623     
   3.6900000000000002E-002    0.23336585917093478     
   3.7199999999999997E-002     1.3458604551667006     
   3.7500000000000006E-002     2.4875122735211495     
   3.7800000000000000E-002     3.6036813158075267     
   3.8100000000000009E-002     4.6332595852268312     
   3.8400000000000004E-002     5.5125888403569032     
   3.8699999999999998E-002     6.1814536046240427     
   3.9000000000000007E-002     6.5874561469834942     
   3.9300000000000002E-002     6.6911348524596006     
   3.9600000000000003E-002     6.4703630454672876     
   3.9900000000000005E-002     5.9222949617852496     
   4.0200000000000000E-002     5.0655911481257494     
   4.0500000000000001E-002     3.9398653309762737     
   4.0800000000000003E-002     2.6028400823780466     
   4.1100000000000005E-002     1.1276108478507298     
   4.1399999999999999E-002   -0.40279500464235407     
   4.1700000000000008E-002    -1.9014717521406652     
   4.2000000000000003E-002    -3.2828402323978931     
   4.2299999999999997E-002    -4.4699309365195639     
   4.2600000000000006E-002    -5.3995112006411867     
   4.2900000000000001E-002    -6.0256704250884576     
   4.3200000000000002E-002    -6.3240827610585670     
   4.3500000000000004E-002    -6.2927140213135102     
   4.3799999999999999E-002    -5.9512942982441261     
   4.4100000000000000E-002    -5.3400843864704868     
   4.4400000000000002E-002    -4.5154245071063510     
   4.4700000000000004E-002    -3.5456637874226540     
   4.4999999999999998E-002    -2.5058971706185376     
   4.5300000000000000E-002    -1.4710448387266284     
   4.5600000000000002E-002   -0.51117634762411002     
   4.5899999999999996E-002    0.31379794185757748     
   4.6200000000000005E-002    0.95907297722890772     
   4.6500000000000000E-002     1.3967217155237621     
   4.6799999999999994E-002     1.6179237416139125     
   4.7100000000000003E-002     1.6329542414238620     
   4.7399999999999998E-002     1.4684034444899101     
   4.7700000000000006E-002     1.1653080784616439     
   4.8000000000000001E-002    0.77461879298320990     
   4.8300000000000010E-002    0.35164271146284093     
   4.8600000000000004E-002    -4.8149028906427173E-002
   4.8899999999999999E-002   -0.37511994547455257     
   4.9200000000000008E-002   -0.58936627187685053     
   4.9500000000000002E-002   -0.66370055038178533     
   4.9800000000000011E-002   -0.58687743984855612     
   5.0100000000000006E-002   -0.36283835664340486     
   5.0400000000000000E-002    -9.6170869126718395E-003
   5.0700000000000009E-002    0.44261319479344735     
   5.1000000000000004E-002    0.95648733900203309     
   5.1299999999999998E-002     1.4916479756089798     
   5.1600000000000007E-002     2.0098176552409717     
   5.1900000000000002E-002     2.4801381575515355     
   5.2200000000000010E-002     2.8819497959227682     
   5.2500000000000005E-002     3.2075654775676234     
   5.2800000000000000E-002     3.4631049304376629     
   5.3099999999999994E-002     3.6663000596447834     
   5.3400000000000003E-002     3.8437798368760201     
   5.3699999999999998E-002     4.0265858851727012     
   5.4000000000000006E-002     4.2440374914212402     
   5.4300000000000001E-002     4.5186985902414953     
   5.4599999999999996E-002     4.8613375949861393     
   5.4900000000000004E-002     5.2665238060234811     
   5.5199999999999999E-002     5.7117385867019292     
   5.5499999999999994E-002     6.1573620118276899     
   5.5800000000000002E-002     6.5487347112706020     
   5.6099999999999997E-002     6.8219757612015082     
   5.6400000000000006E-002     6.9091082064060050     
   5.6700000000000000E-002     6.7451496292407525     
   5.6999999999999995E-002     6.2761740364466707     
   5.7300000000000004E-002     5.4642461696201599     
   5.7599999999999998E-002     4.2927744797111345     
   5.7900000000000007E-002     2.7699381560979672     
   5.8200000000000002E-002    0.92824992576511889     
   5.8499999999999996E-002    -1.1757194983427888     
   5.8800000000000005E-002    -3.4652176270826294     
   5.9100000000000000E-002    -5.8487982338611033     
   5.9400000000000008E-002    -8.2250086040644081     
   5.9700000000000003E-002    -10.489156510456437     
   6.0000000000000012E-002    -12.540280262069718     
   6.0300000000000006E-002    -14.284836800482827     
   6.0600000000000001E-002    -15.642329332850782     
   6.0900000000000010E-002    -16.548745328169137     
   6.1200000000000004E-002    -16.957417684257731     
   6.1500000000000013E-002    -16.842383570094977     
   6.1800000000000008E-002    -16.197188517234736     
   6.2100000000000002E-002    -15.035098135812797     
   6.2399999999999997E-002    -13.389212555980926     
   6.2700000000000006E-002    -11.309628292076658     
   6.3000000000000000E-002    -8.8641210746476435     
   6.3300000000000009E-002    -6.1351546501742611     
   6.3600000000000004E-002    -3.2172624679812638     
   6.3899999999999998E-002   -0.21596323421392499     
   6.4199999999999993E-002     2.7571155837243810     
   6.4500000000000002E-002     5.5882548720753391     
   6.4800000000000010E-002     8.1651274041394348     
   6.5100000000000005E-002     10.383645819208617     
   6.5400000000000000E-002     12.152853899042121     
   6.5700000000000008E-002     13.400191327363908     
   6.5999999999999989E-002     14.076956813969337     
   6.6299999999999998E-002     14.161430424264219     
   6.6600000000000006E-002     13.662045500726695     
   6.6900000000000001E-002     12.618279394770685     
   6.7199999999999996E-002     11.098740395617870     
   6.7500000000000004E-002     9.1988045254640429     
   6.7800000000000013E-002     7.0353817742946676     
   6.8099999999999994E-002     4.7394946055130411     
   6.8400000000000002E-002     2.4492133747247498     
   6.8700000000000011E-002    0.30074561340507944     
   6.8999999999999992E-002    -1.5810821783996416     
   6.9300000000000000E-002    -3.0901048817837840     
   6.9600000000000009E-002    -4.1462863872251710     
   6.9900000000000004E-002    -4.7017735795265390     
   7.0199999999999999E-002    -4.7436394029180340     
   7.0500000000000007E-002    -4.2947267436364553     
   7.0800000000000016E-002    -3.4125342998408632     
   7.1099999999999997E-002    -2.1848666344338290     
   7.1400000000000005E-002   -0.72275528807471290     
   7.1700000000000000E-002    0.84725894978847838     
   7.1999999999999995E-002     2.3930138561985865     
   7.2300000000000003E-002     3.7868437831030621     
   7.2600000000000012E-002     4.9157236532730373     
   7.2900000000000006E-002     5.6905259201461176     
   7.3200000000000001E-002     6.0517920853624450     
   7.3499999999999996E-002     5.9754351953200473     
   7.3800000000000004E-002     5.4741610542593895     
   7.4099999999999999E-002     4.5944708249703998     
   7.4400000000000008E-002     3.4136586243570810     
   7.4700000000000003E-002     2.0312933033688179     
   7.5000000000000011E-002    0.55920271986533587     
   7.5299999999999992E-002   -0.88722526095498322     
   7.5600000000000001E-002    -2.2015274976575041     
   7.5900000000000009E-002    -3.2946581614323320     
   7.6200000000000004E-002    -4.1024234624616787     
   7.6499999999999999E-002    -4.5917361451825380     
   7.6800000000000007E-002    -4.7601226162313779     
   7.7099999999999988E-002    -4.6360324128446466     
   7.7399999999999997E-002    -4.2739818542815167     
   7.7700000000000005E-002    -3.7456302714811653     
   7.8000000000000014E-002    -3.1336679091311326     
   7.8299999999999995E-002    -2.5210661073431582     
   7.8600000000000003E-002    -1.9820585220800815     
   7.8900000000000012E-002    -1.5760392789670237     
   7.9199999999999993E-002    -1.3410673768391517     
   7.9500000000000001E-002    -1.2922012152539399     
   7.9800000000000010E-002    -1.4216055251465125     
   8.0100000000000018E-002    -1.7007077453585391     
   8.0399999999999999E-002    -2.0864928703334629     
   8.0700000000000008E-002    -2.5269488108287192     
   8.1000000000000003E-002    -2.9676937158079415     
   8.1299999999999997E-002    -3.3593360740070177     
   8.1600000000000006E-002    -3.6620368533923644     
   8.1900000000000014E-002    -3.8488983828612140     
   8.2199999999999995E-002    -3.9084641719211954     
   8.2500000000000004E-002    -3.8433234461945358     
   8.2799999999999999E-002    -3.6678125536748070     
   8.3100000000000007E-002    -3.4052321435895365     
   8.3400000000000002E-002    -3.0825428288193857     
   8.3700000000000011E-002    -2.7264224579351990     
   8.4000000000000005E-002    -2.3598259735350915     
   8.4300000000000000E-002    -1.9989286469465384     
   8.4599999999999995E-002    -1.6527422246673646     
   8.4900000000000003E-002    -1.3230615223090738     
   8.5199999999999998E-002    -1.0055783160586147     
   8.5500000000000007E-002   -0.69331552461440193     
   8.5800000000000001E-002   -0.37820401959124683     
   8.6100000000000010E-002    -5.3599908987177779E-002
   8.6399999999999991E-002    0.28378153004824119     
   8.6699999999999999E-002    0.63504623262381588     
   8.7000000000000008E-002    0.99869532124019822     
   8.7300000000000003E-002     1.3721928267753027     
   8.7599999999999997E-002     1.7562328459877721     
   8.7900000000000006E-002     2.1542526594871036     
   8.8200000000000014E-002     2.5748235345099566     
   8.8499999999999995E-002     3.0317356021752428     
   8.8800000000000004E-002     3.5404646121080114     
   8.9100000000000013E-002     4.1173064745627439     
   8.9399999999999993E-002     4.7732088937038473     
   8.9700000000000002E-002     5.5092547658785236     
   9.0000000000000011E-002     6.3151711111487856     
   9.0299999999999991E-002     7.1642302516777905     
   9.0600000000000000E-002     8.0153860433585820     
   9.0900000000000009E-002     8.8168396644626252     
   9.1200000000000017E-002     9.5099596927179899     
   9.1499999999999998E-002     10.039301409440776     
   9.1800000000000007E-002     10.359668280212045     
   9.2100000000000001E-002     10.444316415283117     
   9.2399999999999996E-002     10.291640781044677     
   9.2700000000000005E-002     9.9249920933564795     
   9.3000000000000013E-002     9.3917307734934177     
   9.3300000000000008E-002     8.7560658073427202     
   9.3600000000000003E-002     8.0858349108106378     
   9.3899999999999997E-002     7.4402078539826499     
   9.4200000000000006E-002     6.8541215417044352     
   9.4500000000000001E-002     6.3243282345532483     
   9.4800000000000009E-002     5.8016798475537605     
   9.5100000000000004E-002     5.1871277623382239     
   9.5399999999999999E-002     4.3377228701178874     
   9.5699999999999993E-002     3.0795576478875577     
   9.6000000000000002E-002     1.2274273465332755     
   9.6300000000000011E-002    -1.3867469359642894     
   9.6600000000000005E-002    -4.8878803242157725     
   9.6900000000000000E-002    -9.3271691530670093     
   9.7200000000000009E-002    -14.658637970417521     
   9.7499999999999989E-002    -20.725142698258132     
   9.7799999999999998E-002    -27.250945561334323     
   9.8100000000000007E-002    -33.852170697494628     
   9.8400000000000015E-002    -40.057561833245217     
   9.8699999999999996E-002    -45.341158027501450     
   9.9000000000000005E-002    -49.168443882140529     
   9.9300000000000013E-002    -51.041868417008175     
   9.9599999999999994E-002    -50.552789805049102     
   9.9900000000000003E-002    -47.428655550445200     
  0.10020000000000001         -41.565507522385651     
  0.10049999999999999         -33.055497369921873     
  0.10080000000000000         -22.191403122157919     
  0.10110000000000001         -9.4538404140590799     
  0.10140000000000000          4.5129336599195993     
  0.10170000000000000          18.949490570194019     
  0.10200000000000001          33.034570311690452     
  0.10230000000000002          45.943319433402309     
  0.10260000000000000          56.914267113917347     
  0.10290000000000001          65.304728395005881     
  0.10320000000000000          70.632906993728000     
  0.10350000000000001          72.619593764778458     
  0.10380000000000000          71.197527964179883     
  0.10410000000000001          66.510828859210463     
  0.10440000000000001          58.903551639834674     
  0.10470000000000000          48.880079410889451     
  0.10500000000000000          37.067647607896873     
  0.10530000000000000          24.168524858317880     
  0.10560000000000000          10.903813902318682     
  0.10590000000000001         -2.0279829308105630     
  0.10620000000000000         -13.998224727315669     
  0.10650000000000001         -24.479777286369227     
  0.10679999999999999         -33.070386248275071     
  0.10710000000000000         -39.508817319143290     
  0.10740000000000001         -43.671655498513367     
  0.10770000000000000         -45.570829343826816     
  0.10800000000000000         -45.338594413261141     
  0.10830000000000001         -43.203161162330645     
  0.10859999999999999         -39.471677581975499     
  0.10890000000000000         -34.499898537280274     
  0.10920000000000001         -28.667058355434456     
  0.10950000000000001         -22.356829766334911     
  0.10979999999999999         -15.929251540470020     
  0.11009999999999999         -9.7084852204903189     
  0.11040000000000001         -3.9684196450548987     
  0.11070000000000001          1.0813958703732884     
  0.11100000000000000          5.2926421924989988     
  0.11130000000000000          8.5847866469256324     
  0.11160000000000002          10.941142435538424     
  0.11190000000000001          12.395447216129398     
  0.11220000000000001          13.031407847840150     
  0.11250000000000000          12.963270702037569     
  0.11280000000000000          12.324744735985572     
  0.11309999999999999          11.262564193989190     
  0.11340000000000001          9.9161982267375208     
  0.11369999999999998          8.4153455924348535     
  0.11400000000000000          6.8738974217677580     
  0.11430000000000000          5.3787916211696301     
  0.11460000000000002          3.9988129086288788     
  0.11489999999999999          2.7793394952115511     
  0.11520000000000001          1.7428343449300359     
  0.11550000000000001         0.90171245274671386     
  0.11580000000000000         0.25173056347462763     
  0.11609999999999999        -0.21960788429529321     
  0.11640000000000002        -0.52629844695942518     
  0.11670000000000001        -0.69191491299193986     
  0.11700000000000001        -0.73800355692014574     
  0.11730000000000000        -0.68639046712407648     
  0.11760000000000000        -0.56462395959915268     
  0.11789999999999999        -0.39446545126064336     
  0.11820000000000001        -0.19959968329268307     
  0.11850000000000001         -4.1199579677882806E-003
  0.11880000000000000         0.17586373765523264     
  0.11910000000000000         0.32283659172703993     
  0.11940000000000002         0.42601294945482970     
  0.11970000000000001         0.48298047815469908     
  0.12000000000000001         0.49100755450613692     
  0.12030000000000000         0.45761858072183420     
  0.12060000000000000         0.39329479607974416     
  0.12089999999999999         0.30682064218799898     
  0.12119999999999999         0.21344444973842225     
  0.12150000000000001         0.12287966694702930     
  0.12180000000000001          4.1890395924769827E-002
  0.12210000000000000         -2.1993212268083782E-002
  0.12239999999999999         -7.0771234247975975E-002
  0.12270000000000002        -0.10609641313263118     
  0.12300000000000001        -0.13125208493271784     
  0.12330000000000001        -0.15498342278430946     
  0.12360000000000000        -0.18012570647975087     
  0.12390000000000000        -0.21051756492579235     
  0.12419999999999999        -0.24905846708843254     
  0.12450000000000001        -0.29159091283464045     
  0.12480000000000001        -0.33596186413945034     
  0.12509999999999999        -0.37688677307222740     
  0.12540000000000001        -0.40629943112545364     
  0.12570000000000003        -0.42122309415379633     
  0.12600000000000000        -0.41678526040959185     
  0.12630000000000002        -0.39133136409354702     
  0.12659999999999999        -0.34894042063101388     
  0.12690000000000001        -0.29200454206024939     
  0.12719999999999998        -0.22786468181301792     
  0.12750000000000000        -0.16508142380673627     
  0.12780000000000002        -0.10916107377730389     
  0.12809999999999999         -6.8028167516559462E-002
  0.12840000000000001         -4.5246734781531524E-002
  0.12869999999999998         -4.0703407010840166E-002
  0.12900000000000000         -5.4056330127949664E-002
  0.12930000000000003         -7.9890406566446387E-002
  0.12959999999999999        -0.11159477311449338     
  0.12990000000000002        -0.14332842098431559     
  0.13019999999999998        -0.16704963948892693     
  0.13050000000000000        -0.17874621670682353     
  0.13080000000000003        -0.17654097925273443     
  0.13109999999999999        -0.15937111545806032     
  0.13140000000000002        -0.13265579169319125     
  0.13169999999999998        -0.10086003596054703     
  0.13200000000000001         -7.0145299371977179E-002
  0.13229999999999997         -4.9015311007477996E-002
  0.13260000000000000         -4.0407546659190462E-002
  0.13290000000000002         -4.7508702389740726E-002
  0.13319999999999999         -6.9871624301031193E-002
  0.13350000000000001        -0.10163380719061083     
  0.13380000000000003        -0.13713695684126176     
  0.13410000000000000        -0.16634327767134705     
  0.13440000000000002        -0.18018569601226361     
  0.13469999999999999        -0.17251526308809259     
  0.13500000000000001        -0.13732810628752681     
  0.13529999999999998         -7.5748705242046202E-002
  0.13560000000000000          7.5621737805858071E-003
  0.13590000000000002         0.10480065392993375     
  0.13619999999999999         0.20148421090470320     
  0.13650000000000001         0.28511164576895004     
  0.13680000000000003         0.34233404362793940     
  0.13710000000000000         0.36122740467145481     
  0.13740000000000002         0.33832238216007959     
  0.13769999999999999         0.27231238177591777     
  0.13800000000000001         0.17061928478397537     
  0.13829999999999998          4.7326030975936149E-002
  0.13860000000000000         -8.2696945827059568E-002
  0.13890000000000002        -0.19798857386038934     
  0.13919999999999999        -0.28107584118342521     
  0.13950000000000001        -0.31842604985118267     
  0.13979999999999998        -0.29936194994997184     
  0.14010000000000000        -0.22573967642644019     
  0.14040000000000002        -0.10476660009689807     
  0.14069999999999999          4.8499268041463178E-002
  0.14100000000000001         0.20994570172918683     
  0.14130000000000004         0.35674251306953270     
  0.14160000000000000         0.46401385903749187     
  0.14189999999999997         0.51103515877385530     
  0.14219999999999999         0.48802138719065513     
  0.14250000000000002         0.39048690595660634     
  0.14279999999999998         0.22838117652008513     
  0.14310000000000000          2.2396079541299345E-002
  0.14339999999999997        -0.20226912922204948     
  0.14369999999999999        -0.41038439904588858     
  0.14400000000000002        -0.57008661409056471     
  0.14429999999999998        -0.65405108277673696     
  0.14460000000000001        -0.64089371311074372     
  0.14490000000000003        -0.52625919518731967     
  0.14520000000000000        -0.31684363352630301     
  0.14550000000000002         -3.4341607043607579E-002
  0.14579999999999999         0.28509796912510171     
  0.14610000000000001         0.60001196535283496     
  0.14640000000000003         0.86365833554593274     
  0.14670000000000000          1.0325876764427682     
  0.14699999999999996          1.0737767495471366     
  0.14729999999999999         0.96613117238206236     
  0.14760000000000001         0.70669491203873869     
  0.14789999999999998         0.31252193171492554     
  0.14820000000000000        -0.18356620211334318     