  -1.4999999999999999E-002     0.0000000000000000     
  -1.4700000000000000E-002     0.0000000000000000     
  -1.4400000000000000E-002     0.0000000000000000     
  -1.4100000000000000E-002     0.0000000000000000     
  -1.3800000000000000E-002     0.0000000000000000     
  -1.3500000000000000E-002     0.0000000000000000     
  -1.3200000000000000E-002     0.0000000000000000     
  -1.2899999999999998E-002     0.0000000000000000     
  -1.2600000000000000E-002     0.0000000000000000     
  -1.2299999999999998E-002     0.0000000000000000     
  -1.2000000000000000E-002     0.0000000000000000     
  -1.1699999999999999E-002     0.0000000000000000     
  -1.1399999999999999E-002     0.0000000000000000     
  -1.1099999999999999E-002     0.0000000000000000     
  -1.0799999999999999E-002     0.0000000000000000     
  -1.0499999999999999E-002     0.0000000000000000     
  -1.0199999999999999E-002     0.0000000000000000     
  -9.8999999999999991E-003     0.0000000000000000     
  -9.5999999999999992E-003     0.0000000000000000     
  -9.2999999999999992E-003     0.0000000000000000     
  -8.9999999999999993E-003     0.0000000000000000     
  -8.6999999999999994E-003     0.0000000000000000     
  -8.3999999999999995E-003     0.0000000000000000     
  -8.0999999999999996E-003     0.0000000000000000     
  -7.7999999999999988E-003     0.0000000000000000     
  -7.4999999999999997E-003     0.0000000000000000     
  -7.1999999999999998E-003     0.0000000000000000     
  -6.8999999999999981E-003     0.0000000000000000     
  -6.5999999999999982E-003     0.0000000000000000     
  -6.3000000000000000E-003     0.0000000000000000     
  -6.0000000000000001E-003    -7.6494713410586608E-045
  -5.6999999999999985E-003     3.9542243732029814E-037
  -5.3999999999999986E-003    -3.2954813209504806E-036
  -5.1000000000000004E-003    -3.1010596040423358E-035
  -4.7999999999999987E-003     4.8889079982515723E-034
  -4.5000000000000005E-003    -3.1223177855014930E-033
  -4.1999999999999989E-003     4.3689285072110123E-033
  -3.8999999999999990E-003     2.1255948679309967E-032
  -3.5999999999999990E-003    -1.2738841998504527E-031
  -3.2999999999999991E-003     2.8257332451865147E-031
  -2.9999999999999992E-003    -3.1027959468735021E-031
  -2.6999999999999993E-003     8.2960005749361751E-031
  -2.3999999999999994E-003    -5.3832930038383668E-030
  -2.0999999999999977E-003     1.8402336074183612E-029
  -1.7999999999999995E-003    -2.8248298680126775E-029
  -1.4999999999999979E-003    -2.1047254649523507E-029
  -1.1999999999999997E-003     2.4169709258325059E-028
  -8.9999999999999976E-004    -8.4219796105900238E-028
  -5.9999999999999810E-004     2.3863141973241487E-027
  -2.9999999999999992E-004    -6.1219328506378868E-027
   0.0000000000000000          1.2859684649986274E-026
   3.0000000000000165E-004    -1.7678387578066254E-026
   5.9999999999999984E-004     1.6367276798714939E-027
   9.0000000000000149E-004     6.0219713335253243E-026
   1.2000000000000031E-003    -1.2121411467665536E-025
   1.5000000000000013E-003    -1.5523728266345059E-025
   1.8000000000000030E-003     1.7598800544977249E-024
   2.1000000000000012E-003    -6.6585025119107771E-024
   2.3999999999999994E-003     1.7551725049392011E-023
   2.7000000000000010E-003    -3.5837997314988570E-023
   2.9999999999999992E-003     5.3828697863542978E-023
   3.3000000000000008E-003    -3.0839079494982480E-023
   3.6000000000000025E-003    -1.4021331319047459E-022
   3.9000000000000007E-003     4.4088662951065110E-022
   4.2000000000000023E-003     1.0371650781401295E-021
   4.5000000000000005E-003    -1.6329681068208954E-020
   4.7999999999999987E-003     9.5392440566330142E-020
   5.1000000000000004E-003    -3.9987184067098923E-019
   5.4000000000000020E-003     1.3619637871320543E-018
   5.7000000000000037E-003    -3.9657872950568558E-018
   5.9999999999999984E-003     1.0171996298501668E-017
   6.3000000000000000E-003    -2.3567038964369888E-017
   6.6000000000000017E-003     5.0769730619320438E-017
   6.9000000000000034E-003    -1.0502423540377286E-016
   7.2000000000000015E-003     2.0829757238486055E-016
   7.5000000000000032E-003    -3.2227678003705647E-016
   7.8000000000000014E-003    -3.0622686238476948E-016
   8.0999999999999996E-003     7.1718755466543550E-015
   8.4000000000000012E-003    -4.9815395777213190E-014
   8.7000000000000029E-003     2.5477405063986444E-013
   9.0000000000000011E-003    -1.0437060976806257E-012
   9.2999999999999992E-003     3.3611265030931836E-012
   9.6000000000000009E-003    -7.5505198716205483E-012
   9.8999999999999991E-003     5.4783421244598126E-012
   1.0200000000000001E-002     4.1792152224655295E-011
   1.0500000000000002E-002    -2.1435148272466647E-010
   1.0800000000000004E-002     4.6677262841887338E-010
   1.1099999999999999E-002    -4.1311269940693722E-011
   1.1400000000000000E-002    -2.7340231045717836E-009
   1.1700000000000002E-002     6.6296034849905644E-009
   1.2000000000000004E-002     1.1714043581733686E-009
   1.2300000000000002E-002    -3.2826694305516044E-008
   1.2600000000000000E-002     3.3760675688052922E-008
   1.2900000000000002E-002     1.0070509031128361E-007
   1.3200000000000000E-002    -1.7848736687265708E-007
   1.3500000000000002E-002    -3.4687191993827323E-007
   1.3800000000000003E-002     4.6613589266975143E-007
   1.4100000000000001E-002     1.1926944739681735E-006
   1.4400000000000000E-002    -6.5997135230293962E-007
   1.4700000000000001E-002    -3.6130629181866540E-006
   1.4999999999999999E-002    -4.3563645635148961E-008
   1.5300000000000001E-002     1.5144517256468222E-005
   1.5600000000000003E-002     3.5865622682871868E-005
   1.5899999999999997E-002     5.2774901306183137E-005
   1.6199999999999999E-002     7.0056681636381882E-005
   1.6500000000000001E-002     1.0704538086479775E-004
   1.6800000000000002E-002     1.8018770585789709E-004
   1.7100000000000004E-002     2.9101990455735751E-004
   1.7400000000000006E-002     4.4146871994285862E-004
   1.7700000000000000E-002     6.5710522811221071E-004
   1.8000000000000002E-002     9.8509212364043894E-004
   1.8300000000000004E-002     1.4726886118666476E-003
   1.8600000000000005E-002     2.1620057267222382E-003
   1.8900000000000000E-002     3.1130991088544392E-003
   1.9200000000000002E-002     4.4227391088010768E-003
   1.9500000000000003E-002     6.2115946279174272E-003
   1.9799999999999998E-002     8.6031928012900560E-003
   2.0100000000000000E-002     1.1726793756465018E-002
   2.0400000000000001E-002     1.5732312490735222E-002
   2.0700000000000003E-002     2.0784914405566807E-002
   2.0999999999999998E-002     2.7034018102494096E-002
   2.1299999999999999E-002     3.4582387584233563E-002
   2.1600000000000001E-002     4.3473530524552349E-002
   2.1900000000000003E-002     5.3669244077918898E-002
   2.2200000000000004E-002     6.5012715881397301E-002
   2.2500000000000006E-002     7.7182121839906137E-002
   2.2800000000000001E-002     8.9651532929949776E-002
   2.3100000000000002E-002    0.10167150270745565     
   2.3400000000000004E-002    0.11225652797952453     
   2.3699999999999999E-002    0.12019086025659466     
   2.4000000000000000E-002    0.12405765987199067     
   2.4300000000000002E-002    0.12229275191992085     
   2.4599999999999997E-002    0.11327617898904717     
   2.4900000000000005E-002     9.5471527018664362E-002
   2.5200000000000000E-002     6.7579586071122383E-002
   2.5499999999999995E-002     2.8709508797027244E-002
   2.5800000000000003E-002    -2.1448852043335982E-002
   2.6099999999999998E-002    -8.2456547415216574E-002
   2.6400000000000007E-002   -0.15298090505973297     
   2.6700000000000002E-002   -0.23072179854673200     
   2.6999999999999996E-002   -0.31243356873111983     
   2.7300000000000005E-002   -0.39402270271816731     
   2.7600000000000000E-002   -0.47069621218224861     
   2.7900000000000008E-002   -0.53726798633195028     
   2.8200000000000003E-002   -0.58853871191492124     
   2.8499999999999998E-002   -0.61967629986633554     
   2.8800000000000006E-002   -0.62671167674762296     
   2.9100000000000001E-002   -0.60689170385907998     
   2.9400000000000003E-002   -0.55901808928278007     
   2.9700000000000004E-002   -0.48376597468140653     
   3.0000000000000006E-002   -0.38368450158695799     
   3.0300000000000001E-002   -0.26314879987189538     
   3.0600000000000002E-002   -0.12818670213164526     
   3.0900000000000004E-002     1.3976524017054539E-002
   3.1199999999999999E-002    0.15537102968826577     
   3.1500000000000007E-002    0.28777899573830790     
   3.1800000000000002E-002    0.40358477377987290     
   3.2099999999999997E-002    0.49614283316248925     
   3.2400000000000005E-002    0.56023752886688727     
   3.2700000000000000E-002    0.59259027740650194     
   3.3000000000000002E-002    0.59194410608078740     
   3.3300000000000003E-002    0.55920184631228054     
   3.3599999999999998E-002    0.49739397694242365     
   3.3900000000000000E-002    0.41128326668035192     
   3.4200000000000001E-002    0.30712638528821740     
   3.4500000000000003E-002    0.19222354579358569     
   3.4799999999999998E-002     7.4450801745037098E-002
   3.5099999999999999E-002    -3.8042997743180935E-002
   3.5400000000000001E-002   -0.13746529028843185     
   3.5699999999999996E-002   -0.21682258825022513     
   3.6000000000000004E-002   -0.27001386435567004     
   3.6299999999999999E-002   -0.29235326951067098     
   3.6600000000000008E-002   -0.28072437474543627     
   3.6900000000000002E-002   -0.23376209948207555     
   3.7199999999999997E-002   -0.15207995425505313     
   3.7500000000000006E-002    -3.8160375616551737E-002
   3.7800000000000000E-002    0.10358307639830749     
   3.8100000000000009E-002    0.26680815464144392     
   3.8400000000000004E-002    0.44354474948650557     
   3.8699999999999998E-002    0.62452626826946722     
   3.9000000000000007E-002    0.79933358058619697     
   3.9300000000000002E-002    0.95722211460237472     
   3.9600000000000003E-002     1.0874449142941072     
   3.9900000000000005E-002     1.1796838194915411     
   4.0200000000000000E-002     1.2250833679526247     
   4.0500000000000001E-002     1.2167812767435351     
   4.0800000000000003E-002     1.1502835939221190     
   4.1100000000000005E-002     1.0241903254287563     
   4.1399999999999999E-002    0.84030916082399409     
   4.1700000000000008E-002    0.60414399291812981     
   4.2000000000000003E-002    0.32497839404300372     
   4.2299999999999997E-002     1.5156733866811416E-002
   4.2600000000000006E-002   -0.30995759047543614     
   4.2900000000000001E-002   -0.63273799713897450     
   4.3200000000000002E-002   -0.93452335381577301     
   4.3500000000000004E-002    -1.1964130571699223     
   4.3799999999999999E-002    -1.4006182197986639     
   4.4100000000000000E-002    -1.5320408654876718     
   4.4400000000000002E-002    -1.5789055001876742     
   4.4700000000000004E-002    -1.5342010674823827     
   4.4999999999999998E-002    -1.3965710843825820     
   4.5300000000000000E-002    -1.1703355759983733     
   4.5600000000000002E-002   -0.86590038057273477     
   4.5899999999999996E-002   -0.49901453526591327     
   4.6200000000000005E-002    -8.9942144216379069E-002
   4.6500000000000000E-002    0.33725450156719600     
   4.6799999999999994E-002    0.75708382127471074     
   4.7100000000000003E-002     1.1439337729252723     
   4.7399999999999998E-002     1.4733864190676353     
   4.7700000000000006E-002     1.7244322541398702     
   4.8000000000000001E-002     1.8804782979756860     
   4.8300000000000010E-002     1.9303181614289844     
   4.8600000000000004E-002     1.8689667498216571     
   4.8899999999999999E-002     1.6974845486124501     
   4.9200000000000008E-002     1.4229795306563200     
   4.9500000000000002E-002     1.0577436041678703     
   4.9800000000000011E-002    0.61828439492006204     
   5.0100000000000006E-002    0.12434814720453255     
   5.0400000000000000E-002   -0.40241604609750037     
   5.0700000000000009E-002   -0.93965134644814063     
   5.1000000000000004E-002    -1.4657803651574992     
   5.1299999999999998E-002    -1.9604908221714561     
   5.1600000000000007E-002    -2.4056985484937186     
   5.1900000000000002E-002    -2.7857310984187649     
   5.2200000000000010E-002    -3.0879686185910877     
   5.2500000000000005E-002    -3.3029671103901457     
   5.2800000000000000E-002    -3.4234331110020739     
   5.3099999999999994E-002    -3.4448423894578739     
   5.3400000000000003E-002    -3.3649316382496210     
   5.3699999999999998E-002    -3.1831398585436683     
   5.4000000000000006E-002    -2.9010069959750959     
   5.4300000000000001E-002    -2.5215736027666602     
   5.4599999999999996E-002    -2.0497227298118492     
   5.4900000000000004E-002    -1.4926345909056400     
   5.5199999999999999E-002   -0.85994880666588114     
   5.5499999999999994E-002   -0.16423963237992456     
   5.5800000000000002E-002    0.57874103383608155     
   5.6099999999999997E-002     1.3495803766045142     
   5.6400000000000006E-002     2.1250662611203639     
   5.6700000000000000E-002     2.8786947667348226     
   5.6999999999999995E-002     3.5812752336797407     
   5.7300000000000004E-002     4.2017350448391495     
   5.7599999999999998E-002     4.7077537002152239     
   5.7900000000000007E-002     5.0685811626860531     
   5.8200000000000002E-002     5.2562185070035614     
   5.8499999999999996E-002     5.2468281658507347     
   5.8800000000000005E-002     5.0241433153143165     
   5.9100000000000000E-002     4.5806804721318146     
   5.9400000000000008E-002     3.9191256593051298     
   5.9700000000000003E-002     3.0540989419835660     
   6.0000000000000012E-002     2.0123117840309539     
   6.0300000000000006E-002    0.83264912344722508     
   6.0600000000000001E-002   -0.43489701430844363     
   6.0900000000000010E-002    -1.7315059633539884     
   6.1200000000000004E-002    -2.9921021460745085     
   6.1500000000000013E-002    -4.1491422927183734     
   6.1800000000000008E-002    -5.1370134894063995     
   6.2100000000000002E-002    -5.8956943340116510     
   6.2399999999999997E-002    -6.3755270033211984     
   6.2700000000000006E-002    -6.5421982939682559     
   6.3000000000000000E-002    -6.3782359377629172     
   6.3300000000000009E-002    -5.8853017116913815     
   6.3600000000000004E-002    -5.0861889085418692     
   6.3899999999999998E-002    -4.0225330419898881     
   6.4199999999999993E-002    -2.7534004084667050     
   6.4500000000000002E-002    -1.3516858207755877     
   6.4800000000000010E-002    0.10150373622743848     
   6.5100000000000005E-002     1.5202379208529664     
   6.5400000000000000E-002     2.8208568364921596     
   6.5700000000000008E-002     3.9276376302898228     
   6.5999999999999989E-002     4.7765594284999366     
   6.6299999999999998E-002     5.3209238977862592     
   6.6600000000000006E-002     5.5333148077911556     
   6.6900000000000001E-002     5.4073916542369060     
   6.7199999999999996E-002     4.9590188091234451     
   6.7500000000000004E-002     4.2240024518289312     
   6.7800000000000013E-002     3.2555621400505945     
   6.8099999999999994E-002     2.1212997942083263     
   6.8400000000000002E-002    0.89812400432025796     
   6.8700000000000011E-002   -0.33369297031383149     
   6.8999999999999992E-002    -1.4951780132318337     
   6.9300000000000000E-002    -2.5145304732662956     
   6.9600000000000009E-002    -3.3322313556382710     
   6.9900000000000004E-002    -3.9040273096990807     
   7.0199999999999999E-002    -4.2046681379193869     
   7.0500000000000007E-002    -4.2283030478913801     
   7.0800000000000016E-002    -3.9877155672807345     
   7.1099999999999997E-002    -3.5136609781720471     
   7.1400000000000005E-002    -2.8497226750277957     
   7.1700000000000000E-002    -2.0487957287350516     
   7.1999999999999995E-002    -1.1686155842585195     
   7.2300000000000003E-002   -0.26496572415967801     
   7.2600000000000012E-002    0.61115006581143638     
   7.2900000000000006E-002     1.4180819359105172     
   7.3200000000000001E-002     2.1268742762989299     
   7.3499999999999996E-002     2.7206166527281930     
   7.3800000000000004E-002     3.1947692179282767     
   7.4099999999999999E-002     3.5557592605333874     
   7.4400000000000008E-002     3.8173418648051438     
   7.4700000000000003E-002     3.9977310194998523     
   7.5000000000000011E-002     4.1158442867399394     
   7.5299999999999992E-002     4.1872077245736063     
   7.5600000000000001E-002     4.2230720686746919     
   7.5900000000000009E-002     4.2286481964604850     
   7.6200000000000004E-002     4.2016053286234829     
   7.6499999999999999E-002     4.1347475157006164     
   7.6800000000000007E-002     4.0171060722398506     
   7.7099999999999988E-002     3.8363096958890006     
   7.7399999999999997E-002     3.5820541729653361     
   7.7700000000000005E-002     3.2471838456049045     
   7.8000000000000014E-002     2.8305385678272894     
   7.8299999999999995E-002     2.3380745113586263     
   7.8600000000000003E-002     1.7814074286676223     
   7.8900000000000012E-002     1.1787741946261119     
   7.9199999999999993E-002    0.55188997308570897     
   7.9500000000000001E-002    -7.6587796736864930E-002
   7.9800000000000010E-002   -0.68383734570820265     
   8.0100000000000018E-002    -1.2518780829302791     
   8.0399999999999999E-002    -1.7686516753810304     
   8.0700000000000008E-002    -2.2284686210146161     
   8.1000000000000003E-002    -2.6345333843410921     
   8.1299999999999997E-002    -2.9978864142440114     
   8.1600000000000006E-002    -3.3356418731366948     
   8.1900000000000014E-002    -3.6706631489582726     
   8.2199999999999995E-002    -4.0278797652192466     
   8.2500000000000004E-002    -4.4316912409838558     
   8.2799999999999999E-002    -4.9037867526059395     
   8.3100000000000007E-002    -5.4580050680264689     
   8.3400000000000002E-002    -6.0991698717319176     
   8.3700000000000011E-002    -6.8207246521444294     
   8.4000000000000005E-002    -7.6017691591656762     
   8.4300000000000000E-002    -8.4078266348629480     
   8.4599999999999995E-002    -9.1908810068213818     
   8.4900000000000003E-002    -9.8907787896615336     
   8.5199999999999998E-002    -10.439728996917362     
   8.5500000000000007E-002    -10.765331534355463     
   8.5800000000000001E-002    -10.795865324084836     
   8.6100000000000010E-002    -10.468149441555134     
   8.6399999999999991E-002    -9.7321865563959769     
   8.6699999999999999E-002    -8.5567924718874391     
   8.7000000000000008E-002    -6.9360153064781755     
   8.7300000000000003E-002    -4.8910614395649166     
   8.7599999999999997E-002    -2.4720271454509684     
   8.7900000000000006E-002    0.24205852128478239     
   8.8200000000000014E-002     3.1480894476135735     
   8.8499999999999995E-002     6.1231247038252974     
   8.8800000000000004E-002     9.0324823177861404     
   8.9100000000000013E-002     11.738645788279541     
   8.9399999999999993E-002     14.109145458762372     
   8.9700000000000002E-002     16.026928294801749     
   9.0000000000000011E-002     17.398546608721606     
   9.0299999999999991E-002     18.158649865937644     
   9.0600000000000000E-002     18.275206051912210     
   9.0900000000000009E-002     17.751593079845282     
   9.1200000000000017E-002     16.622017339729478     
   9.1499999999999998E-002     14.950834681916502     
   9.1800000000000007E-002     12.827491174711117     
   9.2100000000000001E-002     10.356019336077525     
   9.2399999999999996E-002     7.6506698275871372     
   9.2700000000000005E-002     4.8279659173699914     
   9.3000000000000013E-002     1.9999916391204717     
   9.3300000000000008E-002   -0.73003367418714005     
   9.3600000000000003E-002    -3.2727275499027746     
   9.3899999999999997E-002    -5.5526601281829002     
   9.4200000000000006E-002    -7.5095150223182552     
   9.4500000000000001E-002    -9.0993664673299754     
   9.4800000000000009E-002    -10.290964460520888     
   9.5100000000000004E-002    -11.066329377681290     
   9.5399999999999999E-002    -11.420546933025463     
   9.5699999999999993E-002    -11.358454161447135     
   9.6000000000000002E-002    -10.897024557656188     
   9.6300000000000011E-002    -10.065177341505386     
   9.6600000000000005E-002    -8.9042848129843453     
   9.6900000000000000E-002    -7.4675672458649283     
   9.7200000000000009E-002    -5.8200103947615593     
   9.7499999999999989E-002    -4.0382400869791066     
   9.7799999999999998E-002    -2.2068293568366979     
   9.8100000000000007E-002   -0.41499271251777098     
   9.8400000000000015E-002     1.2478253828841577     
   9.8699999999999996E-002     2.6972145555217915     
   9.9000000000000005E-002     3.8595104339910287     
   9.9300000000000013E-002     4.6774037449609365     
   9.9599999999999994E-002     5.1140445102887124     
   9.9900000000000003E-002     5.1563647678027049     
  0.10020000000000001          4.8176043777078208     
  0.10049999999999999          4.1354368144609639     
  0.10080000000000000          3.1706921965652288     
  0.10110000000000001          2.0029129257727436     
  0.10140000000000000         0.72474810846641957     
  0.10170000000000000        -0.56410561445576268     
  0.10200000000000001         -1.7659639737141999     
  0.10230000000000002         -2.7913037680384054     
  0.10260000000000000         -3.5644452137362284     
  0.10290000000000001         -4.0307295363394209     
  0.10320000000000000         -4.1598289358509346     
  0.10350000000000001         -3.9460182652041316     
  0.10380000000000000         -3.4103155520653501     
  0.10410000000000001         -2.5974512221514670     
  0.10440000000000001         -1.5715124301664214     
  0.10470000000000000        -0.41119301612052334     
  0.10500000000000000         0.79743740200180024     
  0.10530000000000000          1.9667466697986904     
  0.10560000000000000          3.0150008701624400     
  0.10590000000000001          3.8730412651627213     
  0.10620000000000000          4.4873778076683584     
  0.10650000000000001          4.8255307311184517     
  0.10679999999999999          4.8780472130476769     
  0.10710000000000000          4.6558687578728390     
  0.10740000000000001          4.1901671645467573     
  0.10770000000000000          3.5299696390306692     
  0.10800000000000000          2.7348839286060640     
  0.10830000000000001          1.8702246876738866     
  0.10859999999999999          1.0028143302554022     
  0.10890000000000000         0.19417284172763519     
  0.10920000000000001        -0.50454921293631649     
  0.10950000000000001         -1.0558975821726977     
  0.10979999999999999         -1.4386205841673663     
  0.11009999999999999         -1.6471684286003914     
  0.11040000000000001         -1.6926069555687098     
  0.11070000000000001         -1.6009726666058572     
  0.11100000000000000         -1.4061679706574397     
  0.11130000000000000         -1.1495923497932192     
  0.11160000000000002        -0.87553009202780496     
  0.11190000000000001        -0.62348084227853229     
  0.11220000000000001        -0.42808753949884931     
  0.11250000000000000        -0.31484187214619852     
  0.11280000000000000        -0.29731233392117867     
  0.11309999999999999        -0.37879059288017025     
  0.11340000000000001        -0.55030334910052559     
  0.11369999999999998        -0.79445132049141520     
  0.11400000000000000         -1.0880961902254727     
  0.11430000000000000         -1.4020738200368354     
  0.11460000000000002         -1.7079789573202675     
  0.11489999999999999         -1.9803455136955808     
  0.11520000000000001         -2.1960983822404985     
  0.11550000000000001         -2.3398221301566102     
  0.11580000000000000         -2.4036832746601497     
  0.11609999999999999         -2.3852606745944800     
  0.11640000000000002         -2.2901457227794753     
  0.11670000000000001         -2.1291747833881765     
  0.11700000000000001         -1.9165427048352666     
  0.11730000000000000         -1.6699307304535198     
  0.11760000000000000         -1.4053428294225940     
  0.11789999999999999         -1.1382577344621869     
  0.11820000000000001        -0.88299957580791077     
  0.11850000000000001        -0.64838036510227848     
  0.11880000000000000        -0.44015457364929322     
  0.11910000000000000        -0.26109947939240935     
  0.11940000000000002        -0.10878979840537245     
  0.11970000000000001          2.0772029542230154E-002
  0.12000000000000001         0.13318997712790281     
  0.12030000000000000         0.23689751982165907     
  0.12060000000000000         0.33831065782383396     
  0.12089999999999999         0.44365006065883084     
  0.12119999999999999         0.55833839528934293     
  0.12150000000000001         0.68422942605257375     
  0.12180000000000001         0.82215469698692356     
  0.12210000000000000         0.97090327926125786     
  0.12239999999999999          1.1263094034867314     
  0.12270000000000002          1.2843758022973923     
  0.12300000000000001          1.4391573882866773     
  0.12330000000000001          1.5835610890089489     
  0.12360000000000000          1.7128813554387041     
  0.12390000000000000          1.8216878467531550     
  0.12419999999999999          1.9052716770430296     
  0.12450000000000001          1.9614924437686498     
  0.12480000000000001          1.9893144573189605     
  0.12509999999999999          1.9899915615845343     
  0.12540000000000001          1.9668923731338299     
  0.12570000000000003          1.9243838865152207     
  0.12600000000000000          1.8691382459481172     
  0.12630000000000002          1.8088142904596343     
  0.12659999999999999          1.7501676104088248     
  0.12690000000000001          1.6993036285443666     
  0.12719999999999998          1.6608264455235060     
  0.12750000000000000          1.6358835696332743     
  0.12780000000000002          1.6228234750557178     
  0.12809999999999999          1.6168788630603173     
  0.12840000000000001          1.6089518002583332     
  0.12869999999999998          1.5896589659381295     
  0.12900000000000000          1.5494428750075613     
  0.12930000000000003          1.4787137367870837     
  0.12959999999999999          1.3725646585350457     
  0.12990000000000002          1.2295579764076170     
  0.13019999999999998          1.0537170036995795     
  0.13050000000000000         0.85482917993942631     
  0.13080000000000003         0.64433150337848299     
  0.13109999999999999         0.43651534917811291     
  0.13140000000000002         0.24554731007399150     
  0.13169999999999998          8.0278340520594557E-002
  0.13200000000000001         -5.3715678989069454E-002
  0.13229999999999997        -0.15813237741207020     
  0.13260000000000000        -0.24234635698661702     
  0.13290000000000002        -0.31907554139038763     
  0.13319999999999999        -0.40530871305150007     
  0.13350000000000001        -0.51756529810539265     
  0.13380000000000003        -0.66787688109566290     
  0.13410000000000000        -0.86422589489156676     
  0.13440000000000002         -1.1059651533686747     
  0.13469999999999999         -1.3832100629138948     
  0.13500000000000001         -1.6818121519798364     
  0.13529999999999998         -1.9830877511412943     
  0.13560000000000000         -2.2678434520015163     
  0.13590000000000002         -2.5219857375826376     
  0.13619999999999999         -2.7386224039430012     
  0.13650000000000001         -2.9207761208869805     
  0.13680000000000003         -3.0823462121538689     
  0.13710000000000000         -3.2449221920800890     
  0.13740000000000002         -3.4359932420007571     
  0.13769999999999999         -3.6831257908603101     
  0.13800000000000001         -4.0069652156395250     
  0.13829999999999998         -4.4181003987434284     
  0.13860000000000000         -4.9119701541005627     
  0.13890000000000002         -5.4637145785297809     
  0.13919999999999999         -6.0323829004880256     
  0.13950000000000001         -6.5630902143128136     
  0.13979999999999998         -6.9890259184715600     
  0.14010000000000000         -7.2444613541679876     
  0.14040000000000002         -7.2700236245296708     
  0.14069999999999999         -7.0200427007700217     
  0.14100000000000001         -6.4739425832824100     
  0.14130000000000004         -5.6364658928684381     
  0.14160000000000000         -4.5411461982995727     
  0.14189999999999997         -3.2485363281603181     
  0.14219999999999999         -1.8364196206204093     
  0.14250000000000002        -0.39425399597629546     
  0.14279999999999998         0.98861450297907139     
  0.14310000000000000          2.2400075181670731     
  0.14339999999999997          3.3122786493175624     
  0.14369999999999999          4.1906895151872412     
  0.14400000000000002          4.9021334878047442     
  0.14429999999999998          5.5111080290913828     
  0.14460000000000001          6.1147400877590856     
  0.14490000000000003          6.8324578070095425     
  0.14520000000000000          7.7840579255375397     
  0.14550000000000002          9.0762675535619870     
  0.14579999999999999          10.782349849402770     
  0.14610000000000001          12.916355292788388     
  0.14640000000000003          15.429056170775796     
  0.14670000000000000          18.198833267028430     
  0.14699999999999996          21.027848767461261     
  0.14729999999999999          23.660352036102385     
  0.14760000000000001          25.799214419463748     
  0.14789999999999998          27.130761016333167     
  0.14820000000000000          27.360367521303655     