  -1.4999999999999999E-002     0.0000000000000000     
  -1.4700000000000000E-002     0.0000000000000000     
  -1.4400000000000000E-002     0.0000000000000000     
  -1.4100000000000000E-002     0.0000000000000000     
  -1.3800000000000000E-002     0.0000000000000000     
  -1.3500000000000000E-002     1.4218915532914801E-044
  -1.3200000000000000E-002    -8.9760737269006340E-035
  -1.2899999999999998E-002     1.2340743904907084E-032
  -1.2600000000000000E-002     7.9613978594353581E-032
  -1.2299999999999998E-002    -3.7975373378165274E-030
  -1.2000000000000000E-002     9.0057010565517204E-030
  -1.1699999999999999E-002    -1.7660719279893098E-028
  -1.1399999999999999E-002     4.7990376127366152E-027
  -1.1099999999999999E-002     1.7544116742787144E-027
  -1.0799999999999999E-002    -8.6260707563514499E-025
  -1.0499999999999999E-002     1.0590828288221290E-023
  -1.0199999999999999E-002    -5.3594547425196438E-023
  -9.8999999999999991E-003    -2.9507595262841503E-023
  -9.5999999999999992E-003     2.2043426767813440E-021
  -9.2999999999999992E-003    -1.5825789712970051E-020
  -8.9999999999999993E-003     6.6533604123769372E-020
  -8.6999999999999994E-003    -1.9811883046755246E-019
  -8.3999999999999995E-003     4.4820559086502335E-019
  -8.0999999999999996E-003    -7.4143437002315901E-019
  -7.7999999999999988E-003     6.0864067150144050E-019
  -7.4999999999999997E-003     1.0333524096608339E-018
  -7.1999999999999998E-003    -5.1517887775602966E-018
  -6.8999999999999981E-003     1.0155202473290201E-017
  -6.5999999999999982E-003    -1.2022091699693361E-017
  -6.3000000000000000E-003     3.6768434630081646E-017
  -6.0000000000000001E-003    -2.4728410494377877E-016
  -5.6999999999999985E-003     9.4479222729266478E-016
  -5.3999999999999986E-003    -1.8029001268064451E-015
  -5.1000000000000004E-003    -1.0112714138776636E-017
  -4.7999999999999987E-003     1.0863508632261711E-014
  -4.5000000000000005E-003    -3.5817362669420966E-014
  -4.1999999999999989E-003     6.2874999276522370E-014
  -3.8999999999999990E-003    -4.2312427964061501E-014
  -3.5999999999999990E-003    -1.0537954835360144E-013
  -3.2999999999999991E-003     4.0565727481849904E-013
  -2.9999999999999992E-003    -6.8614220094819738E-013
  -2.6999999999999993E-003     5.2236011779380665E-013
  -2.3999999999999994E-003     5.1111892350419253E-013
  -2.0999999999999977E-003    -2.2463026685720620E-012
  -1.7999999999999995E-003     3.3990254696115154E-012
  -1.4999999999999979E-003    -1.9421966758482435E-012
  -1.1999999999999997E-003    -3.0364673768948377E-012
  -8.9999999999999976E-004     8.9637947886265562E-012
  -5.9999999999999810E-004    -1.0380916909494006E-011
  -2.9999999999999992E-004     4.9726788833133691E-012
   0.0000000000000000          1.3509170465821945E-012
   3.0000000000000165E-004    -1.7974617006530745E-012
   5.9999999999999984E-004     2.5476171985161167E-012
   9.0000000000000149E-004    -1.6045685568034348E-011
   1.2000000000000031E-003     3.4516190099648133E-011
   1.5000000000000013E-003    -4.8010576382563738E-011
   1.8000000000000030E-003     1.2986417493321971E-010
   2.1000000000000012E-003    -3.9969947944499902E-010
   2.3999999999999994E-003     6.5656618511060325E-010
   2.7000000000000010E-003    -7.9218507619187931E-011
   2.9999999999999992E-003    -2.4447472771540960E-009
   3.3000000000000008E-003     8.4377621164645763E-009
   3.6000000000000025E-003    -1.8405740870009870E-008
   3.9000000000000007E-003     1.2664734112573733E-008
   4.2000000000000023E-003     7.6258729600643786E-008
   4.5000000000000005E-003    -2.4990407858883190E-007
   4.7999999999999987E-003     9.8446692691808458E-008
   5.1000000000000004E-003     9.1741178996822408E-007
   5.4000000000000020E-003    -1.3938992640832379E-006
   5.7000000000000037E-003    -2.1516297923854588E-006
   5.9999999999999984E-003     5.1118224382842526E-006
   6.3000000000000000E-003     5.6857303019285592E-006
   6.6000000000000017E-003    -1.2750454410055011E-005
   6.9000000000000034E-003    -2.2005861645932779E-005
   7.2000000000000015E-003     2.5502602191482715E-005
   7.5000000000000032E-003     1.4400255370436432E-004
   7.8000000000000014E-003     3.0458154512790338E-004
   8.0999999999999996E-003     4.8173653618769990E-004
   8.4000000000000012E-003     6.8781724186123727E-004
   8.7000000000000029E-003     9.8190132538734259E-004
   9.0000000000000011E-003     1.4719697921425135E-003
   9.2999999999999992E-003     2.2763139995926568E-003
   9.6000000000000009E-003     3.5087052472900352E-003
   9.8999999999999991E-003     5.3194827493182476E-003
   1.0200000000000001E-002     7.9105255780969174E-003
   1.0500000000000002E-002     1.1562034709092200E-002
   1.0800000000000004E-002     1.6673541015900881E-002
   1.1099999999999999E-002     2.3740476453011469E-002
   1.1400000000000000E-002     3.3309829129854356E-002
   1.1700000000000002E-002     4.5979776371601881E-002
   1.2000000000000004E-002     6.2427022763145983E-002
   1.2300000000000002E-002     8.3356985563596692E-002
   1.2600000000000000E-002    0.10937062861525677     
   1.2900000000000002E-002    0.14088064703621772     
   1.3200000000000000E-002    0.17800328478787311     
   1.3500000000000002E-002    0.22034305759535791     
   1.3800000000000003E-002    0.26676637449985369     
   1.4100000000000001E-002    0.31516615166397860     
   1.4400000000000000E-002    0.36227146493466872     
   1.4700000000000001E-002    0.40346441456712351     
   1.4999999999999999E-002    0.43262178548332442     
   1.5300000000000001E-002    0.44216416149802523     
   1.5600000000000003E-002    0.42323044772712171     
   1.5899999999999997E-002    0.36607930787446935     
   1.6199999999999999E-002    0.26067176983948492     
   1.6500000000000001E-002     9.7482862188915081E-002
   1.6800000000000002E-002   -0.13118812672471822     
   1.7100000000000004E-002   -0.42995677207136096     
   1.7400000000000006E-002   -0.79891385173545626     
   1.7700000000000000E-002    -1.2323488234157920     
   1.8000000000000002E-002    -1.7177485559683969     
   1.8300000000000004E-002    -2.2349055247095904     
   1.8600000000000005E-002    -2.7559121191621565     
   1.8900000000000000E-002    -3.2458015122062371     
   1.9200000000000002E-002    -3.6639917614439947     
   1.9500000000000003E-002    -3.9666825120045148     
   1.9799999999999998E-002    -4.1099854325572052     
   2.0100000000000000E-002    -4.0537763443688961     
   2.0400000000000001E-002    -3.7657502445688400     
   2.0700000000000003E-002    -3.2252665210744831     
   2.0999999999999998E-002    -2.4267693056125585     
   2.1299999999999999E-002    -1.3826729345923026     
   2.1600000000000001E-002   -0.12409526511346855     
   2.1900000000000003E-002     1.2992749454000203     
   2.2200000000000004E-002     2.8210819307965544     
   2.2500000000000006E-002     4.3623739134752348     
   2.2800000000000001E-002     5.8360120005205074     
   2.3100000000000002E-002     7.1535574408369076     
   2.3400000000000004E-002     8.2309438417696370     
   2.3699999999999999E-002     8.9952194081899322     
   2.4000000000000000E-002     9.3903037976048225     
   2.4300000000000002E-002     9.3806020691223040     
   2.4599999999999997E-002     8.9545242185084000     
   2.4900000000000005E-002     8.1249334051736177     
   2.5200000000000000E-002     6.9280845126351069     
   2.5499999999999995E-002     5.4212099219131131     
   2.5800000000000003E-002     3.6782623093231210     
   2.6099999999999998E-002     1.7850212242399743     
   2.6400000000000007E-002   -0.16641339671533784     
   2.6700000000000002E-002    -2.0829422854265829     
   2.6999999999999996E-002    -3.8756140014866181     
   2.7300000000000005E-002    -5.4639826874552675     
   2.7600000000000000E-002    -6.7793346770019376     
   2.7900000000000008E-002    -7.7682267756055703     
   2.8200000000000003E-002    -8.3930169804390946     
   2.8499999999999998E-002    -8.6336223405027024     
   2.8800000000000006E-002    -8.4877845549082540     
   2.9100000000000001E-002    -7.9699193649145563     
   2.9400000000000003E-002    -7.1117202296182160     
   2.9700000000000004E-002    -5.9598542488739259     
   3.0000000000000006E-002    -4.5740209591916487     
   3.0300000000000001E-002    -3.0256427003532109     
   3.0600000000000002E-002    -1.3932667131945142     
   3.0900000000000004E-002    0.23971506606880014     
   3.1199999999999999E-002     1.7894506725590147     
   3.1500000000000007E-002     3.1769331049451717     
   3.1800000000000002E-002     4.3306036777473338     
   3.2099999999999997E-002     5.1923328407474729     
   3.2400000000000005E-002     5.7204109315694538     
   3.2700000000000000E-002     5.8913236789692505     
   3.3000000000000002E-002     5.7029396206918017     
   3.3300000000000003E-002     5.1726771416050363     
   3.3599999999999998E-002     4.3369394215555390     
   3.3900000000000000E-002     3.2486139012215149     
   3.4200000000000001E-002     1.9713716939311490     
   3.4500000000000003E-002    0.57651122145586331     
   3.4799999999999998E-002   -0.86327184229150500     
   3.5099999999999999E-002    -2.2794170744715778     
   3.5400000000000001E-002    -3.6103582999207333     
   3.5699999999999996E-002    -4.8067127118393440     
   3.6000000000000004E-002    -5.8323675241817279     
   3.6299999999999999E-002    -6.6645394571543113     
   3.6600000000000008E-002    -7.2944589983705592     
   3.6900000000000002E-002    -7.7232471920506836     
   3.7199999999999997E-002    -7.9596287278535049     
   3.7500000000000006E-002    -8.0164367244144135     
   3.7800000000000000E-002    -7.9056359799483404     
   3.8100000000000009E-002    -7.6364437568240771     
   3.8400000000000004E-002    -7.2122026835255326     
   3.8699999999999998E-002    -6.6291939069590136     
   3.9000000000000007E-002    -5.8782740743383153     
   3.9300000000000002E-002    -4.9450603461830944     
   3.9600000000000003E-002    -3.8140450241596926     
   3.9900000000000005E-002    -2.4737117753662243     
   4.0200000000000000E-002   -0.91831548695586496     
   4.0500000000000001E-002    0.84466405400811195     
   4.0800000000000003E-002     2.7924528659047274     
   4.1100000000000005E-002     4.8854771591259842     
   4.1399999999999999E-002     7.0638381388240452     
   4.1700000000000008E-002     9.2520019365373845     
   4.2000000000000003E-002     11.359742377126299     
   4.2299999999999997E-002     13.287078150809297     
   4.2600000000000006E-002     14.932562150278137     
   4.2900000000000001E-002     16.197384177967351     
   4.3200000000000002E-002     16.994453740195329     
   4.3500000000000004E-002     17.254762962351752     
   4.3799999999999999E-002     16.931936569199131     
   4.4100000000000000E-002     16.007896710250673     
   4.4400000000000002E-002     14.493383666055998     
   4.4700000000000004E-002     12.429195624749552     
   4.4999999999999998E-002     9.8844940027282213     
   4.5300000000000000E-002     6.9528127944475564     
   4.5600000000000002E-002     3.7480099864095724     
   4.5899999999999996E-002    0.39813459676497981     
   4.6200000000000005E-002    -2.9608068977218367     
   4.6500000000000000E-002    -6.1910577895241632     
   4.6799999999999994E-002    -9.1600419684969019     
   4.7100000000000003E-002    -11.746512617913565     
   4.7399999999999998E-002    -13.845943693097350     
   4.7700000000000006E-002    -15.375603945721116     
   4.8000000000000001E-002    -16.279323864883221     
   4.8300000000000010E-002    -16.529758746387877     
   4.8600000000000004E-002    -16.131355573542510     
   4.8899999999999999E-002    -15.120341573127559     
   4.9200000000000008E-002    -13.564303644974919     
   4.9500000000000002E-002    -11.559388374161200     
   4.9800000000000011E-002    -9.2248155426893632     
   5.0100000000000006E-002    -6.6986490604530884     
   5.0400000000000000E-002    -4.1280237108583355     
   5.0700000000000009E-002    -1.6600921588140503     
   5.1000000000000004E-002    0.56578146994976686     
   5.1299999999999998E-002     2.4303953938560534     
   5.1600000000000007E-002     3.8413043569115062     
   5.1900000000000002E-002     4.7404766798213229     
   5.2200000000000010E-002     5.1092596845969283     
   5.2500000000000005E-002     4.9685974900785261     
   5.2800000000000000E-002     4.3785567971951318     
   5.3099999999999994E-002     3.4315598545034303     
   5.3400000000000003E-002     2.2448609212744359     
   5.3699999999999998E-002    0.95092315695163854     
   5.4000000000000006E-002   -0.31637791697267842     
   5.4300000000000001E-002    -1.4310822760764605     
   5.4599999999999996E-002    -2.2874875480835875     
   5.4900000000000004E-002    -2.8089883817876133     
   5.5199999999999999E-002    -2.9516981149684010     
   5.5499999999999994E-002    -2.7098422494599328     
   5.5800000000000002E-002    -2.1115231837395756     
   5.6099999999999997E-002    -1.2150352151917709     
   5.6400000000000006E-002   -0.10301160210016724     
   5.6700000000000000E-002     1.1309413008771949     
   5.6999999999999995E-002     2.3877296972007196     
   5.7300000000000004E-002     3.5751901416776759     
   5.7599999999999998E-002     4.6174593907034307     
   5.7900000000000007E-002     5.4576154844730045     
   5.8200000000000002E-002     6.0657941111775102     
   5.8499999999999996E-002     6.4366370516553264     
   5.8800000000000005E-002     6.5879927980306823     
   5.9100000000000000E-002     6.5587979659295481     
   5.9400000000000008E-002     6.3977862676731556     
   5.9700000000000003E-002     6.1605502412123991     
   6.0000000000000012E-002     5.9007698305463432     
   6.0300000000000006E-002     5.6605797984050819     
   6.0600000000000001E-002     5.4702259260934882     
   6.0900000000000010E-002     5.3400407981383768     
   6.1200000000000004E-002     5.2616249277541671     
   6.1500000000000013E-002     5.2112623413045922     
   6.1800000000000008E-002     5.1493626792891787     
   6.2100000000000002E-002     5.0316563788193989     
   6.2399999999999997E-002     4.8124848504982820     
   6.2700000000000006E-002     4.4517274919623455     
   6.3000000000000000E-002     3.9245921081897714     
   6.3300000000000009E-002     3.2195282727082057     
   6.3600000000000004E-002     2.3437028483008229     
   6.3899999999999998E-002     1.3202120393923147     
   6.4199999999999993E-002    0.18013724033336664     
   6.4500000000000002E-002    -1.0409288579207432     
   6.4800000000000010E-002    -2.3147411780788283     
   6.5100000000000005E-002    -3.6277530890430296     
   6.5400000000000000E-002    -4.9861131678597816     
   6.5700000000000008E-002    -6.4207087807275940     
   6.5999999999999989E-002    -7.9822708728445839     
   6.6299999999999998E-002    -9.7347805023346456     
   6.6600000000000006E-002    -11.742714161169602     
   6.6900000000000001E-002    -14.053490922191891     
   6.7199999999999996E-002    -16.679428443639296     
   6.7500000000000004E-002    -19.579821044149433     
   6.7800000000000013E-002    -22.647533902464879     
   6.8099999999999994E-002    -25.701347913556425     
   6.8400000000000002E-002    -28.489096323388512     
   6.8700000000000011E-002    -30.699688654977745     
   6.8999999999999992E-002    -31.984394812473102     
   6.9300000000000000E-002    -31.990980900150397     
   6.9600000000000009E-002    -30.399134409736003     
   6.9900000000000004E-002    -26.961142245622064     
   7.0199999999999999E-002    -21.540596551546699     
   7.0500000000000007E-002    -14.140697857967286     
   7.0800000000000016E-002    -4.9278756878282355     
   7.1099999999999997E-002     5.7652984448790097     
   7.1400000000000005E-002     17.449304932636011     
   7.1700000000000000E-002     29.503176372591984     
   7.1999999999999995E-002     41.217450104921724     
   7.2300000000000003E-002     51.842114667490641     
   7.2600000000000012E-002     60.650220350715813     
   7.2900000000000006E-002     66.995065325856984     
   7.3200000000000001E-002     70.363252363564342     
   7.3499999999999996E-002     70.426309317852244     
   7.3800000000000004E-002     67.064675943938298     
   7.4099999999999999E-002     60.385755045619639     
   7.4400000000000008E-002     50.719353911917288     
   7.4700000000000003E-002     38.588528585854768     
   7.5000000000000011E-002     24.679503067356595     
   7.5299999999999992E-002     9.7816250240969520     
   7.5600000000000001E-002    -5.2690907760714909     
   7.5900000000000009E-002    -19.646227344275580     
   7.6200000000000004E-002    -32.600205232570488     
   7.6499999999999999E-002    -43.497574871543172     
   7.6800000000000007E-002    -51.863980552365412     
   7.7099999999999988E-002    -57.408811000880569     
   7.7399999999999997E-002    -60.024560416717719     
   7.7700000000000005E-002    -59.789647533524047     
   7.8000000000000014E-002    -56.941750885085860     
   7.8299999999999995E-002    -51.846814389394986     
   7.8600000000000003E-002    -44.970521040844034     
   7.8900000000000012E-002    -36.827481142741128     
   7.9199999999999993E-002    -27.951265951151044     
   7.9500000000000001E-002    -18.857963963911224     
   7.9800000000000010E-002    -10.010309414739787     
   8.0100000000000018E-002    -1.8070271070324417     
   8.0399999999999999E-002     5.4412371332811977     
   8.0700000000000008E-002     11.515700637763294     
   8.1000000000000003E-002     16.283459112819266     
   8.1299999999999997E-002     19.703043460371550     
   8.1600000000000006E-002     21.804695647886867     
   8.1900000000000014E-002     22.682251508682917     
   8.2199999999999995E-002     22.481232210213786     
   8.2500000000000004E-002     21.376879227480995     
   8.2799999999999999E-002     19.568613494153819     
   8.3100000000000007E-002     17.260944750258325     
   8.3400000000000002E-002     14.650543532933934     
   8.3700000000000011E-002     11.923089281990967     
   8.4000000000000005E-002     9.2355978017224896     
   8.4300000000000000E-002     6.7175046343272342     
   8.4599999999999995E-002     4.4670286995845556     
   8.4900000000000003E-002     2.5443616303112209     
   8.5199999999999998E-002    0.98162752897868832     
   8.5500000000000007E-002   -0.21950023396168264     
   8.5800000000000001E-002    -1.0816380157182444     
   8.6100000000000010E-002    -1.6415172097096919     
   8.6399999999999991E-002    -1.9497554821167822     
   8.6699999999999999E-002    -2.0588365122249739     
   8.7000000000000008E-002    -2.0196013944250848     
   8.7300000000000003E-002    -1.8805181234405401     
   8.7599999999999997E-002    -1.6790522726216750     
   8.7900000000000006E-002    -1.4457960457514052     
   8.8200000000000014E-002    -1.2042459517928135     
   8.8499999999999995E-002   -0.96832504012884235     
   8.8800000000000004E-002   -0.75012155003406344     
   8.9100000000000013E-002   -0.55704690193617912     
   8.9399999999999993E-002   -0.39367846454607691     
   8.9700000000000002E-002   -0.26671594883005206     
   9.0000000000000011E-002   -0.17824830411810647     
   9.0299999999999991E-002   -0.13150413518662124     
   9.0600000000000000E-002   -0.12768101852662761     
   9.0900000000000009E-002   -0.16267909347418769     
   9.1200000000000017E-002   -0.23298518746761870     
   9.1499999999999998E-002   -0.32897371653267121     
   9.1800000000000007E-002   -0.43942124504543534     
   9.2100000000000001E-002   -0.55386103306121082     
   9.2399999999999996E-002   -0.65817113078390488     
   9.2700000000000005E-002   -0.74351002327828020     
   9.3000000000000013E-002   -0.80263777257953473     
   9.3300000000000008E-002   -0.83054639647760686     
   9.3600000000000003E-002   -0.82961477578484133     
   9.3899999999999997E-002   -0.80222781179260649     
   9.4200000000000006E-002   -0.75535358563500177     
   9.4500000000000001E-002   -0.69726277830184635     
   9.4800000000000009E-002   -0.63337893599136030     
   9.5100000000000004E-002   -0.57155437454245639     
   9.5399999999999999E-002   -0.51422871227117173     
   9.5699999999999993E-002   -0.46266103769967742     
   9.6000000000000002E-002   -0.41714058221108324     
   9.6300000000000011E-002   -0.37368608344719767     
   9.6600000000000005E-002   -0.33103800562251529     
   9.6900000000000000E-002   -0.28624776655049056     
   9.7200000000000009E-002   -0.23784436831333908     
   9.7499999999999989E-002   -0.18825850313308637     
   9.7799999999999998E-002   -0.13845819533185541     
   9.8100000000000007E-002    -9.2825436891382937E-002
   9.8400000000000015E-002    -5.5737064010916382E-002
   9.8699999999999996E-002    -2.9381647713271578E-002
   9.9000000000000005E-002    -1.7198338686017788E-002
   9.9300000000000013E-002    -1.7945963446394635E-002
   9.9599999999999994E-002    -2.9761789252655220E-002
   9.9900000000000003E-002    -4.9442917491113438E-002
  0.10020000000000001         -6.9821694065579323E-002
  0.10049999999999999         -8.6576716736893183E-002
  0.10080000000000000         -9.4061615069469057E-002
  0.10110000000000001         -8.8025601794813946E-002
  0.10140000000000000         -6.8490603828024063E-002
  0.10170000000000000         -3.5414480792053719E-002
  0.10200000000000001          6.8660106241154872E-003
  0.10230000000000002          5.2748204147938182E-002
  0.10260000000000000          9.7003238291387253E-002
  0.10290000000000001         0.13211934544016946     
  0.10320000000000000         0.15411524806724561     
  0.10350000000000001         0.16057727086261958     
  0.10380000000000000         0.15027134448353940     
  0.10410000000000001         0.12741638989088827     
  0.10440000000000001          9.6406044512449593E-002
  0.10470000000000000          6.4137050170045992E-002
  0.10500000000000000          3.8574025515170002E-002
  0.10530000000000000          2.5340441769983402E-002
  0.10560000000000000          2.9731696730808943E-002
  0.10590000000000001          5.3535201492984713E-002
  0.10620000000000000          9.4288008310806540E-002
  0.10650000000000001         0.14773926462456338     
  0.10679999999999999         0.20581131153666668     
  0.10710000000000000         0.25856212392011885     
  0.10740000000000001         0.29713226071500037     
  0.10770000000000000         0.31226662550721190     
  0.10800000000000000         0.29903302316659341     
  0.10830000000000001         0.25686327234682554     
  0.10859999999999999         0.18807170235367071     
  0.10890000000000000         0.10118796150135244     
  0.10920000000000001          7.6396220943441900E-003
  0.10950000000000001         -8.0009559754701975E-002
  0.10979999999999999        -0.14734465303334940     
  0.11009999999999999        -0.18366753080536299     
  0.11040000000000001        -0.18231270224822654     
  0.11070000000000001        -0.14036712456451753     
  0.11100000000000000         -6.3848221854227991E-002
  0.11130000000000000          3.8199499871561717E-002
  0.11160000000000002         0.15090966576296330     
  0.11190000000000001         0.25501171389526295     
  0.11220000000000001         0.33521146425239623     
  0.11250000000000000         0.37470681431578268     
  0.11280000000000000         0.36399276006559622     
  0.11309999999999999         0.30148077793951461     
  0.11340000000000001         0.19007096202153345     
  0.11369999999999998          4.4279591588577867E-002
  0.11400000000000000        -0.11710071849007346     
  0.11430000000000000        -0.27197686520384035     
  0.11460000000000002        -0.39473743257516408     
  0.11489999999999999        -0.46630628118815115     
  0.11520000000000001        -0.47136740116596404     
  0.11550000000000001        -0.40346519217133386     
  0.11580000000000000        -0.26962379329422459     
  0.11609999999999999         -8.3644183761864915E-002
  0.11640000000000002         0.12828410000154411     
  0.11670000000000001         0.33323667337922863     
  0.11700000000000001         0.49856753490857236     
  0.11730000000000000         0.59001399694150281     
  0.11760000000000000         0.58283461771187384     
  0.11789999999999999         0.46347798277915359     
  0.11820000000000001         0.23104588000757778     
  0.11850000000000001         -9.6879862380309961E-002
  0.11880000000000000        -0.48924324924510892     
  0.11910000000000000        -0.90282567422528970     
  0.11940000000000002         -1.2847322532669405     
  0.11970000000000001         -1.5826908737420988     
  0.12000000000000001         -1.7480314213148371     
  0.12030000000000000         -1.7427289927706333     
  0.12060000000000000         -1.5481205386592258     
  0.12089999999999999         -1.1628376555937456     
  0.12119999999999999        -0.60856028192092904     
  0.12150000000000001          7.1447632003064962E-002
  0.12180000000000001         0.82079978514595797     
  0.12210000000000000          1.5694810509594728     
  0.12239999999999999          2.2455297043622116     
  0.12270000000000002          2.7826374239803391     
  0.12300000000000001          3.1229713714533114     
  0.12330000000000001          3.2294894047247205     
  0.12360000000000000          3.0854285514948434     
  0.12390000000000000          2.6959882443539778     
  0.12419999999999999          2.0916772405286452     
  0.12450000000000001          1.3191275927084130     
  0.12480000000000001         0.43967525354826847     
  0.12509999999999999        -0.47576368894506660     
  0.12540000000000001         -1.3584729750647457     
  0.12570000000000003         -2.1419699699409063     
  0.12600000000000000         -2.7713785831921802     
  0.12630000000000002         -3.2086261083990562     
  0.12659999999999999         -3.4287138803732549     
  0.12690000000000001         -3.4274810178346491     
  0.12719999999999998         -3.2169388106521026     
  0.12750000000000000         -2.8210266307063026     
  0.12780000000000002         -2.2781580033713826     
  0.12809999999999999         -1.6309754039928286     
  0.12840000000000001        -0.92637892728774784     
  0.12869999999999998        -0.21264347874700001     
  0.12900000000000000         0.46909118875740113     
  0.12930000000000003          1.0800675415764873     
  0.12959999999999999          1.5900093699672115     
  0.12990000000000002          1.9798815723005752     
  0.13019999999999998          2.2352307374235028     
  0.13050000000000000          2.3538961967774701     
  0.13080000000000003          2.3411427095219919     
  0.13109999999999999          2.2073648493312179     
  0.13140000000000002          1.9723453980568009     
  0.13169999999999998          1.6572624826995344     
  0.13200000000000001          1.2869437033913678     
  0.13229999999999997         0.88884862249607666     
  0.13260000000000000         0.48733119194325947     
  0.13290000000000002         0.10622888178213469     
  0.13319999999999999        -0.23382972860526269     
  0.13350000000000001        -0.51875664138377653     
  0.13380000000000003        -0.73746188323676365     
  0.13410000000000000        -0.88546385538486194     
  0.13440000000000002        -0.96527179402656305     
  0.13469999999999999        -0.98042097023615449     
  0.13500000000000001        -0.94192781258425740     
  0.13529999999999998        -0.86244132104553639     
  0.13560000000000000        -0.75327904728548190     
  0.13590000000000002        -0.63012374827091711     
  0.13619999999999999        -0.50328649157933014     
  0.13650000000000001        -0.38223008102121137     
  0.13680000000000003        -0.27573156879714039     
  0.13710000000000000        -0.18516907415961353     
  0.13740000000000002        -0.11339797986842180     
  0.13769999999999999         -5.9373848554182207E-002
  0.13800000000000001         -1.8262562966688101E-002
  0.13829999999999998          1.0226928603325173E-002
  0.13860000000000000          3.1874058182401466E-002
  0.13890000000000002          4.8972675195782515E-002
  0.13919999999999999          6.1093842537557362E-002
  0.13950000000000001          7.2478296259195218E-002
  0.13979999999999998          8.0344597044430699E-002
  0.14010000000000000          8.4502773625233202E-002
  0.14040000000000002          8.5936064075121429E-002
  0.14069999999999999          8.1573227517915112E-002
  0.14100000000000001          7.3974752649082820E-002
  0.14130000000000004          6.3697823783584684E-002
  0.14160000000000000          5.1398315657585535E-002
  0.14189999999999997          4.1711297680190079E-002
  0.14219999999999999          3.4939401450278816E-002
  0.14250000000000002          3.3194535067126704E-002
  0.14279999999999998          3.8976155845157165E-002
  0.14310000000000000          4.9335208723734106E-002
  0.14339999999999997          6.4852395469216131E-002
  0.14369999999999999          8.2688981487363297E-002
  0.14400000000000002          9.8090501797338886E-002
  0.14429999999999998         0.11069190741635380     
  0.14460000000000001         0.11543374017905751     
  0.14490000000000003         0.11132968465294214     
  0.14520000000000000          9.9667364984916906E-002
  0.14550000000000002          7.9412886686210243E-002
  0.14579999999999999          5.5141260033669710E-002
  0.14610000000000001          2.9790427932348068E-002
  0.14640000000000003          6.3057000336590452E-003
  0.14670000000000000         -1.0061896055977326E-002
  0.14699999999999996         -1.8580213954580257E-002
  0.14729999999999999         -1.7492160895975363E-002
  0.14760000000000001         -6.4106196968366867E-003
  0.14789999999999998          1.0916955813001486E-002
  0.14820000000000000          3.2458007935292993E-002