  -1.4999999999999999E-002     0.0000000000000000     
  -1.4700000000000000E-002     0.0000000000000000     
  -1.4400000000000000E-002     0.0000000000000000     
  -1.4100000000000000E-002     0.0000000000000000     
  -1.3800000000000000E-002     0.0000000000000000     
  -1.3500000000000000E-002     0.0000000000000000     
  -1.3200000000000000E-002     0.0000000000000000     
  -1.2899999999999998E-002     0.0000000000000000     
  -1.2600000000000000E-002     0.0000000000000000     
  -1.2299999999999998E-002     0.0000000000000000     
  -1.2000000000000000E-002     0.0000000000000000     
  -1.1699999999999999E-002     0.0000000000000000     
  -1.1399999999999999E-002     0.0000000000000000     
  -1.1099999999999999E-002     0.0000000000000000     
  -1.0799999999999999E-002     0.0000000000000000     
  -1.0499999999999999E-002     0.0000000000000000     
  -1.0199999999999999E-002     0.0000000000000000     
  -9.8999999999999991E-003     0.0000000000000000     
  -9.5999999999999992E-003     0.0000000000000000     
  -9.2999999999999992E-003     0.0000000000000000     
  -8.9999999999999993E-003     0.0000000000000000     
  -8.6999999999999994E-003     0.0000000000000000     
  -8.3999999999999995E-003     0.0000000000000000     
  -8.0999999999999996E-003     0.0000000000000000     
  -7.7999999999999988E-003     0.0000000000000000     
  -7.4999999999999997E-003     0.0000000000000000     
  -7.1999999999999998E-003     0.0000000000000000     
  -6.8999999999999981E-003     0.0000000000000000     
  -6.5999999999999982E-003     0.0000000000000000     
  -6.3000000000000000E-003     0.0000000000000000     
  -6.0000000000000001E-003     0.0000000000000000     
  -5.6999999999999985E-003     0.0000000000000000     
  -5.3999999999999986E-003     0.0000000000000000     
  -5.1000000000000004E-003     0.0000000000000000     
  -4.7999999999999987E-003    -1.1720916686349635E-042
  -4.5000000000000005E-003     8.4067665035091551E-042
  -4.1999999999999989E-003     6.1198044262389772E-039
  -3.8999999999999990E-003    -7.6590718853739264E-038
  -3.5999999999999990E-003     3.9681658573453288E-038
  -3.2999999999999991E-003     1.0069244742275359E-036
  -2.9999999999999992E-003     8.4833473212686353E-037
  -2.6999999999999993E-003    -1.3479785761429996E-035
  -2.3999999999999994E-003    -1.2462894696593524E-035
  -2.0999999999999977E-003     2.4386193689665557E-034
  -1.7999999999999995E-003    -3.6773451739693861E-034
  -1.4999999999999979E-003    -7.5952640990700939E-034
  -1.1999999999999997E-003     7.7203201042655562E-034
  -8.9999999999999976E-004     1.8483041769721575E-032
  -5.9999999999999810E-004    -9.1571143035112658E-032
  -2.9999999999999992E-004     1.6009278942119121E-031
   0.0000000000000000          4.9626887669929340E-031
   3.0000000000000165E-004    -4.2618784797963806E-030
   5.9999999999999984E-004     1.3074092521490967E-029
   9.0000000000000149E-004    -1.5300739731974940E-029
   1.2000000000000031E-003    -3.0415937144640327E-029
   1.5000000000000013E-003     1.4991075053702203E-028
   1.8000000000000030E-003    -1.3845032311614222E-028
   2.1000000000000012E-003    -7.9999844712250796E-028
   2.3999999999999994E-003     3.9700812780731253E-027
   2.7000000000000010E-003    -9.3990803731453096E-027
   2.9999999999999992E-003     1.4320740767887432E-026
   3.3000000000000008E-003    -2.7760500837958881E-026
   3.6000000000000025E-003     1.1007725026992565E-025
   3.9000000000000007E-003    -2.1527688068808344E-025
   4.2000000000000023E-003    -1.3044061508113704E-024
   4.5000000000000005E-003     1.3042314335401256E-023
   4.7999999999999987E-003    -5.8825771887879221E-023
   5.1000000000000004E-003     1.6223452885986565E-022
   5.4000000000000020E-003    -2.0852277098127486E-022
   5.7000000000000037E-003    -4.9370025672552423E-022
   5.9999999999999984E-003     3.9018669146492786E-021
   6.3000000000000000E-003    -1.2610521740147805E-020
   6.6000000000000017E-003     2.1123444736180466E-020
   6.9000000000000034E-003     2.2925388618720829E-020
   7.2000000000000015E-003    -3.5696136349305044E-019
   7.5000000000000032E-003     1.8836208114985107E-018
   7.8000000000000014E-003    -7.9185504175011537E-018
   8.0999999999999996E-003     3.0765357064448647E-017
   8.4000000000000012E-003    -1.1598464558879263E-016
   8.7000000000000029E-003     4.2502446852037594E-016
   9.0000000000000011E-003    -1.4704023383249623E-015
   9.2999999999999992E-003     4.5161617736183063E-015
   9.6000000000000009E-003    -1.0617470309029270E-014
   9.8999999999999991E-003     7.2475332032548778E-015
   1.0200000000000001E-002     1.0746655087542184E-013
   1.0500000000000002E-002    -8.1189451975098434E-013
   1.0800000000000004E-002     3.6370696089499364E-012
   1.1099999999999999E-002    -1.1320621461655480E-011
   1.1400000000000000E-002     2.1292623995605265E-011
   1.1700000000000002E-002     2.7369220469214151E-012
   1.2000000000000004E-002    -1.7528464641955644E-010
   1.2300000000000002E-002     5.8729449887761676E-010
   1.2600000000000000E-002    -6.5490924325501267E-010
   1.2900000000000002E-002    -1.6982227859218021E-009
   1.3200000000000000E-002     7.1608130195489798E-009
   1.3500000000000002E-002    -4.2072921450186552E-009
   1.3800000000000003E-002    -2.6788717962051722E-008
   1.4100000000000001E-002     4.4243657779079089E-008
   1.4400000000000000E-002     7.7207429219526527E-008
   1.4700000000000001E-002    -2.0106519851160749E-007
   1.4999999999999999E-002    -3.0188878115917569E-007
   1.5300000000000001E-002     5.4101976955129861E-007
   1.5600000000000003E-002     1.1272221113969838E-006
   1.5899999999999997E-002    -8.2431180739324229E-007
   1.6199999999999999E-002    -3.3910761721506821E-006
   1.6500000000000001E-002     2.5019772491848214E-007
   1.6800000000000002E-002     1.2947456445913514E-005
   1.7100000000000004E-002     2.7472537885608843E-005
   1.7400000000000006E-002     3.6403659995474502E-005
   1.7700000000000000E-002     4.6978686972302147E-005
   1.8000000000000002E-002     7.7323603815974778E-005
   1.8300000000000004E-002     1.3678394304184011E-004
   1.8600000000000005E-002     2.2042903316046001E-004
   1.8900000000000000E-002     3.2911951601472764E-004
   1.9200000000000002E-002     4.8788733699299536E-004
   1.9500000000000003E-002     7.3632409706934888E-004
   1.9799999999999998E-002     1.1068054030308457E-003
   2.0100000000000000E-002     1.6267455496263928E-003
   2.0400000000000001E-002     2.3444604327557961E-003
   2.0700000000000003E-002     3.3407811258184331E-003
   2.0999999999999998E-002     4.7112465948808387E-003
   2.1299999999999999E-002     6.5490207204020549E-003
   2.1600000000000001E-002     8.9563867391879090E-003
   2.1900000000000003E-002     1.2064472093159393E-002
   2.2200000000000004E-002     1.6022101964002756E-002
   2.2500000000000006E-002     2.0962348892035694E-002
   2.2800000000000001E-002     2.6985827976410387E-002
   2.3100000000000002E-002     3.4164733165518810E-002
   2.3400000000000004E-002     4.2531347259311361E-002
   2.3699999999999999E-002     5.2034420371325871E-002
   2.4000000000000000E-002     6.2494511436390759E-002
   2.4300000000000002E-002     7.3582045297769599E-002
   2.4599999999999997E-002     8.4815394465979813E-002
   2.4900000000000005E-002     9.5546193309199084E-002
   2.5200000000000000E-002    0.10493571924281844     
   2.5499999999999995E-002    0.11195189978368725     
   2.5800000000000003E-002    0.11541568123364168     
   2.6099999999999998E-002    0.11407567784504827     
   2.6400000000000007E-002    0.10668434688604736     
   2.6700000000000002E-002     9.2089982716790225E-002
   2.6999999999999996E-002     6.9349833928541799E-002
   2.7300000000000005E-002     3.7858509162278169E-002
   2.7600000000000000E-002    -2.5053111382334382E-003
   2.7900000000000008E-002    -5.1279791537348560E-002
   2.8200000000000003E-002   -0.10735220156592715     
   2.8499999999999998E-002   -0.16892355421296629     
   2.8800000000000006E-002   -0.23353801172653765     
   2.9100000000000001E-002   -0.29816745082613078     
   2.9400000000000003E-002   -0.35938430371386920     
   2.9700000000000004E-002   -0.41357315352950591     
   3.0000000000000006E-002   -0.45717291969539431     
   3.0300000000000001E-002   -0.48698591817677395     
   3.0600000000000002E-002   -0.50045388736292074     
   3.0900000000000004E-002   -0.49591286201920570     
   3.1199999999999999E-002   -0.47277337972370526     
   3.1500000000000007E-002   -0.43159803486558068     
   3.1800000000000002E-002   -0.37418643643856986     
   3.2099999999999997E-002   -0.30344196516815181     
   3.2400000000000005E-002   -0.22317924047924947     
   3.2700000000000000E-002   -0.13787736647834786     
   3.3000000000000002E-002    -5.2309328887284526E-002
   3.3300000000000003E-002     2.8790909203218792E-002
   3.3599999999999998E-002    0.10100400614195484     
   3.3900000000000000E-002    0.16063294146690632     
   3.4200000000000001E-002    0.20493015976928192     
   3.4500000000000003E-002    0.23228268974346439     
   3.4799999999999998E-002    0.24232542026882903     
   3.5099999999999999E-002    0.23581723750596245     
   3.5400000000000001E-002    0.21462944247054316     
   3.5699999999999996E-002    0.18164996257876664     
   3.6000000000000004E-002    0.14056143777212360     
   3.6299999999999999E-002     9.5609954360772811E-002
   3.6600000000000008E-002     5.1361611657767078E-002
   3.6900000000000002E-002     1.2417110978386936E-002
   3.7199999999999997E-002    -1.6818801440929378E-002
   3.7500000000000006E-002    -3.2298494903483563E-002
   3.7800000000000000E-002    -3.0537688731226184E-002
   3.8100000000000009E-002    -8.9441791872010637E-003
   3.8400000000000004E-002     3.3980133971085923E-002
   3.8699999999999998E-002     9.8698427034664221E-002
   3.9000000000000007E-002    0.18455151197620195     
   3.9300000000000002E-002    0.28945129558911464     
   3.9600000000000003E-002    0.41001010200774524     
   3.9900000000000005E-002    0.54183856114264595     
   4.0200000000000000E-002    0.67948295006006165     
   4.0500000000000001E-002    0.81670563592975109     
   4.0800000000000003E-002    0.94682367991876104     
   4.1100000000000005E-002     1.0628881782917894     
   4.1399999999999999E-002     1.1581052144258388     
   4.1700000000000008E-002     1.2261297843421761     
   4.2000000000000003E-002     1.2613223579286919     
   4.2299999999999997E-002     1.2590039944883868     
   4.2600000000000006E-002     1.2155994049773440     
   4.2900000000000001E-002     1.1289938533359867     
   4.3200000000000002E-002    0.99862270350226101     
   4.3500000000000004E-002    0.82544377519635304     
   4.3799999999999999E-002    0.61218026896289590     
   4.4100000000000000E-002    0.36341130502794639     
   4.4400000000000002E-002     8.5555208547406614E-002
   4.4700000000000004E-002   -0.21301815124286749     
   4.4999999999999998E-002   -0.52210138554200414     
   4.5300000000000000E-002   -0.83004415612127547     
   4.5600000000000002E-002    -1.1239775662423774     
   4.5899999999999996E-002    -1.3901729848340765     
   4.6200000000000005E-002    -1.6148474675230096     
   4.6500000000000000E-002    -1.7849426872725322     
   4.6799999999999994E-002    -1.8890622365483547     
   4.7100000000000003E-002    -1.9184203347534328     
   4.7399999999999998E-002    -1.8675051962668987     
   4.7700000000000006E-002    -1.7348890560749759     
   4.8000000000000001E-002    -1.5237075352870459     
   4.8300000000000010E-002    -1.2417318858365451     
   4.8600000000000004E-002   -0.90125798471726637     
   4.8899999999999999E-002   -0.51856340801434631     
   4.9200000000000008E-002   -0.11290885495481295     
   4.9500000000000002E-002    0.29446461033191246     
   4.9800000000000011E-002    0.68176789790626613     
   5.0100000000000006E-002     1.0280744259241743     
   5.0400000000000000E-002     1.3143922627911144     
   5.0700000000000009E-002     1.5251676303330641     
   5.1000000000000004E-002     1.6492212993633681     
   5.1299999999999998E-002     1.6801128404396763     
   5.1600000000000007E-002     1.6166993896469628     
   5.1900000000000002E-002     1.4630361912084939     
   5.2200000000000010E-002     1.2279137331105496     
   5.2500000000000005E-002    0.92432428264992295     
   5.2800000000000000E-002    0.56835452516716622     
   5.3099999999999994E-002    0.17832594107411731     
   5.3400000000000003E-002   -0.22628010481724814     
   5.3699999999999998E-002   -0.62629587646942442     
   5.4000000000000006E-002    -1.0038075719975574     
   5.4300000000000001E-002    -1.3430644993194309     
   5.4599999999999996E-002    -1.6313061134277933     
   5.4900000000000004E-002    -1.8591639239004274     
   5.5199999999999999E-002    -2.0212302517553802     
   5.5499999999999994E-002    -2.1158874857488930     
   5.5800000000000002E-002    -2.1446319393230988     
   5.6099999999999997E-002    -2.1117487255000098     
   5.6400000000000006E-002    -2.0236750288805165     
   5.6700000000000000E-002    -1.8878187815202949     
   5.6999999999999995E-002    -1.7115253883121737     
   5.7300000000000004E-002    -1.5013519564611273     
   5.7599999999999998E-002    -1.2624884540428101     
   5.7900000000000007E-002   -0.99836125823675248     
   5.8200000000000002E-002   -0.71044127806750057     
   5.8499999999999996E-002   -0.39847158547509198     
   5.8800000000000005E-002    -6.1421457370917323E-002
   5.9100000000000000E-002    0.30169000597226076     
   5.9400000000000008E-002    0.69086108813839719     
   5.9700000000000003E-002     1.1040016824720635     
   6.0000000000000012E-002     1.5358678252793561     
   6.0300000000000006E-002     1.9770673389470987     
   6.0600000000000001E-002     2.4137147818319522     
   6.0900000000000010E-002     2.8279189534338842     
   6.1200000000000004E-002     3.1980519260398657     
   6.1500000000000013E-002     3.4994506320255452     
   6.1800000000000008E-002     3.7062708411193368     
   6.2100000000000002E-002     3.7935409105179811     
   6.2399999999999997E-002     3.7392961710258499     
   6.2700000000000006E-002     3.5266046723141242     
   6.3000000000000000E-002     3.1456298657139325     
   6.3300000000000009E-002     2.5958186420155318     
   6.3600000000000004E-002     1.8871568264865730     
   6.3899999999999998E-002     1.0404794583404577     
   6.4199999999999993E-002     8.7304823478247917E-002
   6.4500000000000002E-002   -0.93112912932419944     
   6.4800000000000010E-002    -1.9657445954406794     
   6.5100000000000005E-002    -2.9623556293886217     
   6.5400000000000000E-002    -3.8653576963629863     
   6.5700000000000008E-002    -4.6213296668827279     
   6.5999999999999989E-002    -5.1822822789540552     
   6.6299999999999998E-002    -5.5094381227195024     
   6.6600000000000006E-002    -5.5766838377038495     
   6.6900000000000001E-002    -5.3722319915184107     
   6.7199999999999996E-002    -4.8994483410411247     
   6.7500000000000004E-002    -4.1770868968325257     
   6.7800000000000013E-002    -3.2385028437194761     
   6.8099999999999994E-002    -2.1296358752054383     
   6.8400000000000002E-002   -0.90585139856178309     
   6.8700000000000011E-002    0.37145607216546306     
   6.8999999999999992E-002     1.6380628170810079     
   6.9300000000000000E-002     2.8305662838320917     
   6.9600000000000009E-002     3.8898875469104670     
   6.9900000000000004E-002     4.7640230550129683     
   7.0199999999999999E-002     5.4106211592834708     
   7.0500000000000007E-002     5.7986846418752762     
   7.0800000000000016E-002     5.9094808159354759     
   7.1099999999999997E-002     5.7374488870746223     
   7.1400000000000005E-002     5.2905951721793496     
   7.1700000000000000E-002     4.5897861648850053     
   7.1999999999999995E-002     3.6677902722037983     
   7.2300000000000003E-002     2.5681757159621768     
   7.2600000000000012E-002     1.3438156475074476     
   7.2900000000000006E-002     5.4566502692087793E-002
   7.3200000000000001E-002    -1.2359993465414658     
   7.3499999999999996E-002    -2.4631125791674156     
   7.3800000000000004E-002    -3.5640330066745758     
   7.4099999999999999E-002    -4.4819948334971063     
   7.4400000000000008E-002    -5.1694728426728549     
   7.4700000000000003E-002    -5.5909877657065845     
   7.5000000000000011E-002    -5.7256176410337982     
   7.5299999999999992E-002    -5.5685670088483832     
   7.5600000000000001E-002    -5.1315575628248302     
   7.5900000000000009E-002    -4.4421162672183163     
   7.6200000000000004E-002    -3.5416480704950368     
   7.6499999999999999E-002    -2.4828488562863096     
   7.6800000000000007E-002    -1.3259863641741869     
   7.7099999999999988E-002   -0.13447638084881353     
   7.7399999999999997E-002     1.0290786928695788     
   7.7700000000000005E-002     2.1069129868449874     
   7.8000000000000014E-002     3.0496269474182522     
   7.8299999999999995E-002     3.8188187484994378     
   7.8600000000000003E-002     4.3888981540694303     
   7.8900000000000012E-002     4.7473586913408674     
   7.9199999999999993E-002     4.8941246453021261     
   7.9500000000000001E-002     4.8405982419613176     
   7.9800000000000010E-002     4.6074314260780440     
   8.0100000000000018E-002     4.2217823843301971     
   8.0399999999999999E-002     3.7148834027717594     
   8.0700000000000008E-002     3.1195631929146179     
   8.1000000000000003E-002     2.4679710092232736     
   8.1299999999999997E-002     1.7901546393648640     
   8.1600000000000006E-002     1.1129639023886408     
   8.1900000000000014E-002    0.45921437327711034     
   8.2199999999999995E-002   -0.15208543981698042     
   8.2500000000000004E-002   -0.70525782811826732     
   8.2799999999999999E-002    -1.1873315974276495     
   8.3100000000000007E-002    -1.5879503495520981     
   8.3400000000000002E-002    -1.8992466590254975     
   8.3700000000000011E-002    -2.1148182960649908     
   8.4000000000000005E-002    -2.2298120407453310     
   8.4300000000000000E-002    -2.2422171546769087     
   8.4599999999999995E-002    -2.1529373924538078     
   8.4900000000000003E-002    -1.9660265735863254     
   8.5199999999999998E-002    -1.6895323237730449     
   8.5500000000000007E-002    -1.3358674080541624     
   8.5800000000000001E-002   -0.92204406181735554     
   8.6100000000000010E-002   -0.46911739207951786     
   8.6399999999999991E-002    -1.4157246599714735E-003
   8.6699999999999999E-002    0.45418732278656454     
   8.7000000000000008E-002    0.86968932495441442     
   8.7300000000000003E-002     1.2175591621229354     
   8.7599999999999997E-002     1.4720264996281449     
   8.7900000000000006E-002     1.6106035989580481     
   8.8200000000000014E-002     1.6152209379743996     
   8.8499999999999995E-002     1.4728278168900670     
   8.8800000000000004E-002     1.1765118244214376     
   8.9100000000000013E-002    0.72599142759451296     
   8.9399999999999993E-002    0.12754393587867774     
   8.9700000000000002E-002   -0.60590859942782793     
   9.0000000000000011E-002    -1.4543847069328038     
   9.0299999999999991E-002    -2.3911501749060005     
   9.0600000000000000E-002    -3.3831505535087159     
   9.0900000000000009E-002    -4.3913113392241083     
   9.1200000000000017E-002    -5.3712760982019230     
   9.1499999999999998E-002    -6.2748434276480749     
   9.1800000000000007E-002    -7.0516949247317946     
   9.2100000000000001E-002    -7.6513926282746336     
   9.2399999999999996E-002    -8.0264947898566117     
   9.2700000000000005E-002    -8.1358314744730649     
   9.3000000000000013E-002    -7.9472836314497428     
   9.3300000000000008E-002    -7.4407066039544691     
   9.3600000000000003E-002    -6.6112175035990246     
   9.3899999999999997E-002    -5.4706971374967139     
   9.4200000000000006E-002    -4.0477988970050154     
   9.4500000000000001E-002    -2.3876981756999487     
   9.4800000000000009E-002   -0.55027391236995138     
   9.5100000000000004E-002     1.3931749647686371     
   9.5399999999999999E-002     3.3641872601890666     
   9.5699999999999993E-002     5.2816447310655601     
   9.6000000000000002E-002     7.0665229591161252     
   9.6300000000000011E-002     8.6475304487662576     
   9.6600000000000005E-002     9.9644594912664530     
   9.6900000000000000E-002     10.970716549040684     
   9.7200000000000009E-002     11.636741889330457     
   9.7499999999999989E-002     11.950283979691068     
   9.7799999999999998E-002     11.914822747197505     
   9.8100000000000007E-002     11.548517149258355     
   9.8400000000000015E-002     10.882150371252504     
   9.8699999999999996E-002     9.9559649141515205     
   9.9000000000000005E-002     8.8151644586129621     
   9.9300000000000013E-002     7.5071842383359044     
   9.9599999999999994E-002     6.0793021779325382     
   9.9900000000000003E-002     4.5752749672139945     
  0.10020000000000001          3.0341645818476883     
  0.10049999999999999          1.4896885002851121     
  0.10080000000000000         -3.0547294490442856E-002
  0.10110000000000001         -1.5038107992585923     
  0.10140000000000000         -2.9097396141501726     
  0.10170000000000000         -4.2297438881166176     
  0.10200000000000001         -5.4458502440719041     
  0.10230000000000002         -6.5378827462825164     
  0.10260000000000000         -7.4826082378711440     
  0.10290000000000001         -8.2546465252050343     
  0.10320000000000000         -8.8263887583874947     
  0.10350000000000001         -9.1704483467533340     
  0.10380000000000000         -9.2621909323557432     
  0.10410000000000001         -9.0822359604952183     
  0.10440000000000001         -8.6206779582754987     
  0.10470000000000000         -7.8796970976441028     
  0.10500000000000000         -6.8761138682301706     
  0.10530000000000000         -5.6427419727716623     
  0.10560000000000000         -4.2274500868078260     
  0.10590000000000001         -2.6920264249834363     
  0.10620000000000000         -1.1092618020308023     
  0.10650000000000001         0.44213437800876809     
  0.10679999999999999          1.8829488144622646     
  0.10710000000000000          3.1387693588172176     
  0.10740000000000001          4.1461338381162776     
  0.10770000000000000          4.8573307002479700     
  0.10800000000000000          5.2435736163515907     
  0.10830000000000001          5.2975852890258714     
  0.10859999999999999          5.0337171345773992     
  0.10890000000000000          4.4863507978338406     
  0.10920000000000001          3.7071852450243519     
  0.10950000000000001          2.7602394054300690     
  0.10979999999999999          1.7173785254965774     
  0.11009999999999999         0.65284618775989967     
  0.11040000000000001        -0.36332339992801388     
  0.11070000000000001         -1.2684132805575663     
  0.11100000000000000         -2.0112079342501064     
  0.11130000000000000         -2.5555699051931162     
  0.11160000000000002         -2.8802622385941503     
  0.11190000000000001         -2.9797522421067142     
  0.11220000000000001         -2.8630255344453630     
  0.11250000000000000         -2.5512029705027048     
  0.11280000000000000         -2.0760581481121454     
  0.11309999999999999         -1.4757683289608774     
  0.11340000000000001        -0.79195180505358365     
  0.11369999999999998         -6.8014673418869576E-002
  0.11400000000000000         0.65457804096669214     
  0.11430000000000000          1.3382302407336546     
  0.11460000000000002          1.9505082753072718     
  0.11489999999999999          2.4657951575696462     
  0.11520000000000001          2.8651910573297603     
  0.11550000000000001          3.1374014926044480     
  0.11580000000000000          3.2788395431219648     
  0.11609999999999999          3.2920789380702340     
  0.11640000000000002          3.1856382251411586     
  0.11670000000000001          2.9734002024140307     
  0.11700000000000001          2.6726955665443475     
  0.11730000000000000          2.3036611627725767     
  0.11760000000000000          1.8878695781018786     
  0.11789999999999999          1.4465868333874978     
  0.11820000000000001         0.99999664746744066     
  0.11850000000000001         0.56660156085782076     
  0.11880000000000000         0.16180821005796692     
  0.11910000000000000        -0.20273064275875582     
  0.11940000000000002        -0.51918102651967357     
  0.11970000000000001        -0.78356934847880644     
  0.12000000000000001        -0.99514377389088970     
  0.12030000000000000         -1.1567402450849684     
  0.12060000000000000         -1.2740975123131506     
  0.12089999999999999         -1.3540197734860246     
  0.12119999999999999         -1.4044343818196716     
  0.12150000000000001         -1.4335682789695059     
  0.12180000000000001         -1.4488032704184219     
  0.12210000000000000         -1.4570205518528228     
  0.12239999999999999         -1.4629217645598689     
  0.12270000000000002         -1.4691790187977432     
  0.12300000000000001         -1.4776671485606729     
  0.12330000000000001         -1.4880148647794065     
  0.12360000000000000         -1.4984173611438731     
  0.12390000000000000         -1.5064903551357380     
  0.12419999999999999         -1.5090469789274654     
  0.12450000000000001         -1.5030643174097913     
  0.12480000000000001         -1.4853106936899505     
  0.12509999999999999         -1.4530241543920281     
  0.12540000000000001         -1.4045045087219392     
  0.12570000000000003         -1.3380071505214028     
  0.12600000000000000         -1.2528194738085672     
  0.12630000000000002         -1.1494418393879866     
  0.12659999999999999         -1.0280986669940710     
  0.12690000000000001        -0.88975189670275734     
  0.12719999999999998        -0.73636408026027533     
  0.12750000000000000        -0.57012360500588466     
  0.12780000000000002        -0.39349746616991171     
  0.12809999999999999        -0.20946329966093463     
  0.12840000000000001         -2.1666640780094337E-002
  0.12869999999999998         0.16603779683061518     
  0.12900000000000000         0.34955548060749719     
  0.12930000000000003         0.52463944968287546     
  0.12959999999999999         0.68677545973741183     
  0.12990000000000002         0.83242983764321465     
  0.13019999999999998         0.95888399256116408     
  0.13050000000000000          1.0636656154428961     
  0.13080000000000003          1.1460268450537949     
  0.13109999999999999          1.2065594122987529     
  0.13140000000000002          1.2462642906634469     
  0.13169999999999998          1.2677112834843820     
  0.13200000000000001          1.2742729626240892     
  0.13229999999999997          1.2690172762188925     
  0.13260000000000000          1.2557431287078273     
  0.13290000000000002          1.2377578423138316     
  0.13319999999999999          1.2178095565554101     
  0.13350000000000001          1.1981176563138853     
  0.13380000000000003          1.1795356738046383     
  0.13410000000000000          1.1629078621831859     
  0.13440000000000002          1.1483109964472196     
  0.13469999999999999          1.1349221128797060     
  0.13500000000000001          1.1223462003553815     
  0.13529999999999998          1.1090068631539725     
  0.13560000000000000          1.0931365451176356     
  0.13590000000000002          1.0738831814405267     
  0.13619999999999999          1.0494910357457541     
  0.13650000000000001          1.0183753092456216     
  0.13680000000000003         0.97979104159693198     
  0.13710000000000000         0.93288866049498775     
  0.13740000000000002         0.87715487871281606     
  0.13769999999999999         0.81274105091941840     
  0.13800000000000001         0.74063907851950683     
  0.13829999999999998         0.66240205264025942     
  0.13860000000000000         0.57953445255867675     
  0.13890000000000002         0.49413992513874017     
  0.13919999999999999         0.40831946169691219     
  0.13950000000000001         0.32341576413991102     
  0.13979999999999998         0.24060015604780000     
  0.14010000000000000         0.16065776150566538     
  0.14040000000000002          8.3108674970966578E-002
  0.14069999999999999          6.6181726020363776E-003
  0.14100000000000001         -6.9401749738617916E-002
  0.14130000000000004        -0.14625766558090580     
  0.14160000000000000        -0.22645782094654593     
  0.14189999999999997        -0.31138554472664115     
  0.14219999999999999        -0.40211568287041632     
  0.14250000000000002        -0.50035278518650739     
  0.14279999999999998        -0.60791848046381347     
  0.14310000000000000        -0.72686000155210573     
  0.14339999999999997        -0.85911991177512448     
  0.14369999999999999         -1.0068817002952055     
  0.14400000000000002         -1.1723532087509017     
  0.14429999999999998         -1.3563421271872143     
  0.14460000000000001         -1.5588934232586285     
  0.14490000000000003         -1.7783576524039186     
  0.14520000000000000         -2.0095950341903932     
  0.14550000000000002         -2.2460960659293248     
  0.14579999999999999         -2.4795530773696850     
  0.14610000000000001         -2.6991772299644206     
  0.14640000000000003         -2.8945838337786900     
  0.14670000000000000         -3.0567547523435299     
  0.14699999999999996         -3.1788030054796401     
  0.14729999999999999         -3.2571017795583201     
  0.14760000000000001         -3.2912374184889694     
  0.14789999999999998         -3.2849946743939697     
  0.14820000000000000         -3.2449091059492718     