  -1.4999999999999999E-002     0.0000000000000000     
  -1.4700000000000000E-002     0.0000000000000000     
  -1.4400000000000000E-002     0.0000000000000000     
  -1.4100000000000000E-002     0.0000000000000000     
  -1.3800000000000000E-002     0.0000000000000000     
  -1.3500000000000000E-002     0.0000000000000000     
  -1.3200000000000000E-002     0.0000000000000000     
  -1.2899999999999998E-002     0.0000000000000000     
  -1.2600000000000000E-002     0.0000000000000000     
  -1.2299999999999998E-002     0.0000000000000000     
  -1.2000000000000000E-002     0.0000000000000000     
  -1.1699999999999999E-002     0.0000000000000000     
  -1.1399999999999999E-002     0.0000000000000000     
  -1.1099999999999999E-002     0.0000000000000000     
  -1.0799999999999999E-002    -1.1366324752220952E-042
  -1.0499999999999999E-002    -1.1904210379580637E-038
  -1.0199999999999999E-002     2.8282406349427433E-036
  -9.8999999999999991E-003    -7.1925601215781547E-035
  -9.5999999999999992E-003     1.2817060336924356E-033
  -9.2999999999999992E-003    -1.5296088210623189E-032
  -8.9999999999999993E-003     1.2701402121718574E-031
  -8.6999999999999994E-003    -7.6517542678032894E-031
  -8.3999999999999995E-003     3.2274600405825219E-030
  -8.0999999999999996E-003    -8.4157230948783283E-030
  -7.7999999999999988E-003     5.5747369716753519E-030
  -7.4999999999999997E-003     5.8626983624738788E-029
  -7.1999999999999998E-003    -3.1470492728948574E-028
  -6.8999999999999981E-003     9.6863501727690866E-028
  -6.5999999999999982E-003    -2.2970022805557821E-027
  -6.3000000000000000E-003     4.3138903671420018E-027
  -6.0000000000000001E-003    -2.2178075828656665E-028
  -5.6999999999999985E-003    -7.6861514095874568E-026
  -5.3999999999999986E-003     6.4591541679343560E-025
  -5.1000000000000004E-003    -3.7037968200527810E-024
  -4.7999999999999987E-003     1.6945768456048422E-023
  -4.5000000000000005E-003    -6.5015810188375602E-023
  -4.1999999999999989E-003     2.1430351291285615E-022
  -3.8999999999999990E-003    -6.1546665917775910E-022
  -3.5999999999999990E-003     1.5527250646361213E-021
  -3.2999999999999991E-003    -3.4499783831043546E-021
  -2.9999999999999992E-003     6.7089785271989756E-021
  -2.6999999999999993E-003    -1.1130394358688951E-020
  -2.3999999999999994E-003     1.4503781426676262E-020
  -2.0999999999999977E-003    -9.9123451118969932E-021
  -1.7999999999999995E-003    -1.7980721023543106E-020
  -1.4999999999999979E-003     9.4535303887875888E-020
  -1.1999999999999997E-003    -2.4534232963863151E-019
  -8.9999999999999976E-004     4.6016015985778199E-019
  -5.9999999999999810E-004    -6.2902132216624150E-019
  -2.9999999999999992E-004     5.1680637402674727E-019
   0.0000000000000000          1.9595232263523236E-020
   3.0000000000000165E-004    -2.7373287765241255E-019
   5.9999999999999984E-004    -2.5985321808762871E-018
   9.0000000000000149E-004     1.4230366268997682E-017
   1.2000000000000031E-003    -4.0071712529007398E-017
   1.5000000000000013E-003     7.5167395428080446E-017
   1.8000000000000030E-003    -8.6901648227179591E-017
   2.1000000000000012E-003     8.3219606699738941E-019
   2.3999999999999994E-003     2.8939059370877526E-016
   2.7000000000000010E-003    -8.6661497285613045E-016
   2.9999999999999992E-003     1.6800750183878533E-015
   3.3000000000000008E-003    -2.3582974960401207E-015
   3.6000000000000025E-003     1.8031542206889573E-015
   3.9000000000000007E-003     2.7620528640647646E-015
   4.2000000000000023E-003    -1.7190563232344316E-014
   4.5000000000000005E-003     4.9457117903558176E-014
   4.7999999999999987E-003    -9.8535631006536577E-014
   5.1000000000000004E-003     1.2859098328600352E-013
   5.4000000000000020E-003    -6.2899966376236854E-014
   5.7000000000000037E-003    -9.0898562187824970E-014
   5.9999999999999984E-003    -6.6216380681767537E-014
   6.3000000000000000E-003     1.0469561141539145E-012
   6.6000000000000017E-003     7.6292631973611113E-013
   6.9000000000000034E-003    -2.7715846445966939E-011
   7.2000000000000015E-003     1.3816545094741607E-010
   7.5000000000000032E-003    -3.5470148065793233E-010
   7.8000000000000014E-003     2.6872440778619417E-010
   8.0999999999999996E-003     1.5383429982979737E-009
   8.4000000000000012E-003    -5.9020922770606655E-009
   8.7000000000000029E-003     5.3299893060145083E-009
   9.0000000000000011E-003     2.0071013381258806E-008
   9.2999999999999992E-003    -5.6982209846459444E-008
   9.6000000000000009E-003    -2.1324983401443283E-008
   9.8999999999999991E-003     2.5681074923752440E-007
   1.0200000000000001E-002    -6.3561710786217110E-008
   1.0500000000000002E-002    -9.8501364550924483E-007
   1.0800000000000004E-002     4.6318922101908242E-008
   1.1099999999999999E-002     2.9906862103740152E-006
   1.1400000000000000E-002     1.3848236614568278E-006
   1.1700000000000002E-002    -6.7216338604443176E-006
   1.2000000000000004E-002    -7.7092162611475940E-006
   1.2300000000000002E-002     1.2706306959895316E-005
   1.2600000000000000E-002     4.3512996664137559E-005
   1.2900000000000002E-002     5.7450109755012181E-005
   1.3200000000000000E-002     5.4973212042640015E-005
   1.3500000000000002E-002     7.7522113381159639E-005
   1.3800000000000003E-002     1.5949297415326777E-004
   1.4100000000000001E-002     2.8638203656529242E-004
   1.4400000000000000E-002     4.2740819148385481E-004
   1.4700000000000001E-002     6.0353865575971241E-004
   1.4999999999999999E-002     8.9311749557882182E-004
   1.5300000000000001E-002     1.3634871712784559E-003
   1.5600000000000003E-002     2.0334514018680331E-003
   1.5899999999999997E-002     2.9299215061911561E-003
   1.6199999999999999E-002     4.1547036774205303E-003
   1.6500000000000001E-002     5.8591960337787364E-003
   1.6800000000000002E-002     8.1689331219791488E-003
   1.7100000000000004E-002     1.1181910603563765E-002
   1.7400000000000006E-002     1.5040282986457744E-002
   1.7700000000000000E-002     1.9943504568755197E-002
   1.8000000000000002E-002     2.6067570654230768E-002
   1.8300000000000004E-002     3.3504947577599711E-002
   1.8600000000000005E-002     4.2292872903882305E-002
   1.8900000000000000E-002     5.2442619946101235E-002
   1.9200000000000002E-002     6.3864302495189165E-002
   1.9500000000000003E-002     7.6262424205844254E-002
   1.9799999999999998E-002     8.9114045745179199E-002
   2.0100000000000000E-002    0.10170353251772106     
   2.0400000000000001E-002    0.11312026038623288     
   2.0700000000000003E-002    0.12219163542765399     
   2.0999999999999998E-002    0.12747084409295736     
   2.1299999999999999E-002    0.12733560773923572     
   2.1600000000000001E-002    0.12010863810587299     
   2.1900000000000003E-002    0.10416258766262078     
   2.2200000000000004E-002     7.8022924607168948E-002
   2.2500000000000006E-002     4.0543967575990610E-002
   2.2800000000000001E-002    -8.8716310694620781E-003
   2.3100000000000002E-002    -7.0106459900523443E-002
   2.3400000000000004E-002   -0.14221434014247275     
   2.3699999999999999E-002   -0.22331170506274572     
   2.4000000000000000E-002   -0.31053647577988935     
   2.4300000000000002E-002   -0.40011026989648890     
   2.4599999999999997E-002   -0.48749926457473669     
   2.4900000000000005E-002   -0.56767614436867053     
   2.5200000000000000E-002   -0.63542390784474523     
   2.5499999999999995E-002   -0.68574210403932678     
   2.5800000000000003E-002   -0.71424597537243328     
   2.6099999999999998E-002   -0.71747138523607734     
   2.6400000000000007E-002   -0.69331416608416574     
   2.6700000000000002E-002   -0.64135998781913661     
   2.6999999999999996E-002   -0.56288523818764946     
   2.7300000000000005E-002   -0.46081633419841461     
   2.7600000000000000E-002   -0.33956155822674028     
   2.7900000000000008E-002   -0.20470894717340407     
   2.8200000000000003E-002    -6.2751507982872379E-002
   2.8499999999999998E-002     7.9473618161587795E-002
   2.8800000000000006E-002    0.21540851189755578     
   2.9100000000000001E-002    0.33917997345902212     
   2.9400000000000003E-002    0.44595808992933322     
   2.9700000000000004E-002    0.53220847340903932     
   3.0000000000000006E-002    0.59592770605078149     
   3.0300000000000001E-002    0.63675993594676239     
   3.0600000000000002E-002    0.65583993030150101     
   3.0900000000000004E-002    0.65552789026170943     
   3.1199999999999999E-002    0.63924239693951912     
   3.1500000000000007E-002    0.61112344859519152     
   3.1800000000000002E-002    0.57566604879693639     
   3.2099999999999997E-002    0.53744143747477424     
   3.2400000000000005E-002    0.50064587649616787     
   3.2700000000000000E-002    0.46880780494286767     
   3.3000000000000002E-002    0.44466948928928773     
   3.3300000000000003E-002    0.42967580267159478     
   3.3599999999999998E-002    0.42398310781019410     
   3.3900000000000000E-002    0.42652981674628437     
   3.4200000000000001E-002    0.43469275345513769     
   3.4500000000000003E-002    0.44462419189870594     
   3.4799999999999998E-002    0.45154089483466675     
   3.5099999999999999E-002    0.44998665954163752     
   3.5400000000000001E-002    0.43451216522779806     
   3.5699999999999996E-002    0.40032035449187664     
   3.6000000000000004E-002    0.34395770969024486     
   3.6299999999999999E-002    0.26385297053847467     
   3.6600000000000008E-002    0.16080798721348216     
   3.6900000000000002E-002     3.8529004892450043E-002
   3.7199999999999997E-002    -9.6235290349039215E-002
   3.7500000000000006E-002   -0.23418018614920244     
   3.7800000000000000E-002   -0.36396032502684672     
   3.8100000000000009E-002   -0.47295776400528888     
   3.8400000000000004E-002   -0.54853149758776465     
   3.8699999999999998E-002   -0.57910575258530184     
   3.9000000000000007E-002   -0.55541209074414277     
   3.9300000000000002E-002   -0.47181790669501456     
   3.9600000000000003E-002   -0.32707371435776184     
   3.9900000000000005E-002   -0.12478714198687524     
   4.0200000000000000E-002    0.12642337628247585     
   4.0500000000000001E-002    0.41315180574818566     
   4.0800000000000003E-002    0.71777212094387854     
   4.1100000000000005E-002     1.0197607276598799     
   4.1399999999999999E-002     1.2970016882960098     
   4.1700000000000008E-002     1.5269789392146944     
   4.2000000000000003E-002     1.6884390636220661     
   4.2299999999999997E-002     1.7627428589248209     
   4.2600000000000006E-002     1.7352376837837875     
   4.2900000000000001E-002     1.5965136564768843     
   4.3200000000000002E-002     1.3430652351900159     
   4.3500000000000004E-002    0.97775873087069431     
   4.3799999999999999E-002    0.51016398644986982     
   4.4100000000000000E-002    -4.3223379286067107E-002
   4.4400000000000002E-002   -0.65948943204141164     
   4.4700000000000004E-002    -1.3105294568317034     
   4.4999999999999998E-002    -1.9641041292100065     
   4.5300000000000000E-002    -2.5852916255198863     
   4.5600000000000002E-002    -3.1382691732634069     
   4.5899999999999996E-002    -3.5886729359945546     
   4.6200000000000005E-002    -3.9058362936741542     
   4.6500000000000000E-002    -4.0647587720081448     
   4.6799999999999994E-002    -4.0480691730851941     
   4.7100000000000003E-002    -3.8472758730868328     
   4.7399999999999998E-002    -3.4639079577760201     
   4.7700000000000006E-002    -2.9098985812451259     
   4.8000000000000001E-002    -2.2067133290641503     
   4.8300000000000010E-002    -1.3842592778283145     
   4.8600000000000004E-002   -0.47930893511874795     
   4.8899999999999999E-002    0.46637908343543133     
   4.9200000000000008E-002     1.4083321841634127     
   4.9500000000000002E-002     2.3019556800005834     
   4.9800000000000011E-002     3.1046691657188714     
   5.0100000000000006E-002     3.7776172722219670     
   5.0400000000000000E-002     4.2870331064420641     
   5.0700000000000009E-002     4.6055930759661372     
   5.1000000000000004E-002     4.7135759573253040     
   5.1299999999999998E-002     4.5994010603342197     
   5.1600000000000007E-002     4.2598731690474150     
   5.1900000000000002E-002     3.7007419102621952     
   5.2200000000000010E-002     2.9371544212200851     
   5.2500000000000005E-002     1.9933731785705180     
   5.2800000000000000E-002    0.90258191926142239     
   5.3099999999999994E-002   -0.29397432475258078     
   5.3400000000000003E-002    -1.5484524323702213     
   5.3699999999999998E-002    -2.8076463554660926     
   5.4000000000000006E-002    -4.0157145096792348     
   5.4300000000000001E-002    -5.1173789426454155     
   5.4599999999999996E-002    -6.0607385470894011     
   5.4900000000000004E-002    -6.8006876051587870     
   5.5199999999999999E-002    -7.3016990052633801     
   5.5499999999999994E-002    -7.5404824152695760     
   5.5800000000000002E-002    -7.5077728247670681     
   5.6099999999999997E-002    -7.2079752050604871     
   5.6400000000000006E-002    -6.6588526649803050     
   5.6700000000000000E-002    -5.8902757875657539     
   5.6999999999999995E-002    -4.9410809492926990     
   5.7300000000000004E-002    -3.8555683533178424     
   5.7599999999999998E-002    -2.6798916534675739     
   5.7900000000000007E-002    -1.4588900969789749     
   5.8200000000000002E-002   -0.23286342646260016     
   5.8499999999999996E-002    0.96521629525949870     
   5.8800000000000005E-002     2.1109216551022603     
   5.9100000000000000E-002     3.1885718407314969     
   5.9400000000000008E-002     4.1904649374775227     
   5.9700000000000003E-002     5.1158595154508193     
   6.0000000000000012E-002     5.9686952177245640     
   6.0300000000000006E-002     6.7549238952990551     
   6.0600000000000001E-002     7.4801334487489957     
   6.0900000000000010E-002     8.1472305143249386     
   6.1200000000000004E-002     8.7549637340868394     
   6.1500000000000013E-002     9.2965281002299349     
   6.1800000000000008E-002     9.7589948616337647     
   6.2100000000000002E-002     10.124518939757138     
   6.2399999999999997E-002     10.370976131432865     
   6.2700000000000006E-002     10.473258701038446     
   6.3000000000000000E-002     10.405379923826896     
   6.3300000000000009E-002     10.142219879760461     
   6.3600000000000004E-002     9.6616344481340395     
   6.3899999999999998E-002     8.9461790881957857     
   6.4199999999999993E-002     7.9844425487408071     
   6.4500000000000002E-002     6.7722765405533050     
   6.4800000000000010E-002     5.3136217845403442     
   6.5100000000000005E-002     3.6215919466988478     
   6.5400000000000000E-002     1.7189882788528310     
   6.5700000000000008E-002   -0.36129235375887514     
   6.5999999999999989E-002    -2.5760677123023417     
   6.6299999999999998E-002    -4.8713206459021006     
   6.6600000000000006E-002    -7.1825341865869134     
   6.6900000000000001E-002    -9.4364468125802841     
   6.7199999999999996E-002    -11.552724768958297     
   6.7500000000000004E-002    -13.446064813731653     
   6.7800000000000013E-002    -15.030426376708917     
   6.8099999999999994E-002    -16.223556119383947     
   6.8400000000000002E-002    -16.952037313233170     
   6.8700000000000011E-002    -17.157625080746762     
   6.8999999999999992E-002    -16.801828121942361     
   6.9300000000000000E-002    -15.870591607271216     
   6.9600000000000009E-002    -14.378279340767030     
   6.9900000000000004E-002    -12.369061709651550     
   7.0199999999999999E-002    -9.9165157765026883     
   7.0500000000000007E-002    -7.1201576228053778     
   7.0800000000000016E-002    -4.1010735459372167     
   7.1099999999999997E-002   -0.99583078640692912     
   7.1400000000000005E-002     2.0528878636920478     
   7.1700000000000000E-002     4.9047419923101536     
   7.1999999999999995E-002     7.4303406862272414     
   7.2300000000000003E-002     9.5193774145138708     
   7.2600000000000012E-002     11.087720356869095     
   7.2900000000000006E-002     12.081532882610002     
   7.3200000000000001E-002     12.479186692748694     
   7.3499999999999996E-002     12.292023758562401     
   7.3800000000000004E-002     11.562627512496956     
   7.4099999999999999E-002     10.359886086353084     
   7.4400000000000008E-002     8.7728614310794839     
   7.4700000000000003E-002     6.9059484070112607     
   7.5000000000000011E-002     4.8719615109006904     
   7.5299999999999992E-002     2.7850668623367252     
   7.5600000000000001E-002    0.75486972439719846     
   7.5900000000000009E-002    -1.1189180828216747     
   7.6200000000000004E-002    -2.7509949816288048     
   7.6499999999999999E-002    -4.0736788944771476     
   7.6800000000000007E-002    -5.0395977253636461     
   7.7099999999999988E-002    -5.6227908669698419     
   7.7399999999999997E-002    -5.8192658222877984     
   7.7700000000000005E-002    -5.6465407064979978     
   7.8000000000000014E-002    -5.1414730059597087     
   7.8299999999999995E-002    -4.3586020573268227     
   7.8600000000000003E-002    -3.3660349060428194     
   7.8900000000000012E-002    -2.2409288483889536     
   7.9199999999999993E-002    -1.0653962042873750     
   7.9500000000000001E-002     7.9281437838611024E-002
   7.9800000000000010E-002     1.1179193876816429     
   8.0100000000000018E-002     1.9859223585187862     
   8.0399999999999999E-002     2.6334195978072312     
   8.0700000000000008E-002     3.0288226683796613     
   8.1000000000000003E-002     3.1606899290568728     
   8.1299999999999997E-002     3.0375156674112191     
   8.1600000000000006E-002     2.6862809984299592     
   8.1900000000000014E-002     2.1499062903469199     
   8.2199999999999995E-002     1.4835348403323929     
   8.2500000000000004E-002    0.74953230528500803     
   8.2799999999999999E-002     1.2255086622890626E-002
   8.3100000000000007E-002   -0.66761648248333016     
   8.3400000000000002E-002    -1.2378142219365267     
   8.3700000000000011E-002    -1.6578375120366946     
   8.4000000000000005E-002    -1.9016148865644151     
   8.4300000000000000E-002    -1.9596026493098209     
   8.4599999999999995E-002    -1.8381453813479354     
   8.4900000000000003E-002    -1.5574592987032987     
   8.5199999999999998E-002    -1.1490657873489782     
   8.5500000000000007E-002   -0.65245346153514971     
   8.5800000000000001E-002   -0.11159544484266570     
   8.6100000000000010E-002    0.43037054993346330     
   8.6399999999999991E-002    0.93474313958643873     
   8.6699999999999999E-002     1.3694583186697580     
   8.7000000000000008E-002     1.7125087747168197     
   8.7300000000000003E-002     1.9528138882668120     
   8.7599999999999997E-002     2.0892961804643750     
   8.7900000000000006E-002     2.1309180973571902     
   8.8200000000000014E-002     2.0945913744355082     
   8.8499999999999995E-002     2.0023054183876532     
   8.8800000000000004E-002     1.8783905478157661     
   8.9100000000000013E-002     1.7461967740483790     
   8.9399999999999993E-002     1.6262773095210123     
   8.9700000000000002E-002     1.5342623660310026     
   9.0000000000000011E-002     1.4787192092700403     
   9.0299999999999991E-002     1.4616844430704499     
   9.0600000000000000E-002     1.4787024907477486     
   9.0900000000000009E-002     1.5200303852791381     
   9.1200000000000017E-002     1.5731244604513734     
   9.1499999999999998E-002     1.6234516705402762     
   9.1800000000000007E-002     1.6565706358204417     
   9.2100000000000001E-002     1.6612183310010424     
   9.2399999999999996E-002     1.6291402952052025     
   9.2700000000000005E-002     1.5555058309026473     
   9.3000000000000013E-002     1.4398315099075489     
   9.3300000000000008E-002     1.2842200963319919     
   9.3600000000000003E-002     1.0927952532705858     
   9.3899999999999997E-002    0.87057736282987208     
   9.4200000000000006E-002    0.62171693768400504     
   9.4500000000000001E-002    0.34961256662435058     
   9.4800000000000009E-002     5.6055370780192612E-002
   9.5100000000000004E-002   -0.25846849191338367     
   9.5399999999999999E-002   -0.59322147187474861     
   9.5699999999999993E-002   -0.94760258547001119     
   9.6000000000000002E-002    -1.3193716627462060     
   9.6300000000000011E-002    -1.7032948132717216     
   9.6600000000000005E-002    -2.0929215213587664     
   9.6900000000000000E-002    -2.4801989388822809     
   9.7200000000000009E-002    -2.8557307320582757     
   9.7499999999999989E-002    -3.2118982784563119     
   9.7799999999999998E-002    -3.5437164801740892     
   9.8100000000000007E-002    -3.8504958654509860     
   9.8400000000000015E-002    -4.1365652680105454     
   9.8699999999999996E-002    -4.4100715887554518     
   9.9000000000000005E-002    -4.6826777320555806     
   9.9300000000000013E-002    -4.9669157018131340     
   9.9599999999999994E-002    -5.2718385426443160     
   9.9900000000000003E-002    -5.6005479214140745     
  0.10020000000000001         -5.9478942169553743     
  0.10049999999999999         -6.2973575101514321     
  0.10080000000000000         -6.6219922323819320     
  0.10110000000000001         -6.8860544661071161     
  0.10140000000000000         -7.0486324852543811     
  0.10170000000000000         -7.0695119994593716     
  0.10200000000000001         -6.9142613515342939     
  0.10230000000000002         -6.5604963442487492     
  0.10260000000000000         -6.0029274881059784     
  0.10290000000000001         -5.2545086705827373     
  0.10320000000000000         -4.3471043030871321     
  0.10350000000000001         -3.3283636833408412     
  0.10380000000000000         -2.2539765620613750     
  0.10410000000000001         -1.1794331110546568     
  0.10440000000000001        -0.15002889014863158     
  0.10470000000000000         0.80746548582682354     
  0.10500000000000000          1.6921544281657057     
  0.10530000000000000          2.5345350523199239     
  0.10560000000000000          3.3959050823722041     
  0.10590000000000001          4.3615121297724251     
  0.10620000000000000          5.5307847128418182     
  0.10650000000000001          7.0036997083061099     
  0.10679999999999999          8.8630455261273742     
  0.10710000000000000          11.156649067645363     
  0.10740000000000001          13.881411581730887     
  0.10770000000000000          16.970737734917485     
  0.10800000000000000          20.289061960315646     
  0.10830000000000001          23.633571398729224     
  0.10859999999999999          26.743432313406707     
  0.10890000000000000          29.317531266153910     
  0.10920000000000001          31.039071250197857     
  0.10950000000000001          31.605931185008878     
  0.10979999999999999          30.762298702907195     
  0.11009999999999999          28.326735587334575     
  0.11040000000000001          24.218809412770913     
  0.11070000000000001          18.477861106474037     
  0.11100000000000000          11.268706110389139     
  0.11130000000000000          2.8791550553297141     
  0.11160000000000002         -6.2953007985152301     
  0.11190000000000001         -15.777545524061944     
  0.11220000000000001         -25.041168272000597     
  0.11250000000000000         -33.550868296336787     
  0.11280000000000000         -40.802782856023732     
  0.11309999999999999         -46.361404588634919     
  0.11340000000000001         -49.894144074695241     
  0.11369999999999998         -51.195616399291019     
  0.11400000000000000         -50.199017571911355     
  0.11430000000000000         -46.980305891354220     
  0.11460000000000002         -41.749993875388192     
  0.11489999999999999         -34.832149237372519     
  0.11520000000000001         -26.639586617522866     
  0.11550000000000001         -17.641988135105748     
  0.11580000000000000         -8.3317733446371669     
  0.11609999999999999         0.80789787347741893     
  0.11640000000000002          9.3340737205489219     
  0.11670000000000001          16.868672274234637     
  0.11700000000000001          23.115145540246555     
  0.11730000000000000          27.870589564323208     
  0.11760000000000000          31.029293310456509     
  0.11789999999999999          32.580371773422925     
  0.11820000000000001          32.598381553053080     
  0.11850000000000001          31.231813914594113     
  0.11880000000000000          28.687383353022604     
  0.11910000000000000          25.212174475445984     
  0.11940000000000002          21.075211246230150     
  0.11970000000000001          16.550426580182421     
  0.12000000000000001          11.902396901984504     
  0.12030000000000000          7.3710654079745250     
  0.12060000000000000          3.1604307929452968     
  0.12089999999999999        -0.56705124849277988     
  0.12119999999999999         -3.6964249815579784     
  0.12150000000000001         -6.1605565615889164     
  0.12180000000000001         -7.9380763762128348     
  0.12210000000000000         -9.0497731212997667     
  0.12239999999999999         -9.5495785263415804     
  0.12270000000000002         -9.5176546809350970     
  0.12300000000000001         -9.0517376466307695     
  0.12330000000000001         -8.2561200303783568     
  0.12360000000000000         -7.2363359587701659     
  0.12390000000000000         -6.0915711666629377     
  0.12419999999999999         -4.9068595596000062     
  0.12450000000000001         -3.7528959197944740     
  0.12480000000000001         -2.6840191818246488     
  0.12509999999999999         -1.7377730124398463     
  0.12540000000000001        -0.93737268649434635     
  0.12570000000000003        -0.29131425147557555     
  0.12600000000000000         0.20184733958781143     
  0.12630000000000002         0.54899877409111530     
  0.12659999999999999         0.76515515817938995     
  0.12690000000000001         0.86827537820865941     
  0.12719999999999998         0.87627928137616462     
  0.12750000000000000         0.81056682031647087     
  0.12780000000000002         0.69067038916287682     
  0.12809999999999999         0.53522384595157901     
  0.12840000000000001         0.36338483971758873     
  0.12869999999999998         0.19041909521472489     
  0.12900000000000000          3.0610975296599438E-002
  0.12930000000000003        -0.10517362778510866     
  0.12959999999999999        -0.21089701069245126     
  0.12990000000000002        -0.28096849063061052     
  0.13019999999999998        -0.31528553531885239     
  0.13050000000000000        -0.31817228170983353     
  0.13080000000000003        -0.29387942349467350     
  0.13109999999999999        -0.24954278572705474     
  0.13140000000000002        -0.19309428762868960     
  0.13169999999999998        -0.13152444638165298     
  0.13200000000000001         -7.1664726321185243E-002
  0.13229999999999997         -1.7641422848655323E-002
  0.13260000000000000          2.8578860636390500E-002
  0.13290000000000002          6.6266580851423840E-002
  0.13319999999999999          9.6692613190821883E-002
  0.13350000000000001         0.12252701005020730     
  0.13380000000000003         0.14619354712717392     
  0.13410000000000000         0.16996846573569008     
  0.13440000000000002         0.19537422869377380     
  0.13469999999999999         0.22245499427209528     
  0.13500000000000001         0.25070889589686884     
  0.13529999999999998         0.27737004874702276     
  0.13560000000000000         0.29910999060374144     
  0.13590000000000002         0.31415686392942399     
  0.13619999999999999         0.31968299033122127     
  0.13650000000000001         0.31287488274866238     
  0.13680000000000003         0.29433642553641137     
  0.13710000000000000         0.26598325795564992     
  0.13740000000000002         0.23021207263219473     
  0.13769999999999999         0.19059402912664072     
  0.13800000000000001         0.15122165910513852     
  0.13829999999999998         0.11639054822088038     
  0.13860000000000000          8.9321985316721683E-002
  0.13890000000000002          7.1273322959312019E-002
  0.13919999999999999          6.2593085514815114E-002
  0.13950000000000001          6.2139801074293344E-002
  0.13979999999999998          6.5809409761678539E-002
  0.14010000000000000          7.0638507873115264E-002
  0.14040000000000002          7.3399950053824603E-002
  0.14069999999999999          6.9544267155668318E-002
  0.14100000000000001          5.8584318551881939E-002
  0.14130000000000004          4.0851168272873183E-002
  0.14160000000000000          1.7387607567272180E-002
  0.14189999999999997         -7.6122398996904157E-003
  0.14219999999999999         -3.0386452406640053E-002
  0.14250000000000002         -4.5957260219325183E-002
  0.14279999999999998         -5.0278251548876510E-002
  0.14310000000000000         -4.3131459467380340E-002
  0.14339999999999997         -2.3724810105163051E-002
  0.14369999999999999          5.0972235870065247E-003
  0.14400000000000002          3.6548813649069763E-002
  0.14429999999999998          6.5486665231839949E-002
  0.14460000000000001          8.4795465564050820E-002
  0.14490000000000003          8.7410612438872423E-002
  0.14520000000000000          6.9755385560598238E-002
  0.14550000000000002          3.0290535048131510E-002
  0.14579999999999999         -2.8537652684960606E-002
  0.14610000000000001        -0.10067670077011356     
  0.14640000000000003        -0.17830296868991918     
  0.14670000000000000        -0.25060578077925549     
  0.14699999999999996        -0.30669334585400698     
  0.14729999999999999        -0.33863351651882179     
  0.14760000000000001        -0.33969220546172257     
  0.14789999999999998        -0.30750198505562726     
  0.14820000000000000        -0.24576833721506230     