  -1.4999999999999999E-002     0.0000000000000000     
  -1.4700000000000000E-002     0.0000000000000000     
  -1.4400000000000000E-002     0.0000000000000000     
  -1.4100000000000000E-002     0.0000000000000000     
  -1.3800000000000000E-002     0.0000000000000000     
  -1.3500000000000000E-002     0.0000000000000000     
  -1.3200000000000000E-002     0.0000000000000000     
  -1.2899999999999998E-002     0.0000000000000000     
  -1.2600000000000000E-002     0.0000000000000000     
  -1.2299999999999998E-002     0.0000000000000000     
  -1.2000000000000000E-002     0.0000000000000000     
  -1.1699999999999999E-002     0.0000000000000000     
  -1.1399999999999999E-002     0.0000000000000000     
  -1.1099999999999999E-002     0.0000000000000000     
  -1.0799999999999999E-002     0.0000000000000000     
  -1.0499999999999999E-002     0.0000000000000000     
  -1.0199999999999999E-002     0.0000000000000000     
  -9.8999999999999991E-003     0.0000000000000000     
  -9.5999999999999992E-003     0.0000000000000000     
  -9.2999999999999992E-003     0.0000000000000000     
  -8.9999999999999993E-003     0.0000000000000000     
  -8.6999999999999994E-003     0.0000000000000000     
  -8.3999999999999995E-003     0.0000000000000000     
  -8.0999999999999996E-003     0.0000000000000000     
  -7.7999999999999988E-003     0.0000000000000000     
  -7.4999999999999997E-003     0.0000000000000000     
  -7.1999999999999998E-003     0.0000000000000000     
  -6.8999999999999981E-003     0.0000000000000000     
  -6.5999999999999982E-003     0.0000000000000000     
  -6.3000000000000000E-003     0.0000000000000000     
  -6.0000000000000001E-003     0.0000000000000000     
  -5.6999999999999985E-003     0.0000000000000000     
  -5.3999999999999986E-003     0.0000000000000000     
  -5.1000000000000004E-003     0.0000000000000000     
  -4.7999999999999987E-003     0.0000000000000000     
  -4.5000000000000005E-003     0.0000000000000000     
  -4.1999999999999989E-003     0.0000000000000000     
  -3.8999999999999990E-003     0.0000000000000000     
  -3.5999999999999990E-003     0.0000000000000000     
  -3.2999999999999991E-003     0.0000000000000000     
  -2.9999999999999992E-003     0.0000000000000000     
  -2.6999999999999993E-003     0.0000000000000000     
  -2.3999999999999994E-003     0.0000000000000000     
  -2.0999999999999977E-003     0.0000000000000000     
  -1.7999999999999995E-003     0.0000000000000000     
  -1.4999999999999979E-003     0.0000000000000000     
  -1.1999999999999997E-003     0.0000000000000000     
  -8.9999999999999976E-004     0.0000000000000000     
  -5.9999999999999810E-004     0.0000000000000000     
  -2.9999999999999992E-004     0.0000000000000000     
   0.0000000000000000          0.0000000000000000     
   3.0000000000000165E-004     0.0000000000000000     
   5.9999999999999984E-004     0.0000000000000000     
   9.0000000000000149E-004     0.0000000000000000     
   1.2000000000000031E-003     0.0000000000000000     
   1.5000000000000013E-003     0.0000000000000000     
   1.8000000000000030E-003     0.0000000000000000     
   2.1000000000000012E-003     0.0000000000000000     
   2.3999999999999994E-003     0.0000000000000000     
   2.7000000000000010E-003     0.0000000000000000     
   2.9999999999999992E-003     0.0000000000000000     
   3.3000000000000008E-003     0.0000000000000000     
   3.6000000000000025E-003     0.0000000000000000     
   3.9000000000000007E-003     0.0000000000000000     
   4.2000000000000023E-003     0.0000000000000000     
   4.5000000000000005E-003     0.0000000000000000     
   4.7999999999999987E-003     0.0000000000000000     
   5.1000000000000004E-003     0.0000000000000000     
   5.4000000000000020E-003     0.0000000000000000     
   5.7000000000000037E-003     0.0000000000000000     
   5.9999999999999984E-003     0.0000000000000000     
   6.3000000000000000E-003     0.0000000000000000     
   6.6000000000000017E-003     0.0000000000000000     
   6.9000000000000034E-003     0.0000000000000000     
   7.2000000000000015E-003     0.0000000000000000     
   7.5000000000000032E-003     0.0000000000000000     
   7.8000000000000014E-003     0.0000000000000000     
   8.0999999999999996E-003     0.0000000000000000     
   8.4000000000000012E-003     0.0000000000000000     
   8.7000000000000029E-003     0.0000000000000000     
   9.0000000000000011E-003     0.0000000000000000     
   9.2999999999999992E-003     0.0000000000000000     
   9.6000000000000009E-003     0.0000000000000000     
   9.8999999999999991E-003     0.0000000000000000     
   1.0200000000000001E-002     0.0000000000000000     
   1.0500000000000002E-002    -1.5051417840058937E-044
   1.0800000000000004E-002     5.6384034175045751E-043
   1.1099999999999999E-002     2.2215497263312911E-036
   1.1400000000000000E-002    -6.4733654114381738E-036
   1.1700000000000002E-002    -4.2716032987347324E-034
   1.2000000000000004E-002     1.1701344144134030E-033
   1.2300000000000002E-002     2.6006952231469403E-032
   1.2600000000000000E-002    -1.3568576725937910E-031
   1.2900000000000002E-002    -5.5056003458975375E-031
   1.3200000000000000E-002     6.8077912639393839E-030
   1.3500000000000002E-002    -9.9320638932608254E-030
   1.3800000000000003E-002    -1.4615606923132342E-028
   1.4100000000000001E-002     8.6513017171917530E-028
   1.4400000000000000E-002    -5.5677323564549079E-028
   1.4700000000000001E-002    -1.4573321756765273E-026
   1.4999999999999999E-002     7.4903030073212225E-026
   1.5300000000000001E-002    -1.0361282957133084E-025
   1.5600000000000003E-002    -6.0976270120737211E-025
   1.5899999999999997E-002     4.0517940374011389E-024
   1.6199999999999999E-002    -1.0836084138325514E-023
   1.6500000000000001E-002     5.5789729230270766E-024
   1.6800000000000002E-002     7.2664256780153888E-023
   1.7100000000000004E-002    -3.3318291301323104E-022
   1.7400000000000006E-002     8.1021049786484469E-022
   1.7700000000000000E-002    -1.3329055950496122E-021
   1.8000000000000002E-002     2.7344343660738721E-021
   1.8300000000000004E-002    -1.3341267513182233E-020
   1.8600000000000005E-002     6.4385921203637728E-020
   1.8900000000000000E-002    -2.1283991043353804E-019
   1.9200000000000002E-002     3.8421321026892708E-019
   1.9500000000000003E-002     5.5848533235336409E-019
   1.9799999999999998E-002    -8.7054490197140661E-018
   2.0100000000000000E-002     4.9285160601040782E-017
   2.0400000000000001E-002    -2.1468835046258132E-016
   2.0700000000000003E-002     8.1519836465392407E-016
   2.0999999999999998E-002    -2.7905884259089612E-015
   2.1299999999999999E-002     8.4993860493547009E-015
   2.1600000000000001E-002    -2.1444091463413969E-014
   2.1900000000000003E-002     3.4223399989200884E-014
   2.2200000000000004E-002     4.0139623097725715E-014
   2.2500000000000006E-002    -6.0862678639884778E-013
   2.2800000000000001E-002     2.8701750361004073E-012
   2.3100000000000002E-002    -8.5124813883332016E-012
   2.3400000000000004E-002     1.3723675144623829E-011
   2.3699999999999999E-002     1.1202023228293342E-011
   2.4000000000000000E-002    -1.4035115247518412E-010
   2.4300000000000002E-002     3.8092978338051097E-010
   2.4599999999999997E-002    -2.2931607518219737E-010
   2.4900000000000005E-002    -1.5626022135663525E-009
   2.5200000000000000E-002     4.4757830131333577E-009
   2.5499999999999995E-002    -4.5356735734858467E-010
   2.5800000000000003E-002    -1.8420616708903920E-008
   2.6099999999999998E-002     2.0165809791886363E-008
   2.6400000000000007E-002     5.3398596880141623E-008
   2.6700000000000002E-002    -8.8643396588877279E-008
   2.6999999999999996E-002    -1.8764714889848919E-007
   2.7300000000000005E-002     1.9867639000615826E-007
   2.7600000000000000E-002     6.2906886659893792E-007
   2.7900000000000008E-002    -1.4920397493476333E-007
   2.8200000000000003E-002    -1.6996360029167253E-006
   2.8499999999999998E-002    -7.7829627929835886E-007
   2.8800000000000006E-002     4.7265273555286458E-006
   2.9100000000000001E-002     1.1868205599907498E-005
   2.9400000000000003E-002     1.6132318711402211E-005
   2.9700000000000004E-002     1.9233274245438621E-005
   3.0000000000000006E-002     2.9985060282014950E-005
   3.0300000000000001E-002     5.5157906202225456E-005
   3.0600000000000002E-002     9.3061920457291586E-005
   3.0900000000000004E-002     1.4090066070926254E-004
   3.1199999999999999E-002     2.0690487595134699E-004
   3.1500000000000007E-002     3.1058343475988360E-004
   3.1800000000000002E-002     4.7086589294365435E-004
   3.2099999999999997E-002     7.0018278621391530E-004
   3.2400000000000005E-002     1.0152339779608323E-003
   3.2700000000000000E-002     1.4499655958892701E-003
   3.3000000000000002E-002     2.0527209694428117E-003
   3.3300000000000003E-002     2.8735293525078915E-003
   3.3599999999999998E-002     3.9608936742917778E-003
   3.3900000000000000E-002     5.3728476707532950E-003
   3.4200000000000001E-002     7.1836675797865889E-003
   3.4500000000000003E-002     9.4728026706555179E-003
   3.4799999999999998E-002     1.2308684662718110E-002
   3.5099999999999999E-002     1.5743563542513682E-002
   3.5400000000000001E-002     1.9814674514439551E-002
   3.5699999999999996E-002     2.4536722227589243E-002
   3.6000000000000004E-002     2.9882918114140310E-002
   3.6299999999999999E-002     3.5761327587163758E-002
   3.6600000000000008E-002     4.2008572439821756E-002
   3.6900000000000002E-002     4.8388698359697675E-002
   3.7199999999999997E-002     5.4588482926115532E-002
   3.7500000000000006E-002     6.0209606911371623E-002
   3.7800000000000000E-002     6.4774529064439812E-002
   3.8100000000000009E-002     6.7743153060801115E-002
   3.8400000000000004E-002     6.8554416647656921E-002
   3.8699999999999998E-002     6.6674180256006646E-002
   3.9000000000000007E-002     6.1612989178218676E-002
   3.9300000000000002E-002     5.2990934599819843E-002
   3.9600000000000003E-002     4.0601039418452382E-002
   3.9900000000000005E-002     2.4440474306508028E-002
   4.0200000000000000E-002     4.7868227964442990E-003
   4.0500000000000001E-002    -1.7805780926442083E-002
   4.0800000000000003E-002    -4.2531527660678366E-002
   4.1100000000000005E-002    -6.8309095044447030E-002
   4.1399999999999999E-002    -9.3842033589810830E-002
   4.1700000000000008E-002   -0.11771071337277025     
   4.2000000000000003E-002   -0.13845317400603752     
   4.2299999999999997E-002   -0.15470724075205947     
   4.2600000000000006E-002   -0.16530566098238678     
   4.2900000000000001E-002   -0.16936543662641701     
   4.3200000000000002E-002   -0.16640806165066183     
   4.3500000000000004E-002   -0.15641651899696704     
   4.3799999999999999E-002   -0.13986442724315334     
   4.4100000000000000E-002   -0.11772228419315940     
   4.4400000000000002E-002    -9.1349530296928563E-002
   4.4700000000000004E-002    -6.2433438982671299E-002
   4.4999999999999998E-002    -3.2925969279586569E-002
   4.5300000000000000E-002    -4.8292444883634867E-003
   4.5600000000000002E-002     1.9908610195025329E-002
   4.5899999999999996E-002     3.9525386720224209E-002
   4.6200000000000005E-002     5.2614498861319442E-002
   4.6500000000000000E-002     5.8136525474525982E-002
   4.6799999999999994E-002     5.5536506386019119E-002
   4.7100000000000003E-002     4.4781476565887920E-002
   4.7399999999999998E-002     2.6311579121574606E-002
   4.7700000000000006E-002     1.0668892505203106E-003
   4.8000000000000001E-002    -2.9607036756475389E-002
   4.8300000000000010E-002    -6.4070519789892671E-002
   4.8600000000000004E-002   -0.10037743090533446     
   4.8899999999999999E-002   -0.13645144413139562     
   4.9200000000000008E-002   -0.17020077170527945     
   4.9500000000000002E-002   -0.19955449493236405     
   4.9800000000000011E-002   -0.22261466781063946     
   5.0100000000000006E-002   -0.23775201228850906     
   5.0400000000000000E-002   -0.24364935512351976     
   5.0700000000000009E-002   -0.23945503537027918     
   5.1000000000000004E-002   -0.22480412361830640     
   5.1299999999999998E-002   -0.19981492020242239     
   5.1600000000000007E-002   -0.16514532631814061     
   5.1900000000000002E-002   -0.12196587290754532     
   5.2200000000000010E-002    -7.1857148514363381E-002
   5.2500000000000005E-002    -1.6779909430003993E-002
   5.2800000000000000E-002     4.1084357160489283E-002
   5.3099999999999994E-002     9.9501171830272656E-002
   5.3400000000000003E-002    0.15622326993718816     
   5.3699999999999998E-002    0.20919309912271736     
   5.4000000000000006E-002    0.25668293678952109     
   5.4300000000000001E-002    0.29729751268217186     
   5.4599999999999996E-002    0.33015001399771959     
   5.4900000000000004E-002    0.35477081572907487     
   5.5199999999999999E-002    0.37108562066939194     
   5.5499999999999994E-002    0.37949693899768766     
   5.5800000000000002E-002    0.38065294142239475     
   5.6099999999999997E-002    0.37537548658396752     
   5.6400000000000006E-002    0.36466730343332093     
   5.6700000000000000E-002    0.34947047317513369     
   5.6999999999999995E-002    0.33067653228583616     
   5.7300000000000004E-002    0.30911177997116235     
   5.7599999999999998E-002    0.28531992977888204     
   5.7900000000000007E-002    0.25974452968177852     
   5.8200000000000002E-002    0.23265776429443871     
   5.8499999999999996E-002    0.20409864484367687     
   5.8800000000000005E-002    0.17413094832544626     
   5.9100000000000000E-002    0.14273330648824689     
   5.9400000000000008E-002    0.10985726077649180     
   5.9700000000000003E-002     7.5622229146212361E-002
   6.0000000000000012E-002     4.0241685676761070E-002
   6.0300000000000006E-002     4.1565357647176809E-003
   6.0600000000000001E-002    -3.1901513416390387E-002
   6.0900000000000010E-002    -6.7078439473589185E-002
   6.1200000000000004E-002   -0.10019572673032989     
   6.1500000000000013E-002   -0.12986167371215285     
   6.1800000000000008E-002   -0.15469161233898632     
   6.2100000000000002E-002   -0.17315541684277674     
   6.2399999999999997E-002   -0.18388942236314604     
   6.2700000000000006E-002   -0.18587014270009516     
   6.3000000000000000E-002   -0.17837138472810116     
   6.3300000000000009E-002   -0.16122849071543460     
   6.3600000000000004E-002   -0.13494988842100658     
   6.3899999999999998E-002   -0.10063345082458532     
   6.4199999999999993E-002    -6.0071161914170230E-002
   6.4500000000000002E-002    -1.5667659474113679E-002
   6.4800000000000010E-002     2.9761897353915538E-002
   6.5100000000000005E-002     7.3103834466673207E-002
   6.5400000000000000E-002    0.11121989461677199     
   6.5700000000000008E-002    0.14118104782081711     
   6.5999999999999989E-002    0.16042024868901608     
   6.6299999999999998E-002    0.16702383055782050     
   6.6600000000000006E-002    0.15995643106028162     
   6.6900000000000001E-002    0.13897602564301689     
   6.7199999999999996E-002    0.10474610354692210     
   6.7500000000000004E-002     5.8892329452069590E-002
   6.7800000000000013E-002     3.6922565601203799E-003
   6.8099999999999994E-002    -5.7886783426674741E-002
   6.8400000000000002E-002   -0.12239469846278660     
   6.8700000000000011E-002   -0.18630885770546202     
   6.8999999999999992E-002   -0.24598733905059700     
   6.9300000000000000E-002   -0.29798774326038396     
   6.9600000000000009E-002   -0.33934192294937393     
   6.9900000000000004E-002   -0.36745296334967031     
   7.0199999999999999E-002   -0.38044921904275264     
   7.0500000000000007E-002   -0.37726376694670316     
   7.0800000000000016E-002   -0.35746843714589149     
   7.1099999999999997E-002   -0.32169676749810794     
   7.1400000000000005E-002   -0.27124042052363623     
   7.1700000000000000E-002   -0.20810196332824205     
   7.1999999999999995E-002   -0.13525665126481401     
   7.2300000000000003E-002    -5.6017250954069078E-002
   7.2600000000000012E-002     2.5916782145327166E-002
   7.2900000000000006E-002    0.10652426157625824     
   7.3200000000000001E-002    0.18195736847193508     
   7.3499999999999996E-002    0.24854986951769234     
   7.3800000000000004E-002    0.30306834676953742     
   7.4099999999999999E-002    0.34303254663302740     
   7.4400000000000008E-002    0.36669055447552368     
   7.4700000000000003E-002    0.37312943571489010     
   7.5000000000000011E-002    0.36226726377178853     
   7.5299999999999992E-002    0.33473364251589915     
   7.5600000000000001E-002    0.29181397591641062     
   7.5900000000000009E-002    0.23529568811869889     
   7.6200000000000004E-002    0.16719791631103451     
   7.6499999999999999E-002     8.9640767949041092E-002
   7.6800000000000007E-002     4.8371787258656698E-003
   7.7099999999999988E-002    -8.5170837608247493E-002
   7.7399999999999997E-002   -0.17848580016668239     
   7.7700000000000005E-002   -0.27315766232748612     
   7.8000000000000014E-002   -0.36739767374272758     
   7.8299999999999995E-002   -0.45935220437748719     
   7.8600000000000003E-002   -0.54684783038336848     
   7.8900000000000012E-002   -0.62764723178617954     
   7.9199999999999993E-002   -0.69919271361951085     
   7.9500000000000001E-002   -0.75863267044459493     
   7.9800000000000010E-002   -0.80315960431760880     
   8.0100000000000018E-002   -0.82980603838749267     
   8.0399999999999999E-002   -0.83599508510265941     
   8.0700000000000008E-002   -0.81972301521942537     
   8.1000000000000003E-002   -0.77942687578986358     
   8.1299999999999997E-002   -0.71481663074298751     
   8.1600000000000006E-002   -0.62668365108427360     
   8.1900000000000014E-002   -0.51673996111420306     
   8.2199999999999995E-002   -0.38822262963439313     
   8.2500000000000004E-002   -0.24521101352635385     
   8.2799999999999999E-002    -9.2492617510391853E-002
   8.3100000000000007E-002     6.4280123192564403E-002
   8.3400000000000002E-002    0.21948938885595276     
   8.3700000000000011E-002    0.36755970886904366     
   8.4000000000000005E-002    0.50326848702051785     
   8.4300000000000000E-002    0.62240851469185976     
   8.4599999999999995E-002    0.72142357026485526     
   8.4900000000000003E-002    0.79774505126603812     
   8.5199999999999998E-002    0.85000824989860568     
   8.5500000000000007E-002    0.87762838510405339     
   8.5800000000000001E-002    0.88092934861306105     
   8.6100000000000010E-002    0.86110442554262523     
   8.6399999999999991E-002    0.81972759578139609     
   8.6699999999999999E-002    0.75888007472599261     
   8.7000000000000008E-002    0.68122809738447598     
   8.7300000000000003E-002    0.58962291147389589     
   8.7599999999999997E-002    0.48747652525260249     
   8.7900000000000006E-002    0.37862637511180269     
   8.8200000000000014E-002    0.26718410854770702     
   8.8499999999999995E-002    0.15775568931971132     
   8.8800000000000004E-002     5.5241088570595835E-002
   8.9100000000000013E-002    -3.5531907564263630E-002
   8.9399999999999993E-002   -0.10979981883949223     
   8.9700000000000002E-002   -0.16342196649505408     
   9.0000000000000011E-002   -0.19329918101933433     
   9.0299999999999991E-002   -0.19747733157615080     
   9.0600000000000000E-002   -0.17588653179098160     
   9.0900000000000009E-002   -0.13033611049364846     
   9.1200000000000017E-002    -6.4391714390099233E-002
   9.1499999999999998E-002     1.6349331424157329E-002
   9.1800000000000007E-002    0.10463149320771017     
   9.2100000000000001E-002    0.19228150824786874     
   9.2399999999999996E-002    0.27053306250464060     
   9.2700000000000005E-002    0.33094409686869131     
   9.3000000000000013E-002    0.36614907174469891     
   9.3300000000000008E-002    0.37039342697019789     
   9.3600000000000003E-002    0.34039965229965086     
   9.3899999999999997E-002    0.27557173123665812     
   9.4200000000000006E-002    0.17830551733153960     
   9.4500000000000001E-002     5.4051583603096462E-002
   9.4800000000000009E-002    -8.9303775533077140E-002
   9.5100000000000004E-002   -0.24187352406163201     
   9.5399999999999999E-002   -0.39245918972275873     
   9.5699999999999993E-002   -0.52956939195441144     
   9.6000000000000002E-002   -0.64205456048910647     
   9.6300000000000011E-002   -0.72018057155536974     
   9.6600000000000005E-002   -0.75669020232051731     
   9.6900000000000000E-002   -0.74689858756911010     
   9.7200000000000009E-002   -0.68916963964913169     
   9.7499999999999989E-002   -0.58535384460971607     
   9.7799999999999998E-002   -0.44041284226099475     
   9.8100000000000007E-002   -0.26229610418737509     
   9.8400000000000015E-002    -6.1408217194113539E-002
   9.8699999999999996E-002    0.15022613311779862     
   9.9000000000000005E-002    0.35944139848794698     
   9.9300000000000013E-002    0.55265682475130073     
   9.9599999999999994E-002    0.71687631977569144     
   9.9900000000000003E-002    0.84035401374336982     
  0.10020000000000001         0.91333906389946296     
  0.10049999999999999         0.92874960423016406     
  0.10080000000000000         0.88228629221532007     
  0.10110000000000001         0.77320538114439408     
  0.10140000000000000         0.60457549694080426     
  0.10170000000000000         0.38271732462389046     
  0.10200000000000001         0.11737208833001922     
  0.10230000000000002        -0.17869221924327666     
  0.10260000000000000        -0.49075392912208882     
  0.10290000000000001        -0.80237449025937968     
  0.10320000000000000         -1.0966186586165680     
  0.10350000000000001         -1.3571845341837114     
  0.10380000000000000         -1.5690653363508300     
  0.10410000000000001         -1.7195748124653421     
  0.10440000000000001         -1.7989765436693983     
  0.10470000000000000         -1.8011325626756138     
  0.10500000000000000         -1.7238278414678512     
  0.10530000000000000         -1.5685220975940004     
  0.10560000000000000         -1.3403698213224160     
  0.10590000000000001         -1.0478723038019957     
  0.10620000000000000        -0.70215057962131089     
  0.10650000000000001        -0.31631165058072069     
  0.10679999999999999          9.5321636078698105E-002
  0.10710000000000000         0.51787044094130774     
  0.10740000000000001         0.93661643981340459     
  0.10770000000000000          1.3376103872147294     
  0.10800000000000000          1.7078464301573379     
  0.10830000000000001          2.0359962287937874     
  0.10859999999999999          2.3124361361714039     
  0.10890000000000000          2.5292606688839738     
  0.10920000000000001          2.6803465224660914     
  0.10950000000000001          2.7612588728838716     
  0.10979999999999999          2.7692792715369539     
  0.11009999999999999          2.7031741408287480     
  0.11040000000000001          2.5632121786710185     
  0.11070000000000001          2.3511166747482197     
  0.11100000000000000          2.0698919417840105     
  0.11130000000000000          1.7239974802967568     
  0.11160000000000002          1.3197069177954135     
  0.11190000000000001         0.86481934343199207     
  0.11220000000000001         0.36857231495193149     
  0.11250000000000000        -0.15798260218383309     
  0.11280000000000000        -0.70210601778629711     
  0.11309999999999999         -1.2496268977356537     
  0.11340000000000001         -1.7852493788992991     
  0.11369999999999998         -2.2928538619801464     
  0.11400000000000000         -2.7561176150612114     
  0.11430000000000000         -3.1588764545019870     
  0.11460000000000002         -3.4856202980094881     
  0.11489999999999999         -3.7225175300661157     
  0.11520000000000001         -3.8579245024030633     
  0.11550000000000001         -3.8825989186324774     
  0.11580000000000000         -3.7905152257839019     
  0.11609999999999999         -3.5794783038059914     
  0.11640000000000002         -3.2511241808033238     
  0.11670000000000001         -2.8112705083732572     
  0.11700000000000001         -2.2701514039174060     
  0.11730000000000000         -1.6423107584088539     
  0.11760000000000000        -0.94639171279742151     
  0.11789999999999999        -0.20453848060620319     
  0.11820000000000001         0.55796636114271758     
  0.11850000000000001          1.3136314361572141     
  0.11880000000000000          2.0340164025345748     
  0.11910000000000000          2.6904120864748631     
  0.11940000000000002          3.2557743103214416     
  0.11970000000000001          3.7061706165751751     
  0.12000000000000001          4.0211945201116714     
  0.12030000000000000          4.1859522503548297     
  0.12060000000000000          4.1920757918483744     
  0.12089999999999999          4.0376411066062277     
  0.12119999999999999          3.7277572665079601     
  0.12150000000000001          3.2746198590982090     
  0.12180000000000001          2.6967430412469002     
  0.12210000000000000          2.0178876091798168     
  0.12239999999999999          1.2658907208544938     
  0.12270000000000002         0.47175027916441109     
  0.12300000000000001        -0.33191510307628519     
  0.12330000000000001         -1.1127013302726789     
  0.12360000000000000         -1.8392407125435282     
  0.12390000000000000         -2.4824092875789376     
  0.12419999999999999         -3.0165663290551228     
  0.12450000000000001         -3.4204066335199088     
  0.12480000000000001         -3.6774573846246246     
  0.12509999999999999         -3.7766867165444964     
  0.12540000000000001         -3.7135131782670245     
  0.12570000000000003         -3.4895930640983988     
  0.12600000000000000         -3.1130566864991271     
  0.12630000000000002         -2.5989933194307890     
  0.12659999999999999         -1.9687389227704490     
  0.12690000000000001         -1.2494390018804109     
  0.12719999999999998        -0.47337465791106720     
  0.12750000000000000         0.32372678676756583     
  0.12780000000000002          1.1041550825411286     
  0.12809999999999999          1.8302130928737739     
  0.12840000000000001          2.4665339249343909     
  0.12869999999999998          2.9817235738800876     
  0.12900000000000000          3.3508918554310450     
  0.12930000000000003          3.5572858114848738     
  0.12959999999999999          3.5929451226918028     
  0.12990000000000002          3.4597456667170801     
  0.13019999999999998          3.1689856235123437     
  0.13050000000000000          2.7403245125249951     
  0.13080000000000003          2.2007637149964574     
  0.13109999999999999          1.5821139916860147     
  0.13140000000000002         0.91898257435688779     
  0.13169999999999998         0.24660933845652469     
  0.13200000000000001        -0.40204711912748958     
  0.13229999999999997        -0.99738775774827071     
  0.13260000000000000         -1.5149685041379648     
  0.13290000000000002         -1.9371144655075430     
  0.13319999999999999         -2.2526545397284172     
  0.13350000000000001         -2.4568645822546209     
  0.13380000000000003         -2.5511247986114478     
  0.13410000000000000         -2.5421731365827838     
  0.13440000000000002         -2.4411373067362057     
  0.13469999999999999         -2.2621607761284026     
  0.13500000000000001         -2.0216078806926481     
  0.13529999999999998         -1.7369741331620159     
  0.13560000000000000         -1.4257210714463582     
  0.13590000000000002         -1.1048800069988034     
  0.13619999999999999        -0.79003755383583818     
  0.13650000000000001        -0.49464031048507379     
  0.13680000000000003        -0.22982860790891160     
  0.13710000000000000         -3.2939405902109955E-003
  0.13740000000000002         0.18061424425723754     
  0.13769999999999999         0.32098278145660319     
  0.13800000000000001         0.42108789269426422     
  0.13829999999999998         0.48749760750635979     
  0.13860000000000000         0.52961887970555976     
  0.13890000000000002         0.55911532459475743     
  0.13919999999999999         0.58865361402720573     
  0.13950000000000001         0.63064039444063180     
  0.13979999999999998         0.69584556867752045     
  0.14010000000000000         0.79195527393914256     
  0.14040000000000002         0.92268782582957687     
  0.14069999999999999          1.0868904101105685     
  0.14100000000000001          1.2778095812753791     
  0.14130000000000004          1.4836539902157131     
  0.14160000000000000          1.6883134547688321     
  0.14189999999999997          1.8719293759576860     
  0.14219999999999999          2.0129099711980625     
  0.14250000000000002          2.0901418451098666     
  0.14279999999999998          2.0841644392714294     
  0.14310000000000000          1.9796672285207004     
  0.14339999999999997          1.7673070664676107     
  0.14369999999999999          1.4442585746608212     
  0.14400000000000002          1.0161591615565533     
  0.14429999999999998         0.49703111898582752     
  0.14460000000000001         -9.1818970313521014E-002
  0.14490000000000003        -0.72207850431020193     
  0.14520000000000000         -1.3602658024940735     
  0.14550000000000002         -1.9697361747378781     
  0.14579999999999999         -2.5127239986941432     
  0.14610000000000001         -2.9540451296320769     
  0.14640000000000003         -3.2624202425159790     
  0.14670000000000000         -3.4127798627118922     
  0.14699999999999996         -3.3902259294609429     
  0.14729999999999999         -3.1894445704289409     
  0.14760000000000001         -2.8158745911131331     
  0.14789999999999998         -2.2872331155772092     
  0.14820000000000000         -1.6311806336417720     