  -1.4999999999999999E-002     0.0000000000000000     
  -1.4700000000000000E-002     0.0000000000000000     
  -1.4400000000000000E-002     0.0000000000000000     
  -1.4100000000000000E-002     0.0000000000000000     
  -1.3800000000000000E-002     0.0000000000000000     
  -1.3500000000000000E-002     0.0000000000000000     
  -1.3200000000000000E-002     0.0000000000000000     
  -1.2899999999999998E-002     0.0000000000000000     
  -1.2600000000000000E-002     0.0000000000000000     
  -1.2299999999999998E-002     0.0000000000000000     
  -1.2000000000000000E-002     0.0000000000000000     
  -1.1699999999999999E-002     0.0000000000000000     
  -1.1399999999999999E-002     1.9732521237468980E-058
  -1.1099999999999999E-002     2.2444663332057039E-045
  -1.0799999999999999E-002    -3.0957462658256057E-036
  -1.0499999999999999E-002    -2.7366232505283278E-035
  -1.0199999999999999E-002     9.3161991945186579E-034
  -9.8999999999999991E-003    -2.8421526177455588E-033
  -9.5999999999999992E-003    -8.2610952995596155E-033
  -9.2999999999999992E-003    -6.4726593280365511E-031
  -8.9999999999999993E-003     1.6343963031975236E-029
  -8.6999999999999994E-003    -1.8946510028726379E-028
  -8.3999999999999995E-003     1.4045318308695129E-027
  -8.0999999999999996E-003    -7.4013431181586855E-027
  -7.7999999999999988E-003     2.9212656352298245E-026
  -7.4999999999999997E-003    -8.9285105800795488E-026
  -7.1999999999999998E-003     2.1745786696969935E-025
  -6.8999999999999981E-003    -4.4754017562625900E-025
  -6.5999999999999982E-003     9.8628724353037906E-025
  -6.3000000000000000E-003    -3.6321304747390468E-024
  -6.0000000000000001E-003     1.9149499592794742E-023
  -5.6999999999999985E-003    -9.5160448615734412E-023
  -5.3999999999999986E-003     3.9341933027892145E-022
  -5.1000000000000004E-003    -1.3326707500493800E-021
  -4.7999999999999987E-003     3.6704749970737059E-021
  -4.5000000000000005E-003    -7.9266096741405332E-021
  -4.1999999999999989E-003     1.1548792370634678E-020
  -3.8999999999999990E-003    -8.2622257342562913E-022
  -3.5999999999999990E-003    -6.6048248077690360E-020
  -3.2999999999999991E-003     2.8507904719861139E-019
  -2.9999999999999992E-003    -8.2956858681240935E-019
  -2.6999999999999993E-003     1.9305916329604882E-018
  -2.3999999999999994E-003    -3.7308561186153727E-018
  -2.0999999999999977E-003     5.8748191224063577E-018
  -1.7999999999999995E-003    -6.6767671003050266E-018
  -1.4999999999999979E-003     1.8900947416405480E-018
  -1.1999999999999997E-003     1.6062201407241226E-017
  -8.9999999999999976E-004    -5.5566555043046710E-017
  -5.9999999999999810E-004     1.1511828821029450E-016
  -2.9999999999999992E-004    -1.6248517733206296E-016
   0.0000000000000000          1.1788786067922563E-016
   3.0000000000000165E-004     1.1649794330200749E-016
   5.9999999999999984E-004    -5.3072087677033138E-016
   9.0000000000000149E-004     8.0976051613191065E-016
   1.2000000000000031E-003    -2.6478010733251819E-016
   1.5000000000000013E-003    -1.7749470291980897E-015
   1.8000000000000030E-003     4.9797919097292070E-015
   2.1000000000000012E-003    -6.9889472662984207E-015
   2.3999999999999994E-003     3.5532679688467735E-015
   2.7000000000000010E-003     9.4017301883460417E-015
   2.9999999999999992E-003    -3.4048586543141083E-014
   3.3000000000000008E-003     7.6779491821769392E-014
   3.6000000000000025E-003    -1.6929156335225450E-013
   3.9000000000000007E-003     3.8246168205331241E-013
   4.2000000000000023E-003    -7.3457227731010287E-013
   4.5000000000000005E-003     8.3743826927957212E-013
   4.7999999999999987E-003     7.9166739667925103E-013
   5.1000000000000004E-003    -7.9059175704886245E-012
   5.4000000000000020E-003     2.9393448839487924E-011
   5.7000000000000037E-003    -8.3186609083744489E-011
   5.9999999999999984E-003     1.7496277869014971E-010
   6.3000000000000000E-003    -1.5639330886017606E-010
   6.6000000000000017E-003    -6.0091304855536048E-010
   6.9000000000000034E-003     3.0607428489475157E-009
   7.2000000000000015E-003    -5.5893162415912644E-009
   7.5000000000000032E-003    -2.2285974497987498E-009
   7.8000000000000014E-003     3.3095108256702944E-008
   8.0999999999999996E-003    -4.8435823012557512E-008
   8.4000000000000012E-003    -7.8074632892928519E-008
   8.7000000000000029E-003     2.7962040639054217E-007
   9.0000000000000011E-003     1.1052292043549932E-007
   9.2999999999999992E-003    -1.1150135953368387E-006
   9.6000000000000009E-003    -4.8234340221337207E-007
   9.8999999999999991E-003     3.3204628642540025E-006
   1.0200000000000001E-002     2.8674712309030448E-006
   1.0500000000000002E-002    -7.0720729909217667E-006
   1.0800000000000004E-002    -1.1309148446408977E-005
   1.1099999999999999E-002     1.1242795738311886E-005
   1.1400000000000000E-002     5.0187973569387393E-005
   1.1700000000000002E-002     6.9793943573027357E-005
   1.2000000000000004E-002     6.5708090280279971E-005
   1.2300000000000002E-002     8.7024844551997576E-005
   1.2600000000000000E-002     1.7946331923320778E-004
   1.2900000000000002E-002     3.2901421442856570E-004
   1.3200000000000000E-002     4.9592669562192459E-004
   1.3500000000000002E-002     6.9885689490675512E-004
   1.3800000000000003E-002     1.0294984496822641E-003
   1.4100000000000001E-002     1.5729072190637165E-003
   1.4400000000000000E-002     2.3526990821021053E-003
   1.4700000000000001E-002     3.3953190367513675E-003
   1.4999999999999999E-002     4.8195731329383398E-003
   1.5300000000000001E-002     6.8062376470025814E-003
   1.5600000000000003E-002     9.5014072975355048E-003
   1.5899999999999997E-002     1.3018932986558474E-002
   1.6199999999999999E-002     1.7529426492258481E-002
   1.6500000000000001E-002     2.3269142034916208E-002
   1.6800000000000002E-002     3.0441725416063870E-002
   1.7100000000000004E-002     3.9158970698429718E-002
   1.7400000000000006E-002     4.9477135306465157E-002
   1.7700000000000000E-002     6.1408507084555725E-002
   1.8000000000000002E-002     7.4832930479916598E-002
   1.8300000000000004E-002     8.9396409684920783E-002
   1.8600000000000005E-002    0.10449139069859964     
   1.8900000000000000E-002    0.11928330407187727     
   1.9200000000000002E-002    0.13268195839583044     
   1.9500000000000003E-002    0.14326909826637338     
   1.9799999999999998E-002    0.14930369420531756     
   2.0100000000000000E-002    0.14885579241003905     
   2.0400000000000001E-002    0.13993920217440273     
   2.0700000000000003E-002    0.12058967480032062     
   2.0999999999999998E-002     8.9004192198830837E-002
   2.1299999999999999E-002     4.3810160152650088E-002
   2.1600000000000001E-002    -1.5691155124104701E-002
   2.1900000000000003E-002    -8.9374721352910955E-002
   2.2200000000000004E-002   -0.17612082389086170     
   2.2500000000000006E-002   -0.27364156776913423     
   2.2800000000000001E-002   -0.37844987213772924     
   2.3100000000000002E-002   -0.48600436925420398     
   2.3400000000000004E-002   -0.59089975197678291     
   2.3699999999999999E-002   -0.68704406774674520     
   2.4000000000000000E-002   -0.76801184631607622     
   2.4300000000000002E-002   -0.82763156323854714     
   2.4599999999999997E-002   -0.86057098735254989     
   2.4900000000000005E-002   -0.86272955809409779     
   2.5200000000000000E-002   -0.83152544133426176     
   2.5499999999999995E-002   -0.76615951829652307     
   2.5800000000000003E-002   -0.66797891435987378     
   2.6099999999999998E-002   -0.54050906630907880     
   2.6400000000000007E-002   -0.38901008475082949     
   2.6700000000000002E-002   -0.22009194644701371     
   2.6999999999999996E-002    -4.1379374715022690E-002
   2.7300000000000005E-002    0.13900629630778558     
   2.7600000000000000E-002    0.31319587531794130     
   2.7900000000000008E-002    0.47414775196504083     
   2.8200000000000003E-002    0.61601374262173481     
   2.8499999999999998E-002    0.73440930048849540     
   2.8800000000000006E-002    0.82666488327675525     
   2.9100000000000001E-002    0.89186639490096142     
   2.9400000000000003E-002    0.93061369713523268     
   2.9700000000000004E-002    0.94482230494493280     
   3.0000000000000006E-002    0.93736605659644978     
   3.0300000000000001E-002    0.91162501240662053     
   3.0600000000000002E-002    0.87117378208034502     
   3.0900000000000004E-002    0.81939546540753316     
   3.1199999999999999E-002    0.75918660930554693     
   3.1500000000000007E-002    0.69272284240838389     
   3.1800000000000002E-002    0.62153940113705819     
   3.2099999999999997E-002    0.54638927057058551     
   3.2400000000000005E-002    0.46712972696187682     
   3.2700000000000000E-002    0.38322024538421490     
   3.3000000000000002E-002    0.29404308336395024     
   3.3300000000000003E-002    0.19909775585926562     
   3.3599999999999998E-002     9.8143758420694963E-002
   3.3900000000000000E-002    -8.2735278883765643E-003
   3.4200000000000001E-002   -0.11814048051549543     
   3.4500000000000003E-002   -0.22799387330814377     
   3.4799999999999998E-002   -0.33295194184293647     
   3.5099999999999999E-002   -0.42658117634079346     
   3.5400000000000001E-002   -0.50128906240819160     
   3.5699999999999996E-002   -0.54865304649527591     
   3.6000000000000004E-002   -0.56010141470197394     
   3.6299999999999999E-002   -0.52795798352733658     
   3.6600000000000008E-002   -0.44619988335872435     
   3.6900000000000002E-002   -0.31136566496178364     
   3.7199999999999997E-002   -0.12341973075508086     
   3.7500000000000006E-002    0.11351667387244156     
   3.7800000000000000E-002    0.39097497924186880     
   3.8100000000000009E-002    0.69651337042685368     
   3.8400000000000004E-002     1.0138193518035803     
   3.8699999999999998E-002     1.3233225423524975     
   3.9000000000000007E-002     1.6038097085879677     
   3.9300000000000002E-002     1.8337832438440993     
   3.9600000000000003E-002     1.9925544959564843     
   3.9900000000000005E-002     2.0617237505510930     
   4.0200000000000000E-002     2.0269482241325716     
   4.0500000000000001E-002     1.8791996028041718     
   4.0800000000000003E-002     1.6154289914289377     
   4.1100000000000005E-002     1.2389792582489081     
   4.1399999999999999E-002    0.75998712788336031     
   4.1700000000000008E-002    0.19558656743985972     
   4.2000000000000003E-002   -0.43074273710212130     
   4.2299999999999997E-002    -1.0905455727052014     
   4.2600000000000006E-002    -1.7519060812611886     
   4.2900000000000001E-002    -2.3804594734776607     
   4.3200000000000002E-002    -2.9407977296041277     
   4.3500000000000004E-002    -3.3992377885627540     
   4.3799999999999999E-002    -3.7262877498701141     
   4.4100000000000000E-002    -3.8977741161527408     
   4.4400000000000002E-002    -3.8962966230549161     
   4.4700000000000004E-002    -3.7130397438022755     
   4.4999999999999998E-002    -3.3490870910621355     
   4.5300000000000000E-002    -2.8157199169117182     
   4.5600000000000002E-002    -2.1336865979756943     
   4.5899999999999996E-002    -1.3326477164144477     
   4.6200000000000005E-002   -0.45056672210180843     
   4.6500000000000000E-002    0.46824948084401585     
   4.6799999999999994E-002     1.3755227691927350     
   4.7100000000000003E-002     2.2211704888236796     
   4.7399999999999998E-002     2.9554985478013247     
   4.7700000000000006E-002     3.5315827112992291     
   4.8000000000000001E-002     3.9081605894949814     
   4.8300000000000010E-002     4.0520040216944384     
   4.8600000000000004E-002     3.9390789823273167     
   4.8899999999999999E-002     3.5566915870080842     
   4.9200000000000008E-002     2.9054779345569548     
   4.9500000000000002E-002     1.9997828348970046     
   4.9800000000000011E-002    0.86762559595854893     
   5.0100000000000006E-002   -0.44950900945566619     
   5.0400000000000000E-002    -1.8973624550396551     
   5.0700000000000009E-002    -3.4110644407000499     
   5.1000000000000004E-002    -4.9186684020558928     
   5.1299999999999998E-002    -6.3440687403960618     
   5.1600000000000007E-002    -7.6104858465993477     
   5.1900000000000002E-002    -8.6450876074291472     
   5.2200000000000010E-002    -9.3833822684243824     
   5.2500000000000005E-002    -9.7730297937077371     
   5.2800000000000000E-002    -9.7767806137549780     
   5.3099999999999994E-002    -9.3748593347619806     
   5.3400000000000003E-002    -8.5665697729889310     
   5.3699999999999998E-002    -7.3705824879080239     
   5.4000000000000006E-002    -5.8237951413393461     
   5.4300000000000001E-002    -3.9790622754514473     
   5.4599999999999996E-002    -1.9026279021607539     
   5.4900000000000004E-002    0.32948653885565871     
   5.5199999999999999E-002     2.6353527870100395     
   5.5499999999999994E-002     4.9313743670753292     
   5.5800000000000002E-002     7.1362466031341896     
   5.6099999999999997E-002     9.1745238378019600     
   5.6400000000000006E-002     10.979682515352263     
   5.6700000000000000E-002     12.496588337451824     
   5.6999999999999995E-002     13.682961106735659     
   5.7300000000000004E-002     14.510887731325420     
   5.7599999999999998E-002     14.966433125269013     
   5.7900000000000007E-002     15.048534899342576     
   5.8200000000000002E-002     14.768326252252344     
   5.8499999999999996E-002     14.147227667911480     
   5.8800000000000005E-002     13.214156463626633     
   5.9100000000000000E-002     12.003050097571711     
   5.9400000000000008E-002     10.550817676382069     
   5.9700000000000003E-002     8.8951102644492224     
   6.0000000000000012E-002     7.0723062465193323     
   6.0300000000000006E-002     5.1167092877038822     
   6.0600000000000001E-002     3.0609834479626059     
   6.0900000000000010E-002    0.93668211366248688     
   6.1200000000000004E-002    -1.2248908346777576     
   6.1500000000000013E-002    -3.3901086043378186     
   6.1800000000000008E-002    -5.5213175129138241     
   6.2100000000000002E-002    -7.5751996484761284     
   6.2399999999999997E-002    -9.5011253965243689     
   6.2700000000000006E-002    -11.242549977624071     
   6.3000000000000000E-002    -12.737569915722240     
   6.3300000000000009E-002    -13.921364920913911     
   6.3600000000000004E-002    -14.731328180908779     
   6.3899999999999998E-002    -15.112286774395514     
   6.4199999999999993E-002    -15.021634345918102     
   6.4500000000000002E-002    -14.435286802197361     
   6.4800000000000010E-002    -13.352748230507261     
   6.5100000000000005E-002    -11.800472600802973     
   6.5400000000000000E-002    -9.8326572223857749     
   6.5700000000000008E-002    -7.5303329389820233     
   6.5999999999999989E-002    -4.9985331471838510     
   6.6299999999999998E-002    -2.3598190626386137     
   6.6600000000000006E-002    0.25389523589795882     
   6.6900000000000001E-002     2.7095784395274181     
   6.7199999999999996E-002     4.8829748307983145     
   6.7500000000000004E-002     6.6671655371557206     
   6.7800000000000013E-002     7.9798987696533592     
   6.8099999999999994E-002     8.7699440957263146     
   6.8400000000000002E-002     9.0203103749666393     
   6.8700000000000011E-002     8.7476721234161019     
   6.8999999999999992E-002     8.0003033783771542     
   6.9300000000000000E-002     6.8544103444041991     
   6.9600000000000009E-002     5.4076421164364410     
   6.9900000000000004E-002     3.7701743011039630     
   7.0199999999999999E-002     2.0570212100792840     
   7.0500000000000007E-002    0.38106897214793262     
   7.0800000000000016E-002    -1.1554147317273706     
   7.1099999999999997E-002    -2.4677137616566132     
   7.1400000000000005E-002    -3.4918715590897298     
   7.1700000000000000E-002    -4.1872694646344844     
   7.1999999999999995E-002    -4.5391629560597702     
   7.2300000000000003E-002    -4.5570172477551703     
   7.2600000000000012E-002    -4.2713284553525188     
   7.2900000000000006E-002    -3.7310062375390949     
   7.3200000000000001E-002    -2.9987072296952504     
   7.3499999999999996E-002    -2.1448710030557749     
   7.3800000000000004E-002    -1.2419642830434119     
   7.4099999999999999E-002   -0.36010152883975310     
   7.4400000000000008E-002    0.43762911327880483     
   7.4700000000000003E-002     1.1004823658440477     
   7.5000000000000011E-002     1.5922194086343362     
   7.5299999999999992E-002     1.8921062856840873     
   7.5600000000000001E-002     1.9964732533269174     
   7.5900000000000009E-002     1.9175389000378560     
   7.6200000000000004E-002     1.6804786706901920     
   7.6499999999999999E-002     1.3213524144477007     
   7.6800000000000007E-002    0.88365995235886363     
   7.7099999999999988E-002    0.41362384689169890     
   7.7399999999999997E-002    -4.3843403181294628E-002
   7.7700000000000005E-002   -0.44842368242494685     
   7.8000000000000014E-002   -0.76719560072233084     
   7.8299999999999995E-002   -0.97710233467158902     
   7.8600000000000003E-002    -1.0659945451478772     
   7.8900000000000012E-002    -1.0326356678906157     
   7.9199999999999993E-002   -0.88628104612667402     
   7.9500000000000001E-002   -0.64456542318028665     
   7.9800000000000010E-002   -0.33034324100229140     
   8.0100000000000018E-002     2.9852431193356031E-002
   8.0399999999999999E-002    0.40829588508859654     
   8.0700000000000008E-002    0.77957588503275799     
   8.1000000000000003E-002     1.1226531571734142     
   8.1299999999999997E-002     1.4219229930908377     
   8.1600000000000006E-002     1.6680901033947559     
   8.1900000000000014E-002     1.8587006791714591     
   8.2199999999999995E-002     1.9976420116120575     
   8.2500000000000004E-002     2.0940848679649573     
   8.2799999999999999E-002     2.1608938358939143     
   8.3100000000000007E-002     2.2123331406931848     
   8.3400000000000002E-002     2.2625481573958366     
   8.3700000000000011E-002     2.3239354620572890     
   8.4000000000000005E-002     2.4053613675519370     
   8.4300000000000000E-002     2.5109464649381388     
   8.4599999999999995E-002     2.6394071109791586     
   8.4900000000000003E-002     2.7845747033811623     
   8.5199999999999998E-002     2.9362556563303186     
   8.5500000000000007E-002     3.0817963802677859     
   8.5800000000000001E-002     3.2076330025315993     
   8.6100000000000010E-002     3.3007829141673581     
   8.6399999999999991E-002     3.3519282386045455     
   8.6699999999999999E-002     3.3566081634993794     
   8.7000000000000008E-002     3.3144769816665134     
   8.7300000000000003E-002     3.2294855281498087     
   8.7599999999999997E-002     3.1090121448013486     
   8.7900000000000006E-002     2.9616081936117742     
   8.8200000000000014E-002     2.7936051207214176     
   8.8499999999999995E-002     2.6072261809718476     
   8.8800000000000004E-002     2.3988760225483587     
   8.9100000000000013E-002     2.1575239695871002     
   8.9399999999999993E-002     1.8655319304930704     
   8.9700000000000002E-002     1.5010162924095583     
   9.0000000000000011E-002     1.0408796522830490     
   9.0299999999999991E-002    0.46481702481430942     
   9.0600000000000000E-002   -0.23999085640248166     
   9.0900000000000009E-002    -1.0748130671052818     
   9.1200000000000017E-002    -2.0272953821277122     
   9.1499999999999998E-002    -3.0709246677894941     
   9.1800000000000007E-002    -4.1666245874170391     
   9.2100000000000001E-002    -5.2675511238605228     
   9.2399999999999996E-002    -6.3251612878111985     
   9.2700000000000005E-002    -7.2965154037862030     
   9.3000000000000013E-002    -8.1515269449804340     
   9.3300000000000008E-002    -8.8781142838462515     
   9.3600000000000003E-002    -9.4852681868892983     
   9.3899999999999997E-002    -10.003103790918114     
   9.4200000000000006E-002    -10.479202784971726     
   9.4500000000000001E-002    -10.970206769367920     
   9.4800000000000009E-002    -11.530828063776221     
   9.5100000000000004E-002    -12.201758067165073     
   9.5399999999999999E-002    -12.997342920919689     
   9.5699999999999993E-002    -13.894739273952462     
   9.6000000000000002E-002    -14.827041148826378     
   9.6300000000000011E-002    -15.682119318435463     
   9.6600000000000005E-002    -16.305874287965075     
   9.6900000000000000E-002    -16.513291289119696     
   9.7200000000000009E-002    -16.104935987800260     
   9.7499999999999989E-002    -14.887544317321293     
   9.7799999999999998E-002    -12.697724152051748     
   9.8100000000000007E-002    -9.4247509906816056     
   9.8400000000000015E-002    -5.0320904851391592     
   9.8699999999999996E-002    0.42602231295007964     
   9.9000000000000005E-002     6.7971776375254835     
   9.9300000000000013E-002     13.831647465563922     
   9.9599999999999994E-002     21.191025746103442     
   9.9900000000000003E-002     28.467112137669208     
  0.10020000000000001          35.210758367545075     
  0.10049999999999999          40.966104193624425     
  0.10080000000000000          45.304781894811619     
  0.10110000000000001          47.862438191907259     
  0.10140000000000000          48.373642552349892     
  0.10170000000000000          46.694821156774879     
  0.10200000000000001          42.820431220768391     
  0.10230000000000002          36.889400208181776     
  0.10260000000000000          29.177048209259663     
  0.10290000000000001          20.075690201411216     
  0.10320000000000000          10.068139157774144     
  0.10350000000000001        -0.30727163501767185     
  0.10380000000000000         -10.495334567951327     
  0.10410000000000001         -19.964535594880910     
  0.10440000000000001         -28.242069824042879     
  0.10470000000000000         -34.942796745906961     
  0.10500000000000000         -39.792391876225793     
  0.10530000000000000         -42.639762645481113     
  0.10560000000000000         -43.458114607132551     
  0.10590000000000001         -42.338886068515265     
  0.10620000000000000         -39.477149241217596     
  0.10650000000000001         -35.150202155360667     
  0.10679999999999999         -29.693646687380269     
  0.10710000000000000         -23.474597934944573     
  0.10740000000000001         -16.867310203616249     
  0.10770000000000000         -10.230038954992988     
  0.10800000000000000         -3.8845439566952327     
  0.10830000000000001          1.8966706439494692     
  0.10859999999999999          6.9013366899915605     
  0.10890000000000000          10.982147948980121     
  0.10920000000000001          14.057594578170288     
  0.10950000000000001          16.109407038091714     
  0.10979999999999999          17.174512562837155     
  0.11009999999999999          17.337438188894133     
  0.11040000000000001          16.720092132944892     
  0.11070000000000001          15.468900629294410     
  0.11100000000000000          13.744428136653598     
  0.11130000000000000          11.709906541068264     
  0.11160000000000002          9.5207323377825119     
  0.11190000000000001          7.3167580806059158     
  0.11220000000000001          5.2151393457423794     
  0.11250000000000000          3.3071930897262747     
  0.11280000000000000          1.6557664612430101     
  0.11309999999999999         0.29649767801933619     
  0.11340000000000001        -0.75883657486709521     
  0.11369999999999998         -1.5196819703210125     
  0.11400000000000000         -2.0119512795830539     
  0.11430000000000000         -2.2714856209885794     
  0.11460000000000002         -2.3394932734954645     
  0.11489999999999999         -2.2593914641941208     
  0.11520000000000001         -2.0722954875813024     
  0.11550000000000001         -1.8147283369730220     
  0.11580000000000000         -1.5184117303225879     
  0.11609999999999999         -1.2097729422457404     
  0.11640000000000002        -0.90974453177482451     
  0.11670000000000001        -0.63329561124124589     
  0.11700000000000001        -0.39187668158919592     
  0.11730000000000000        -0.19380032673281131     
  0.11760000000000000         -4.2548992356297763E-002
  0.11789999999999999          6.0563308027138225E-002
  0.11820000000000001         0.11703268934065834     
  0.11850000000000001         0.13158941513064815     
  0.11880000000000000         0.11023677779332848     
  0.11910000000000000          6.1427444941977161E-002
  0.11940000000000002         -5.7372803352594287E-003
  0.11970000000000001         -8.2510329170194241E-002
  0.12000000000000001        -0.16056027658997671     
  0.12030000000000000        -0.23379446390431674     
  0.12060000000000000        -0.29720070545967781     
  0.12089999999999999        -0.34807488698159728     
  0.12119999999999999        -0.38665602384491954     
  0.12150000000000001        -0.41380087391609460     
  0.12180000000000001        -0.43125829792459763     
  0.12210000000000000        -0.44195253112272936     
  0.12239999999999999        -0.44762569890544684     
  0.12270000000000002        -0.44947835879966397     
  0.12300000000000001        -0.44819644134732284     
  0.12330000000000001        -0.44317814804708161     
  0.12360000000000000        -0.43389675260332988     
  0.12390000000000000        -0.41915494573340900     
  0.12419999999999999        -0.39776686248355619     
  0.12450000000000001        -0.37024069183550284     
  0.12480000000000001        -0.33715957536008795     
  0.12509999999999999        -0.29974081864250568     
  0.12540000000000001        -0.26043202715412817     
  0.12570000000000003        -0.22093521176133568     
  0.12600000000000000        -0.18403437213367013     
  0.12630000000000002        -0.15172844009161718     
  0.12659999999999999        -0.12429401871084482     
  0.12690000000000001        -0.10270962322675736     
  0.12719999999999998         -8.6056395985457307E-002
  0.12750000000000000         -7.2467169046165625E-002
  0.12780000000000002         -6.0606634405337020E-002
  0.12809999999999999         -4.8667657157822571E-002
  0.12840000000000001         -3.5235375382117205E-002
  0.12869999999999998         -1.8704724673224524E-002
  0.12900000000000000          1.4515056581030287E-003
  0.12930000000000003          2.4147837333759657E-002
  0.12959999999999999          4.8366714145001433E-002
  0.12990000000000002          7.2977842592376219E-002
  0.13019999999999998          9.5386926090539004E-002
  0.13050000000000000         0.11345325961969492     
  0.13080000000000003         0.12600676664549881     
  0.13109999999999999         0.13128814074490550     
  0.13140000000000002         0.12888091646878444     
  0.13169999999999998         0.11996349250625575     
  0.13200000000000001         0.10613728938318248     
  0.13229999999999997          8.9847386703056545E-002
  0.13260000000000000          7.4052216805672727E-002
  0.13290000000000002          6.2655952318910677E-002
  0.13319999999999999          5.9104703844580900E-002
  0.13350000000000001          6.4936651707455648E-002
  0.13380000000000003          8.1772484356884473E-002
  0.13410000000000000         0.10943583967066862     
  0.13440000000000002         0.14536347922021420     
  0.13469999999999999         0.18598059872989769     
  0.13500000000000001         0.22611647172484614     
  0.13529999999999998         0.26027447545330085     
  0.13560000000000000         0.28301866439382695     
  0.13590000000000002         0.28979926523501104     
  0.13619999999999999         0.27856796331045980     
  0.13650000000000001         0.24865833307571053     
  0.13680000000000003         0.20260989003363447     
  0.13710000000000000         0.14585877266325734     
  0.13740000000000002          8.5606453314735348E-002
  0.13769999999999999          3.0414286816238784E-002
  0.13800000000000001         -1.2291283611562098E-002
  0.13829999999999998         -3.5801163961581062E-002
  0.13860000000000000         -3.5629845361249066E-002
  0.13890000000000002         -1.1632055570163082E-002
  0.13919999999999999          3.2608891263072509E-002
  0.13950000000000001          8.9876486180868062E-002
  0.13979999999999998         0.15012226811712670     
  0.14010000000000000         0.20185846665744539     
  0.14040000000000002         0.23319854796334524     
  0.14069999999999999         0.23515163951617343     
  0.14100000000000001         0.20294962061367308     
  0.14130000000000004         0.13601578481906443     
  0.14160000000000000          4.0390594211251983E-002
  0.14189999999999997         -7.2348722433852514E-002
  0.14219999999999999        -0.18762357337961455     
  0.14250000000000002        -0.28774860703891253     
  0.14279999999999998        -0.35541236389650993     
  0.14310000000000000        -0.37737806291595627     
  0.14339999999999997        -0.34608219886157093     
  0.14369999999999999        -0.26144653892893588     
  0.14400000000000002        -0.13097818397318678     
  0.14429999999999998          2.9274226334739500E-002
  0.14460000000000001         0.19619895894113026     
  0.14490000000000003         0.34539410051736208     
  0.14520000000000000         0.45185248115919502     
  0.14550000000000002         0.49363038991873393     
  0.14579999999999999         0.45741375295264780     
  0.14610000000000001         0.33905485850929173     
  0.14640000000000003         0.14557502896862173     
  0.14670000000000000        -0.10494537167391051     
  0.14699999999999996        -0.38494430759893145     
  0.14729999999999999        -0.66081867609743117     
  0.14760000000000001        -0.89737349709971237     
  0.14789999999999998         -1.0611100264847211     
  0.14820000000000000         -1.1247880982110126     