  -1.4999999999999999E-002     0.0000000000000000     
  -1.4700000000000000E-002    -5.7669606392122212E-039
  -1.4400000000000000E-002     6.6006367691882859E-031
  -1.4100000000000000E-002     4.6762214951755666E-027
  -1.3800000000000000E-002     9.3913272463383906E-025
  -1.3500000000000000E-002     5.2157463256312130E-023
  -1.3200000000000000E-002     6.7430987793869326E-022
  -1.2899999999999998E-002    -1.4260109044461518E-020
  -1.2600000000000000E-002    -5.6724404591099430E-020
  -1.2299999999999998E-002     6.4387660789809372E-019
  -1.2000000000000000E-002     1.5215471960953197E-018
  -1.1699999999999999E-002    -7.5721324638687918E-018
  -1.1399999999999999E-002    -1.2565123560061390E-017
  -1.1099999999999999E-002    -2.2539043425309197E-016
  -1.0799999999999999E-002     5.9107325519565995E-016
  -1.0499999999999999E-002     7.5989783034103465E-015
  -1.0199999999999999E-002    -3.0953577132541194E-014
  -9.8999999999999991E-003    -1.8917785665339163E-014
  -9.5999999999999992E-003     3.0882220430697455E-013
  -9.2999999999999992E-003    -6.1355865815414563E-013
  -8.9999999999999993E-003     5.6398371135357362E-014
  -8.6999999999999994E-003     2.2744329340607398E-012
  -8.3999999999999995E-003    -6.3670295880558827E-012
  -8.0999999999999996E-003     7.6445776744982382E-012
  -7.7999999999999988E-003     3.5934683922727044E-012
  -7.4999999999999997E-003    -2.2700726502875576E-011
  -7.1999999999999998E-003     2.5225448680867939E-011
  -6.8999999999999981E-003    -1.5573384186171417E-011
  -6.5999999999999982E-003     2.4610241586261742E-011
  -6.3000000000000000E-003    -2.0580495940803857E-011
  -6.0000000000000001E-003    -8.1865046590200030E-011
  -5.6999999999999985E-003     2.6879469626729445E-010
  -5.3999999999999986E-003    -1.9605000512365139E-010
  -5.1000000000000004E-003    -5.5168705462113897E-010
  -4.7999999999999987E-003     1.1382349547217054E-009
  -4.5000000000000005E-003     2.9890295379796647E-010
  -4.1999999999999989E-003    -3.0004771953033639E-009
  -3.8999999999999990E-003     2.4009014255508691E-009
  -3.5999999999999990E-003     3.8308927010887734E-009
  -3.2999999999999991E-003    -8.2272580385413335E-009
  -2.9999999999999992E-003    -6.1818344510283351E-010
  -2.6999999999999993E-003     1.3845563441604727E-008
  -2.3999999999999994E-003    -4.1427930701757802E-009
  -2.0999999999999977E-003    -2.1057441075214126E-008
  -1.7999999999999995E-003     1.1210858260436954E-008
  -1.4999999999999979E-003     3.8495734905527286E-008
  -1.1999999999999997E-003    -3.9863530519292284E-008
  -8.9999999999999976E-004    -6.9976638649070365E-008
  -5.9999999999999810E-004     1.4174462192861699E-007
  -2.9999999999999992E-004     9.9902595638000679E-008
   0.0000000000000000         -4.7459331838884697E-007
   3.0000000000000165E-004     9.5306983329629845E-009
   5.9999999999999984E-004     1.4502886495852101E-006
   9.0000000000000149E-004    -7.0688954080177060E-007
   1.2000000000000031E-003    -4.3336246765652349E-006
   1.5000000000000013E-003     2.4260434880122544E-006
   1.8000000000000030E-003     1.2556933462868523E-005
   2.1000000000000012E-003    -3.8043772316194526E-006
   2.3999999999999994E-003    -3.4087983669037928E-005
   2.7000000000000010E-003    -3.1600549253096891E-006
   2.9999999999999992E-003     1.1605960115305886E-004
   3.3000000000000008E-003     2.4237660122255469E-004
   3.6000000000000025E-003     3.1839455268551579E-004
   3.9000000000000007E-003     4.2555643235669705E-004
   4.2000000000000023E-003     6.8825648476341663E-004
   4.5000000000000005E-003     1.1409437137184402E-003
   4.7999999999999987E-003     1.7800832542068231E-003
   5.1000000000000004E-003     2.6896385379933728E-003
   5.4000000000000020E-003     4.0442343831013569E-003
   5.7000000000000037E-003     6.0533912890533090E-003
   5.9999999999999984E-003     8.9706180967567065E-003
   6.3000000000000000E-003     1.3128522250466092E-002
   6.6000000000000017E-003     1.8927664874055505E-002
   6.9000000000000034E-003     2.6839258224848235E-002
   7.2000000000000015E-003     3.7475710964824938E-002
   7.5000000000000032E-003     5.1605399937284545E-002
   7.8000000000000014E-003     7.0043809147829164E-002
   8.0999999999999996E-003     9.3563440005357004E-002
   8.4000000000000012E-003    0.12292939467081673     
   8.7000000000000029E-003    0.15888066512224475     
   9.0000000000000011E-003    0.20187705325540498     
   9.2999999999999992E-003    0.25186217292728075     
   9.6000000000000009E-003    0.30821569316962777     
   9.8999999999999991E-003    0.36963652674785646     
   1.0200000000000001E-002    0.43382811714557207     
   1.0500000000000002E-002    0.49721857472611908     
   1.0800000000000004E-002    0.55487780622645566     
   1.1099999999999999E-002    0.60057596717367268     
   1.1400000000000000E-002    0.62691538357875110     
   1.1700000000000002E-002    0.62554906230492457     
   1.2000000000000004E-002    0.58753848785064411     
   1.2300000000000002E-002    0.50393555808745438     
   1.2600000000000000E-002    0.36668566412368536     
   1.2900000000000002E-002    0.16966760068614911     
   1.3200000000000000E-002    -9.0307474650048986E-002
   1.3500000000000002E-002   -0.41255599804276583     
   1.3800000000000003E-002   -0.79177765242329801     
   1.4100000000000001E-002    -1.2175173734179445     
   1.4400000000000000E-002    -1.6739495339055039     
   1.4700000000000001E-002    -2.1400969265042735     
   1.4999999999999999E-002    -2.5907661276842915     
   1.5300000000000001E-002    -2.9981159788414722     
   1.5600000000000003E-002    -3.3334975630558286     
   1.5899999999999997E-002    -3.5697573255759236     
   1.6199999999999999E-002    -3.6837825011131113     
   1.6500000000000001E-002    -3.6587337250104137     
   1.6800000000000002E-002    -3.4859234087672912     
   1.7100000000000004E-002    -3.1662313424249922     
   1.7400000000000006E-002    -2.7103917465308971     
   1.7700000000000000E-002    -2.1384887721412582     
   1.8000000000000002E-002    -1.4787499477002954     
   1.8300000000000004E-002   -0.76485261899228285     
   1.8600000000000005E-002    -3.3104340405214816E-002
   1.8900000000000000E-002    0.68095323428319565     
   1.9200000000000002E-002     1.3463374063640949     
   1.9500000000000003E-002     1.9391340101901875     
   1.9799999999999998E-002     2.4448486792584863     
   2.0100000000000000E-002     2.8598140927879694     
   2.0400000000000001E-002     3.1908264545902467     
   2.0700000000000003E-002     3.4545087995633654     
   2.0999999999999998E-002     3.6747275029636199     
   2.1299999999999999E-002     3.8792211793511600     
   2.1600000000000001E-002     4.0964397303992532     
   2.1900000000000003E-002     4.3519436397081579     
   2.2200000000000004E-002     4.6646874716239370     
   2.2500000000000006E-002     5.0444463030228857     
   2.2800000000000001E-002     5.4902353015375400     
   2.3100000000000002E-002     5.9891342866512174     
   2.3400000000000004E-002     6.5169496461109571     
   2.3699999999999999E-002     7.0393962541496826     
   2.4000000000000000E-002     7.5138324926445730     
   2.4300000000000002E-002     7.8922749364139158     
   2.4599999999999997E-002     8.1238705975877572     
   2.4900000000000005E-002     8.1584517914860655     
   2.5200000000000000E-002     7.9494035262119276     
   2.5499999999999995E-002     7.4562340579205113     
   2.5800000000000003E-002     6.6477574099596257     
   2.6099999999999998E-002     5.5039842628009188     
   2.6400000000000007E-002     4.0191004175573477     
   2.6700000000000002E-002     2.2036222993484254     
   2.6999999999999996E-002     8.5128677531749686E-002
   2.7300000000000005E-002    -2.2897253960130679     
   2.7600000000000000E-002    -4.8548148243758718     
   2.7900000000000008E-002    -7.5259651544531847     
   2.8200000000000003E-002    -10.202163230622622     
   2.8499999999999998E-002    -12.769149280668660     
   2.8800000000000006E-002    -15.105642938418036     
   2.9100000000000001E-002    -17.089228441482032     
   2.9400000000000003E-002    -18.603132499304195     
   2.9700000000000004E-002    -19.546450897519879     
   3.0000000000000006E-002    -19.842354872154356     
   3.0300000000000001E-002    -19.444514223372916     
   3.0600000000000002E-002    -18.343447300989986     
   3.0900000000000004E-002    -16.569892071444329     
   3.1199999999999999E-002    -14.195876507322467     
   3.1500000000000007E-002    -11.330649541996783     
   3.1800000000000002E-002    -8.1137016503216799     
   3.2099999999999997E-002    -4.7079772918384570     
   3.2400000000000005E-002    -1.2876833195316699     
   3.2700000000000000E-002     1.9751016857328896     
   3.3000000000000002E-002     4.9203215471971689     
   3.3300000000000003E-002     7.4126031095829061     
   3.3599999999999998E-002     9.3498008687100125     
   3.3900000000000000E-002     10.667919601135413     
   3.4200000000000001E-002     11.346059462831454     
   3.4500000000000003E-002     11.404006449330899     
   3.4799999999999998E-002     10.898251278311763     
   3.5099999999999999E-002     9.9173634426635555     
   3.5400000000000001E-002     8.5728341553349559     
   3.5699999999999996E-002     6.9903702896704303     
   3.6000000000000004E-002     5.3003646485416311     
   3.6299999999999999E-002     3.6279998445461352     
   3.6600000000000008E-002     2.0876858497897319     
   3.6900000000000002E-002    0.77587115282641284     
   3.7199999999999997E-002   -0.23502934215438531     
   3.7500000000000006E-002   -0.89660040823429155     
   3.7800000000000000E-002    -1.1865652871210672     
   3.8100000000000009E-002    -1.1084065101510714     
   3.8400000000000004E-002   -0.68641706950809755     
   3.8699999999999998E-002     3.6805348598425103E-002
   3.9000000000000007E-002     1.0056535099576485     
   3.9300000000000002E-002     2.1589702956105619     
   3.9600000000000003E-002     3.4347568782442530     
   3.9900000000000005E-002     4.7768970668840467     
   4.0200000000000000E-002     6.1401503755824507     
   4.0500000000000001E-002     7.4923955975564862     
   4.0800000000000003E-002     8.8169480585869380     
   4.1100000000000005E-002     10.108891287042372     
   4.1399999999999999E-002     11.370709962465185     
   4.1700000000000008E-002     12.607133340424223     
   4.2000000000000003E-002     13.813898221344074     
   4.2299999999999997E-002     14.969302345130750     
   4.2600000000000006E-002     16.026796057645498     
   4.2900000000000001E-002     16.907841581547594     
   4.3200000000000002E-002     17.501061538445111     
   4.3500000000000004E-002     17.665444600840022     
   4.3799999999999999E-002     17.238767894002486     
   4.4100000000000000E-002     16.053907884049039     
   4.4400000000000002E-002     13.956433035690589     
   4.4700000000000004E-002     10.826217559552958     
   4.4999999999999998E-002     6.6016409383862342     
   4.5300000000000000E-002     1.2982645972285720     
   4.5600000000000002E-002    -4.9786223363036770     
   4.5899999999999996E-002    -12.024260157651419     
   4.6200000000000005E-002    -19.539180737602379     
   4.6500000000000000E-002    -27.142630183986100     
   4.6799999999999994E-002    -34.394317692913909     
   4.7100000000000003E-002    -40.827335686326329     
   4.7399999999999998E-002    -45.982800223636048     
   4.7700000000000006E-002    -49.450079394952645     
   4.8000000000000001E-002    -50.903932513145300     
   4.8300000000000010E-002    -50.133993958307101     
   4.8600000000000004E-002    -47.069467357359564     
   4.8899999999999999E-002    -41.790896144488059     
   4.9200000000000008E-002    -34.524567684604207     
   4.9500000000000002E-002    -25.632115473066584     
   4.9800000000000011E-002    -15.585992408782214     
   5.0100000000000006E-002    -4.9302078905362450     
   5.0400000000000000E-002     5.7562793173651983     
   5.0700000000000009E-002     15.902219849487064     
   5.1000000000000004E-002     24.985706277929665     
   5.1299999999999998E-002     32.569269621143420     
   5.1600000000000007E-002     38.327102243458341     
   5.1900000000000002E-002     42.061347668010576     
   5.2200000000000010E-002     43.709095507424138     
   5.2500000000000005E-002     43.338407363419570     
   5.2800000000000000E-002     41.131360552194238     
   5.3099999999999994E-002     37.364231941274895     
   5.3400000000000003E-002     32.380655784961093     
   5.3699999999999998E-002     26.560222110171043     
   5.4000000000000006E-002     20.290214847658110     
   5.4300000000000001E-002     13.939681194070779     
   5.4599999999999996E-002     7.8355776512100999     
   5.4900000000000004E-002     2.2478481270556152     
   5.5199999999999999E-002    -2.6186437069544857     
   5.5499999999999994E-002    -6.6315719055627156     
   5.5800000000000002E-002    -9.7253886784673647     
   5.6099999999999997E-002    -11.896970341616036     
   5.6400000000000006E-002    -13.194819378241668     
   5.6700000000000000E-002    -13.706324341327187     
   5.6999999999999995E-002    -13.548235754048939     
   5.7300000000000004E-002    -12.851844341023744     
   5.7599999999999998E-002    -11.753772956188550     
   5.7900000000000007E-002    -10.387030249795192     
   5.8200000000000002E-002    -8.8729824039663008     
   5.8499999999999996E-002    -7.3187613341203175     
   5.8800000000000005E-002    -5.8117788536601154     
   5.9100000000000000E-002    -4.4192378007033888     
   5.9400000000000008E-002    -3.1882193841439666     
   5.9700000000000003E-002    -2.1463692476914811     
   6.0000000000000012E-002    -1.3048195004002259     
   6.0300000000000006E-002   -0.65981015500388773     
   6.0600000000000001E-002   -0.19560522674883063     
   6.0900000000000010E-002    0.11194321693875986     
   6.1200000000000004E-002    0.29116865247516188     
   6.1500000000000013E-002    0.37094188883834589     
   6.1800000000000008E-002    0.38062560427599812     
   6.2100000000000002E-002    0.34590525327256960     
   6.2399999999999997E-002    0.28741754598630237     
   6.2700000000000006E-002    0.21922993041284689     
   6.3000000000000000E-002    0.15135515014308260     
   6.3300000000000009E-002     8.9210374795816977E-002
   6.3600000000000004E-002     3.4235934317446259E-002
   6.3899999999999998E-002    -1.3105286900974775E-002
   6.4199999999999993E-002    -5.3740751527539904E-002
   6.4500000000000002E-002    -8.7165314797268800E-002
   6.4800000000000010E-002   -0.11210188054507306     
   6.5100000000000005E-002   -0.12614748866519551     
   6.5400000000000000E-002   -0.12669246583210320     
   6.5700000000000008E-002   -0.11140861674746741     
   6.5999999999999989E-002    -7.7629341125704382E-002
   6.6299999999999998E-002    -2.5852353206894441E-002
   6.6600000000000006E-002     4.0243319349941853E-002
   6.6900000000000001E-002    0.11609463474094327     
   6.7199999999999996E-002    0.19477989761013262     
   6.7500000000000004E-002    0.26828153589056419     
   6.7800000000000013E-002    0.32871146152022646     
   6.8099999999999994E-002    0.36982439616708179     
   6.8400000000000002E-002    0.38794066053861226     
   6.8700000000000011E-002    0.38179546668282582     
   6.8999999999999992E-002    0.35391255040677594     
   6.9300000000000000E-002    0.31016309289896360     
   6.9600000000000009E-002    0.25753393502617528     
   6.9900000000000004E-002    0.20336739277830712     
   7.0199999999999999E-002    0.15646344375039717     
   7.0500000000000007E-002    0.12267088263791170     
   7.0800000000000016E-002    0.10518942858787605     
   7.1099999999999997E-002    0.10534299211140596     
   7.1400000000000005E-002    0.12090489102631805     
   7.1700000000000000E-002    0.14928721944613643     
   7.1999999999999995E-002    0.18455834511275337     
   7.2300000000000003E-002    0.22082124437454198     
   7.2600000000000012E-002    0.25391915574272061     
   7.2900000000000006E-002    0.27960713896773920     
   7.3200000000000001E-002    0.29624830144061171     
   7.3499999999999996E-002    0.30335051902406646     
   7.3800000000000004E-002    0.30171678235505939     
   7.4099999999999999E-002    0.29343990287277782     
   7.4400000000000008E-002    0.28012893429061791     
   7.4700000000000003E-002    0.26416770248914678     
   7.5000000000000011E-002    0.24640668745441163     
   7.5299999999999992E-002    0.22724365304374966     
   7.5600000000000001E-002    0.20601834519769757     
   7.5900000000000009E-002    0.18214223217541481     
   7.6200000000000004E-002    0.15558953091733868     
   7.6499999999999999E-002    0.12433154926537882     
   7.6800000000000007E-002     8.9574372871439975E-002
   7.7099999999999988E-002     5.3297917606949456E-002
   7.7399999999999997E-002     1.7131842737733671E-002
   7.7700000000000005E-002    -1.5946535409337111E-002
   7.8000000000000014E-002    -4.4163733188845158E-002
   7.8299999999999995E-002    -6.4362051884989724E-002
   7.8600000000000003E-002    -7.5545528321547734E-002
   7.8900000000000012E-002    -7.8704257001791456E-002
   7.9199999999999993E-002    -7.4054396311654030E-002
   7.9500000000000001E-002    -6.4998236807774723E-002
   7.9800000000000010E-002    -5.6383929989638287E-002
   8.0100000000000018E-002    -5.0882980572272266E-002
   8.0399999999999999E-002    -5.2173858910402202E-002
   8.0700000000000008E-002    -6.3713906857274100E-002
   8.1000000000000003E-002    -8.5991098189060880E-002
   8.1299999999999997E-002   -0.11759093808844337     
   8.1600000000000006E-002   -0.15546033561328756     
   8.1900000000000014E-002   -0.19545425988964121     
   8.2199999999999995E-002   -0.23288260554043114     
   8.2500000000000004E-002   -0.26067545350585541     
   8.2799999999999999E-002   -0.27485093435907804     
   8.3100000000000007E-002   -0.27289574099787006     
   8.3400000000000002E-002   -0.25266128994262788     
   8.3700000000000011E-002   -0.21660274883119723     
   8.4000000000000005E-002   -0.16871742482897681     
   8.4300000000000000E-002   -0.11412472858188577     
   8.4599999999999995E-002    -6.0622604287876997E-002
   8.4900000000000003E-002    -1.5450146559583565E-002
   8.5199999999999998E-002     1.5646991769812726E-002
   8.5500000000000007E-002     2.8823430135676106E-002
   8.5800000000000001E-002     2.3064634189539770E-002
   8.6100000000000010E-002     7.8477485545121878E-005
   8.6399999999999991E-002    -3.5236343968056263E-002
   8.6699999999999999E-002    -7.4671976095364218E-002
   8.7000000000000008E-002   -0.10966718123741392     
   8.7300000000000003E-002   -0.13226564476912084     
   8.7599999999999997E-002   -0.13409342929911550     
   8.7900000000000006E-002   -0.11186038391276379     
   8.8200000000000014E-002    -6.4422977614029889E-002
   8.8499999999999995E-002     4.8630419487974037E-003
   8.8800000000000004E-002     8.7214709376602487E-002
   8.9100000000000013E-002    0.17269740119917734     
   8.9399999999999993E-002    0.24895598996456578     
   8.9700000000000002E-002    0.30340716992231737     
   9.0000000000000011E-002    0.32656953849563486     
   9.0299999999999991E-002    0.31204999253507049     
   9.0600000000000000E-002    0.25945266664596839     
   9.0900000000000009E-002    0.17436990351479245     
   9.1200000000000017E-002     6.7756040308131468E-002
   9.1499999999999998E-002    -4.4393224719385366E-002
   9.1800000000000007E-002   -0.14303714955080524     
   9.2100000000000001E-002   -0.20955036056400350     
   9.2399999999999996E-002   -0.22709443184434747     
   9.2700000000000005E-002   -0.18363628752380889     
   9.3000000000000013E-002    -7.7141228202270540E-002
   9.3300000000000008E-002     8.8212507894349812E-002
   9.3600000000000003E-002    0.29828263382827785     
   9.3899999999999997E-002    0.52937236631013029     
   9.4200000000000006E-002    0.75363007483446032     
   9.4500000000000001E-002    0.93791064910907784     
   9.4800000000000009E-002     1.0517451304873262     
   9.5100000000000004E-002     1.0696012216626802     
   9.5399999999999999E-002    0.97283721564425374     
   9.5699999999999993E-002    0.75685268809411710     
   9.6000000000000002E-002    0.42927893218573304     
   9.6300000000000011E-002     1.1061905123094962E-002
   9.6600000000000005E-002   -0.46331498622241890     
   9.6900000000000000E-002   -0.95201164132842764     
   9.7200000000000009E-002    -1.4077666782493599     
   9.7499999999999989E-002    -1.7827782392686558     
   9.7799999999999998E-002    -2.0360185609226393     
   9.8100000000000007E-002    -2.1363999109702476     
   9.8400000000000015E-002    -2.0660334290710196     
   9.8699999999999996E-002    -1.8244217500170381     
   9.9000000000000005E-002    -1.4263915381450722     
   9.9300000000000013E-002   -0.90161669645497078     
   9.9599999999999994E-002   -0.29262984846863122     
   9.9900000000000003E-002    0.35144073402779730     
  0.10020000000000001         0.97849362518074035     
  0.10049999999999999          1.5392119813968526     
  0.10080000000000000          1.9918128368925374     
  0.10110000000000001          2.3039931963498739     
  0.10140000000000000          2.4578032886694916     
  0.10170000000000000          2.4489115095680942     
  0.10200000000000001          2.2854716570815725     
  0.10230000000000002          1.9875686363678193     
  0.10260000000000000          1.5843247558417355     
  0.10290000000000001          1.1087236103586335     
  0.10320000000000000         0.59712494827585016     
  0.10350000000000001          8.5184486299179074E-002
  0.10380000000000000        -0.39710027608186760     
  0.10410000000000001        -0.82306214216502005     
  0.10440000000000001         -1.1731060017483497     
  0.10470000000000000         -1.4352141856637441     
  0.10500000000000000         -1.6031087578746701     
  0.10530000000000000         -1.6772814216281600     
  0.10560000000000000         -1.6629324920773847     
  0.10590000000000001         -1.5698014065109467     
  0.10620000000000000         -1.4115047027697858     
  0.10650000000000001         -1.2016040385124847     
  0.10679999999999999        -0.95724167776146052     
  0.10710000000000000        -0.69586743983852029     
  0.10740000000000001        -0.43249693442818749     
  0.10770000000000000        -0.18174900709043273     
  0.10800000000000000          4.2490785792083208E-002
  0.10830000000000001         0.23030249395497226     
  0.10859999999999999         0.37530780666996799     
  0.10890000000000000         0.47397197627852317     
  0.10920000000000001         0.52673463417391364     
  0.10950000000000001         0.53612425188088286     
  0.10979999999999999         0.50872996492906741     
  0.11009999999999999         0.45325856505342965     
  0.11040000000000001         0.37813189131208069     
  0.11070000000000001         0.29311758242647601     
  0.11100000000000000         0.20606711275722273     
  0.11130000000000000         0.12382683902386493     
  0.11160000000000002          5.2073089605204570E-002
  0.11190000000000001         -7.3655601617029151E-003
  0.11220000000000001         -5.3720721015503986E-002
  0.11250000000000000         -8.7706469278071880E-002
  0.11280000000000000        -0.11158996582537012     
  0.11309999999999999        -0.12745432196401604     
  0.11340000000000001        -0.13767535171102402     
  0.11369999999999998        -0.14419965853099553     
  0.11400000000000000        -0.14795541570298187     
  0.11430000000000000        -0.14845018611880254     
  0.11460000000000002        -0.14550275580562155     
  0.11489999999999999        -0.13813155185589579     
  0.11520000000000001        -0.12561289050737198     
  0.11550000000000001        -0.10784410412161705     
  0.11580000000000000         -8.4143156352751214E-002
  0.11609999999999999         -5.6225325502216025E-002
  0.11640000000000002         -2.6151787226540352E-002
  0.11670000000000001          4.4991642757697334E-003
  0.11700000000000001          3.3275868957794948E-002
  0.11730000000000000          5.8199014474385607E-002
  0.11760000000000000          7.7611810556536126E-002
  0.11789999999999999          9.0689494357163697E-002
  0.11820000000000001          9.8287311146675688E-002
  0.11850000000000001         0.10095433156347274     
  0.11880000000000000          9.9826337630535791E-002
  0.11910000000000000          9.7536007518495393E-002
  0.11940000000000002          9.5442976395108736E-002
  0.11970000000000001          9.4233368994105740E-002
  0.12000000000000001          9.5159923564614335E-002
  0.12030000000000000          9.7866233155724416E-002
  0.12060000000000000         0.10178028036681490     
  0.12089999999999999         0.10611834999626392     
  0.12119999999999999         0.10890690698715592     
  0.12150000000000001         0.10986645898840333     
  0.12180000000000001         0.10830819877782866     
  0.12210000000000000         0.10395997275286398     
  0.12239999999999999          9.8017312434210649E-002
  0.12270000000000002          9.1415637389978932E-002
  0.12300000000000001          8.5928483679405379E-002
  0.12330000000000001          8.3233554778881932E-002
  0.12360000000000000          8.4228770068042469E-002
  0.12390000000000000          9.0017342005571988E-002
  0.12419999999999999         0.10102956732584645     
  0.12450000000000001         0.11612785571645720     
  0.12480000000000001         0.13375665257804015     
  0.12509999999999999         0.15220563112293822     
  0.12540000000000001         0.16884194042506159     
  0.12570000000000003         0.18218085703451289     
  0.12600000000000000         0.19035706758041748     
  0.12630000000000002         0.19161639725928151     
  0.12659999999999999         0.18679684248936637     
  0.12690000000000001         0.17606293504688900     
  0.12719999999999998         0.16057648800810528     
  0.12750000000000000         0.14228733021623111     
  0.12780000000000002         0.12271826283178931     
  0.12809999999999999         0.10395020042412635     
  0.12840000000000001          8.7390179322749853E-002
  0.12869999999999998          7.2985032689361101E-002
  0.12900000000000000          6.0992392024200204E-002
  0.12930000000000003          5.0636972308655784E-002
  0.12959999999999999          4.0996500825272814E-002
  0.12990000000000002          3.1382203525127134E-002
  0.13019999999999998          2.0172245895134323E-002
  0.13050000000000000          6.4462341354701233E-003
  0.13080000000000003         -8.6986152200157537E-003
  0.13109999999999999         -2.5506224879432458E-002
  0.13140000000000002         -4.2962923571778451E-002
  0.13169999999999998         -5.9070783585873435E-002
  0.13200000000000001         -7.3420079398555840E-002
  0.13229999999999997         -8.3798394559798692E-002
  0.13260000000000000         -9.0115156039314900E-002
  0.13290000000000002         -9.3303320098164000E-002
  0.13319999999999999         -9.3468968275365993E-002
  0.13350000000000001         -9.2308415766676866E-002
  0.13380000000000003         -9.1102383303657331E-002
  0.13410000000000000         -9.1826085561932946E-002
  0.13440000000000002         -9.6872040073087071E-002
  0.13469999999999999        -0.10610954977936229     
  0.13500000000000001        -0.11965571227451138     
  0.13529999999999998        -0.13722422076466823     
  0.13560000000000000        -0.15681386631571848     
  0.13590000000000002        -0.17658998547086147     
  0.13619999999999999        -0.19463687608927185     
  0.13650000000000001        -0.20876830068200070     
  0.13680000000000003        -0.21809821372157243     
  0.13710000000000000        -0.22201849940247012     
  0.13740000000000002        -0.22049976637494670     
  0.13769999999999999        -0.21493368021847697     
  0.13800000000000001        -0.20664274721984913     
  0.13829999999999998        -0.19725105257291287     
  0.13860000000000000        -0.18855523759809972     
  0.13890000000000002        -0.18106254103246314     
  0.13919999999999999        -0.17544317216668426     
  0.13950000000000001        -0.17124107508610353     
  0.13979999999999998        -0.16688458811404366     
  0.14010000000000000        -0.16153645137067821     
  0.14040000000000002        -0.15406284753716107     
  0.14069999999999999        -0.14290701312292423     
  0.14100000000000001        -0.12762024947001033     
  0.14130000000000004        -0.10924048409500720     
  0.14160000000000000         -8.8635285631703781E-002
  0.14189999999999997         -6.7519829140819027E-002
  0.14219999999999999         -4.7144535398580552E-002
  0.14250000000000002         -3.0295557257750592E-002
  0.14279999999999998         -1.8968111157462601E-002
  0.14310000000000000         -1.2243975854413978E-002
  0.14339999999999997         -1.0379839241184571E-002
  0.14369999999999999         -1.2856437056520511E-002
  0.14400000000000002         -1.7344306341152423E-002
  0.14429999999999998         -2.1427419731207473E-002
  0.14460000000000001         -2.2431322764040324E-002
  0.14490000000000003         -1.9071221885177861E-002
  0.14520000000000000         -1.0509153964865370E-002
  0.14550000000000002          4.5261426571844166E-003
  0.14579999999999999          2.4593153403714235E-002
  0.14610000000000001          4.8264163455070126E-002
  0.14640000000000003          7.3819811669736668E-002
  0.14670000000000000          9.8851600992144073E-002
  0.14699999999999996         0.12107348758212322     
  0.14729999999999999         0.13954483076089944     
  0.14760000000000001         0.15352323208140500     
  0.14789999999999998         0.16285577161335502     
  0.14820000000000000         0.16839266850385676     