  -1.4999999999999999E-002     0.0000000000000000     
  -1.4700000000000000E-002    -9.2867064393515693E-008
  -1.4400000000000000E-002     1.2098094108776721E-007
  -1.4100000000000000E-002     3.0985717243466353E-006
  -1.3800000000000000E-002    -3.8938871927258757E-007
  -1.3500000000000000E-002    -1.0798652032727550E-007
  -1.3200000000000000E-002    -1.2877027247333230E-005
  -1.2899999999999998E-002    -2.3983305663851933E-005
  -1.2600000000000000E-002     3.1982697381855131E-005
  -1.2299999999999998E-002     4.9887774148020785E-005
  -1.2000000000000000E-002     2.7234504848963067E-005
  -1.1699999999999999E-002    -3.6574789403969417E-005
  -1.1399999999999999E-002    -8.1799430899696100E-005
  -1.1099999999999999E-002    -6.0900109432909569E-005
  -1.0799999999999999E-002    -5.3058253158869999E-005
  -1.0499999999999999E-002     1.0860606813128467E-004
  -1.0199999999999999E-002     1.9769908938561121E-004
  -9.8999999999999991E-003     1.6025545827676031E-004
  -9.5999999999999992E-003     1.9596002301574601E-004
  -9.2999999999999992E-003     2.1620952340653402E-004
  -8.9999999999999993E-003     3.2783468383780192E-004
  -8.6999999999999994E-003     5.4073947992912144E-004
  -8.3999999999999995E-003     9.7038012215648433E-004
  -8.0999999999999996E-003     1.5976361878251221E-003
  -7.7999999999999988E-003     2.4361594633135484E-003
  -7.4999999999999997E-003     3.7643705170125521E-003
  -7.1999999999999998E-003     5.5764760404709637E-003
  -6.8999999999999981E-003     8.1468355350225903E-003
  -6.5999999999999982E-003     1.1992596098961554E-002
  -6.3000000000000000E-003     1.7502618897545025E-002
  -6.0000000000000001E-003     2.4455573273059958E-002
  -5.6999999999999985E-003     3.3014774074215401E-002
  -5.3999999999999986E-003     4.4342495074956315E-002
  -5.1000000000000004E-003     5.9345803432177262E-002
  -4.7999999999999987E-003     7.8758834645950182E-002
  -4.5000000000000005E-003    0.10278717250616357     
  -4.1999999999999989E-003    0.13130403792803672     
  -3.8999999999999990E-003    0.16374307501618499     
  -3.5999999999999990E-003    0.19982684641632378     
  -3.2999999999999991E-003    0.23938634311861667     
  -2.9999999999999992E-003    0.27958937584450805     
  -2.6999999999999993E-003    0.31622813992214432     
  -2.3999999999999994E-003    0.34354741949149464     
  -2.0999999999999977E-003    0.35483284082586092     
  -1.7999999999999995E-003    0.34154562159842605     
  -1.4999999999999979E-003    0.29173261671656003     
  -1.1999999999999997E-003    0.19254613497642384     
  -8.9999999999999976E-004     2.6983747025190387E-002
  -5.9999999999999810E-004   -0.22252742247537233     
  -2.9999999999999992E-004   -0.57390494977225759     
   0.0000000000000000         -1.0470775464980666     
   3.0000000000000165E-004    -1.6577954258549155     
   5.9999999999999984E-004    -2.4206824078532332     
   9.0000000000000149E-004    -3.3426219934847379     
   1.2000000000000031E-003    -4.4219855446571206     
   1.5000000000000013E-003    -5.6463879313976024     
   1.8000000000000030E-003    -6.9838383871111196     
   2.1000000000000012E-003    -8.3875043516303389     
   2.3999999999999994E-003    -9.7855412488844138     
   2.7000000000000010E-003    -11.083400379566065     
   2.9999999999999992E-003    -12.165501189250675     
   3.3000000000000008E-003    -12.891792794568417     
   3.6000000000000025E-003    -13.112057192078561     
   3.9000000000000007E-003    -12.665122475043075     
   4.2000000000000023E-003    -11.397508120534233     
   4.5000000000000005E-003    -9.1786809169344341     
   4.7999999999999987E-003    -5.9112125472503276     
   5.1000000000000004E-003    -1.5592648882218272     
   5.4000000000000020E-003     3.8447147216175357     
   5.7000000000000037E-003     10.180193772170488     
   5.9999999999999984E-003     17.229953393591455     
   6.3000000000000000E-003     24.685323075839548     
   6.6000000000000017E-003     32.145922697929471     
   6.9000000000000034E-003     39.146677737964509     
   7.2000000000000015E-003     45.180510044385493     
   7.5000000000000032E-003     49.733877461512243     
   7.8000000000000014E-003     52.334596781119835     
   8.0999999999999996E-003     52.587190724011293     
   8.4000000000000012E-003     50.224077362562006     
   8.7000000000000029E-003     45.133409778813771     
   9.0000000000000011E-003     37.383661787556726     
   9.2999999999999992E-003     27.236960303550720     
   9.6000000000000009E-003     15.134381589891273     
   9.8999999999999991E-003     1.6783466706450154     
   1.0200000000000001E-002    -12.409968094190495     
   1.0500000000000002E-002    -26.344340514323932     
   1.0800000000000004E-002    -39.324797368860722     
   1.1099999999999999E-002    -50.611379922477177     
   1.1400000000000000E-002    -59.567735658630767     
   1.1700000000000002E-002    -65.718160401686717     
   1.2000000000000004E-002    -68.776013994525727     
   1.2300000000000002E-002    -68.659856467403074     
   1.2600000000000000E-002    -65.497915049349174     
   1.2900000000000002E-002    -59.602464661026332     
   1.3200000000000000E-002    -51.444299963056380     
   1.3500000000000002E-002    -41.602705602043606     
   1.3800000000000003E-002    -30.722651495175864     
   1.4100000000000001E-002    -19.458266647667099     
   1.4400000000000000E-002    -8.4269769565645358     
   1.4700000000000001E-002     1.8273198480228952     
   1.4999999999999999E-002     10.870300827702879     
   1.5300000000000001E-002     18.385278049852143     
   1.5600000000000003E-002     24.193957457470038     
   1.5899999999999997E-002     28.236878410487659     
   1.6199999999999999E-002     30.571618039192533     
   1.6500000000000001E-002     31.347056342185155     
   1.6800000000000002E-002     30.775326718271767     
   1.7100000000000004E-002     29.118491231613518     
   1.7400000000000006E-002     26.646042974736485     
   1.7700000000000000E-002     23.633572835688557     
   1.8000000000000002E-002     20.330140483240790     
   1.8300000000000004E-002     16.951152328056601     
   1.8600000000000005E-002     13.678115476138831     
   1.8900000000000000E-002     10.638930046499292     
   1.9200000000000002E-002     7.9276822078444393     
   1.9500000000000003E-002     5.5939997395096936     
   1.9799999999999998E-002     3.6572908675823963     
   2.0100000000000000E-002     2.1114704356884264     
   2.0400000000000001E-002    0.92568296776673265     
   2.0700000000000003E-002     6.2387609141790229E-002
   2.0999999999999998E-002   -0.52928241031567103     
   2.1299999999999999E-002   -0.89925767245562027     
   2.1600000000000001E-002    -1.0981647476942140     
   2.1900000000000003E-002    -1.1743485450084044     
   2.2200000000000004E-002    -1.1668089182455583     
   2.2500000000000006E-002    -1.1125924184758009     
   2.2800000000000001E-002    -1.0375532744363141     
   2.3100000000000002E-002   -0.96342959783918203     
   2.3400000000000004E-002   -0.90225568509334653     
   2.3699999999999999E-002   -0.86212781385357040     
   2.4000000000000000E-002   -0.84526816450669218     
   2.4300000000000002E-002   -0.84872344595059013     
   2.4599999999999997E-002   -0.87118086669987538     
   2.4900000000000005E-002   -0.90210834509928584     
   2.5200000000000000E-002   -0.93993267714726736     
   2.5499999999999995E-002   -0.97709337099312843     
   2.5800000000000003E-002    -1.0093561127145119     
   2.6099999999999998E-002    -1.0391457987932491     
   2.6400000000000007E-002    -1.0601169773142392     
   2.6700000000000002E-002    -1.0799405286068458     
   2.6999999999999996E-002    -1.0966232725676472     
   2.7300000000000005E-002    -1.1121962970142214     
   2.7600000000000000E-002    -1.1329286998259620     
   2.7900000000000008E-002    -1.1541899141686816     
   2.8200000000000003E-002    -1.1825461081092481     
   2.8499999999999998E-002    -1.2120444458704207     
   2.8800000000000006E-002    -1.2413299948706082     
   2.9100000000000001E-002    -1.2708133125041658     
   2.9400000000000003E-002    -1.2925498141693359     
   2.9700000000000004E-002    -1.3094049344234293     
   3.0000000000000006E-002    -1.3172095664193741     
   3.0300000000000001E-002    -1.3149659283357793     
   3.0600000000000002E-002    -1.3043397320192547     
   3.0900000000000004E-002    -1.2831356186046528     
   3.1199999999999999E-002    -1.2543432381956294     
   3.1500000000000007E-002    -1.2189954198857944     
   3.1800000000000002E-002    -1.1773442912391119     
   3.2099999999999997E-002    -1.1299024521635848     
   3.2400000000000005E-002    -1.0770687772967427     
   3.2700000000000000E-002    -1.0157409635167536     
   3.3000000000000002E-002   -0.94952956294140700     
   3.3300000000000003E-002   -0.87547019772557011     
   3.3599999999999998E-002   -0.79315225143009016     
   3.3900000000000000E-002   -0.70852391058671405     
   3.4200000000000001E-002   -0.61712173981987728     
   3.4500000000000003E-002   -0.52806584676100754     
   3.4799999999999998E-002   -0.44144098870923038     
   3.5099999999999999E-002   -0.35820206121393439     
   3.5400000000000001E-002   -0.28906469907799492     
   3.5699999999999996E-002   -0.22630361701087531     
   3.6000000000000004E-002   -0.17921125509415084     
   3.6299999999999999E-002   -0.14395922129134600     
   3.6600000000000008E-002   -0.11585784411443227     
   3.6900000000000002E-002   -0.10088483758767891     
   3.7199999999999997E-002    -8.5985747358692827E-002
   3.7500000000000006E-002    -7.6223154875893276E-002
   3.7800000000000000E-002    -6.7031120632818866E-002
   3.8100000000000009E-002    -5.2884882002355901E-002
   3.8400000000000004E-002    -4.0280340853563856E-002
   3.8699999999999998E-002    -2.0243055310016928E-002
   3.9000000000000007E-002     1.8931426714196163E-003
   3.9300000000000002E-002     2.6704885687800762E-002
   3.9600000000000003E-002     5.6560287025177923E-002
   3.9900000000000005E-002     8.7572705432071116E-002
   4.0200000000000000E-002    0.12372677337079788     
   4.0500000000000001E-002    0.16520077941667097     
   4.0800000000000003E-002    0.21211389527331304     
   4.1100000000000005E-002    0.26682465468895972     
   4.1399999999999999E-002    0.32826702850757139     
   4.1700000000000008E-002    0.39287482580486160     
   4.2000000000000003E-002    0.46248774461786435     
   4.2299999999999997E-002    0.52983890540400869     
   4.2600000000000006E-002    0.59001515708196373     
   4.2900000000000001E-002    0.64133487461211736     
   4.3200000000000002E-002    0.67055247435099929     
   4.3500000000000004E-002    0.68098102234894309     
   4.3799999999999999E-002    0.66523484675915356     
   4.4100000000000000E-002    0.62145839524852231     
   4.4400000000000002E-002    0.55775265538505192     
   4.4700000000000004E-002    0.46836530022845968     
   4.4999999999999998E-002    0.36986952187821298     
   4.5300000000000000E-002    0.26564579666393046     
   4.5600000000000002E-002    0.16313481025565410     
   4.5899999999999996E-002     7.8781872565954272E-002
   4.6200000000000005E-002     1.0074533187847842E-002
   4.6500000000000000E-002    -2.9479582422430324E-002
   4.6799999999999994E-002    -4.1624164994863773E-002
   4.7100000000000003E-002    -2.9375378413041196E-002
   4.7399999999999998E-002     9.1341213867108147E-003
   4.7700000000000006E-002     5.9293035159613511E-002
   4.8000000000000001E-002    0.11751376252017307     
   4.8300000000000010E-002    0.17277859905581111     
   4.8600000000000004E-002    0.21569605821432433     
   4.8899999999999999E-002    0.24416170172312293     
   4.9200000000000008E-002    0.25316434334593252     
   4.9500000000000002E-002    0.24407560494292166     
   4.9800000000000011E-002    0.22334762977562383     
   5.0100000000000006E-002    0.19620911536039454     
   5.0400000000000000E-002    0.17054080868512220     
   5.0700000000000009E-002    0.15664467224064363     
   5.1000000000000004E-002    0.15563055844354012     
   5.1299999999999998E-002    0.17214949272053662     
   5.1600000000000007E-002    0.20080017683469317     
   5.1900000000000002E-002    0.22781848244528072     
   5.2200000000000010E-002    0.24741806702662344     
   5.2500000000000005E-002    0.23698127686770670     
   5.2800000000000000E-002    0.18737082588993603     
   5.3099999999999994E-002     8.7519964960331237E-002
   5.3400000000000003E-002    -7.2906677322849556E-002
   5.3699999999999998E-002   -0.27932494568880195     
   5.4000000000000006E-002   -0.52501975292098235     
   5.4300000000000001E-002   -0.77996198113410364     
   5.4599999999999996E-002    -1.0105161342420106     
   5.4900000000000004E-002    -1.1858626200884674     
   5.5199999999999999E-002    -1.2610431450472219     
   5.5499999999999994E-002    -1.2145683302026538     
   5.5800000000000002E-002    -1.0222116292720338     
   5.6099999999999997E-002   -0.68050923803642527     
   5.6400000000000006E-002   -0.20740757874768778     
   5.6700000000000000E-002    0.36998995624227077     
   5.6999999999999995E-002    0.99858108321718697     
   5.7300000000000004E-002     1.6206414184634239     
   5.7599999999999998E-002     2.1686336267916744     
   5.7900000000000007E-002     2.5781339707588140     
   5.8200000000000002E-002     2.7943428958712859     
   5.8499999999999996E-002     2.7776245069790932     
   5.8800000000000005E-002     2.5108059916177576     
   5.9100000000000000E-002     1.9986514292549531     
   5.9400000000000008E-002     1.2764903998072197     
   5.9700000000000003E-002    0.39344428031238154     
   6.0000000000000012E-002   -0.57511816908047808     
   6.0300000000000006E-002    -1.5493235090495814     
   6.0600000000000001E-002    -2.4490627427521856     
   6.0900000000000010E-002    -3.1916388382758600     
   6.1200000000000004E-002    -3.7214161083406037     
   6.1500000000000013E-002    -3.9901300501043693     
   6.1800000000000008E-002    -3.9808598594286573     
   6.2100000000000002E-002    -3.7029021921920608     
   6.2399999999999997E-002    -3.1791995891616001     
   6.2700000000000006E-002    -2.4654688027652001     
   6.3000000000000000E-002    -1.6179755415248216     
   6.3300000000000009E-002   -0.70774219451533071     
   6.3600000000000004E-002    0.19391724821773898     
   6.3899999999999998E-002     1.0281252471231310     
   6.4199999999999993E-002     1.7376727433937087     
   6.4500000000000002E-002     2.2889324821878918     
   6.4800000000000010E-002     2.6583215283957995     
   6.5100000000000005E-002     2.8403836729204923     
   6.5400000000000000E-002     2.8439754503365893     
   6.5700000000000008E-002     2.6874095523707604     
   6.5999999999999989E-002     2.3988651467670605     
   6.6299999999999998E-002     2.0100554794731811     
   6.6600000000000006E-002     1.5572788246682641     
   6.6900000000000001E-002     1.0698575664519050     
   6.7199999999999996E-002    0.58224688480754971     
   6.7500000000000004E-002    0.11759602288338480     
   6.7800000000000013E-002   -0.30288283707441888     
   6.8099999999999994E-002   -0.65871546197480169     
   6.8400000000000002E-002   -0.94636860189877925     
   6.8700000000000011E-002    -1.1505847777771625     
   6.8999999999999992E-002    -1.2751425079871836     
   6.9300000000000000E-002    -1.3220130966097168     
   6.9600000000000009E-002    -1.2929393825369317     
   6.9900000000000004E-002    -1.2068782664502335     
   7.0199999999999999E-002    -1.0667874481194264     
   7.0500000000000007E-002   -0.89342138448338337     
   7.0800000000000016E-002   -0.70147822284567340     
   7.1099999999999997E-002   -0.50072358668628547     
   7.1400000000000005E-002   -0.31329237717264591     
   7.1700000000000000E-002   -0.14142849864030310     
   7.1999999999999995E-002     2.1234342270599815E-003
   7.2300000000000003E-002    0.11436298635702927     
   7.2600000000000012E-002    0.19822876857222665     
   7.2900000000000006E-002    0.25232042944617322     
   7.3200000000000001E-002    0.28498207577577528     
   7.3499999999999996E-002    0.29991992378667531     
   7.3800000000000004E-002    0.30406062898328046     
   7.4099999999999999E-002    0.30247657634683117     
   7.4400000000000008E-002    0.29907982722273407     
   7.4700000000000003E-002    0.29492746978816514     
   7.5000000000000011E-002    0.29130273255119776     
   7.5299999999999992E-002    0.28729449920621497     
   7.5600000000000001E-002    0.27817671694696694     
   7.5900000000000009E-002    0.26822190744283514     
   7.6200000000000004E-002    0.24990297149718194     
   7.6499999999999999E-002    0.22789461287456345     
   7.6800000000000007E-002    0.20328205317249340     
   7.7099999999999988E-002    0.17302938853770677     
   7.7399999999999997E-002    0.14870188828204445     
   7.7700000000000005E-002    0.12384097030632892     
   7.8000000000000014E-002    0.10594115954806406     
   7.8299999999999995E-002     9.6044054681890104E-002
   7.8600000000000003E-002     8.7792700056265688E-002
   7.8900000000000012E-002     8.9391140311831208E-002
   7.9199999999999993E-002     8.8956524907961007E-002
   7.9500000000000001E-002     8.8784587460118594E-002
   7.9800000000000010E-002     8.5792508843734391E-002
   8.0100000000000018E-002     7.2490517670118645E-002
   8.0399999999999999E-002     5.5589558069565087E-002
   8.0700000000000008E-002     2.8284698866470295E-002
   8.1000000000000003E-002    -4.8990731318991065E-003
   8.1299999999999997E-002    -4.0595635022890424E-002
   8.1600000000000006E-002    -7.8227130671754297E-002
   8.1900000000000014E-002   -0.11147664917183338     
   8.2199999999999995E-002   -0.13944942838446744     
   8.2500000000000004E-002   -0.15955556456551237     
   8.2799999999999999E-002   -0.17091190311500243     
   8.3100000000000007E-002   -0.17297215250991776     
   8.3400000000000002E-002   -0.16866915949868683     
   8.3700000000000011E-002   -0.15771901170100236     
   8.4000000000000005E-002   -0.14495598878955734     
   8.4300000000000000E-002   -0.13217720057117652     
   8.4599999999999995E-002   -0.11736315161226502     
   8.4900000000000003E-002   -0.10787056117268017     
   8.5199999999999998E-002    -9.5695068113721721E-002
   8.5500000000000007E-002    -8.5000482520689591E-002
   8.5800000000000001E-002    -7.4665983777905870E-002
   8.6100000000000010E-002    -5.8416345610064827E-002
   8.6399999999999991E-002    -4.4041483149012330E-002
   8.6699999999999999E-002    -2.1709183997360916E-002
   8.7000000000000008E-002     1.3404174621401994E-003
   8.7300000000000003E-002     2.4491976076124900E-002
   8.7599999999999997E-002     5.0506199289624548E-002
   8.7900000000000006E-002     6.8124045832699709E-002
   8.8200000000000014E-002     8.4202324038155668E-002
   8.8499999999999995E-002     9.0727519819111563E-002
   8.8800000000000004E-002     8.8697624036727998E-002
   8.9100000000000013E-002     8.0974799807280659E-002
   8.9399999999999993E-002     6.4411928572303448E-002
   8.9700000000000002E-002     4.6246784470035239E-002
   9.0000000000000011E-002     2.4450979694884235E-002
   9.0299999999999991E-002     4.4264554793199320E-003
   9.0600000000000000E-002    -1.2208717781274504E-002
   9.0900000000000009E-002    -2.4113746898617155E-002
   9.1200000000000017E-002    -2.8467038967160390E-002
   9.1499999999999998E-002    -2.8454092017717113E-002
   9.1800000000000007E-002    -2.1962367748303211E-002
   9.2100000000000001E-002    -1.4756742331676731E-002
   9.2399999999999996E-002    -5.0305065507027479E-003
   9.2700000000000005E-002     3.6145521601857449E-003
   9.3000000000000013E-002     9.8015837156396630E-003
   9.3300000000000008E-002     1.6425776728143441E-002
   9.3600000000000003E-002     1.7285223267090168E-002
   9.3899999999999997E-002     1.8858635265431110E-002
   9.4200000000000006E-002     1.8078872460934287E-002
   9.4500000000000001E-002     1.7195043487922713E-002
   9.4800000000000009E-002     2.0064756003479421E-002
   9.5100000000000004E-002     2.1243236216725983E-002
   9.5399999999999999E-002     2.7355297700856564E-002
   9.5699999999999993E-002     3.1169294223422690E-002
   9.6000000000000002E-002     3.3796927472642249E-002
   9.6300000000000011E-002     3.5372248419798934E-002
   9.6600000000000005E-002     3.0765462992341185E-002
   9.6900000000000000E-002     2.3247658052950100E-002
   9.7200000000000009E-002     9.0368530512558790E-003
   9.7499999999999989E-002    -9.1161683132892270E-003
   9.7799999999999998E-002    -3.1469307246857009E-002
   9.8100000000000007E-002    -5.4958256365420864E-002
   9.8400000000000015E-002    -7.6711548066548174E-002
   9.8699999999999996E-002    -9.5536497325533917E-002
   9.9000000000000005E-002   -0.10740368462593132     
   9.9300000000000013E-002   -0.11450940770189554     
   9.9599999999999994E-002   -0.11134236697004263     
   9.9900000000000003E-002   -0.10300496661293548     
  0.10020000000000001         -8.8703004120918846E-002
  0.10049999999999999         -6.8639276486949535E-002
  0.10080000000000000         -5.0776711754139642E-002
  0.10110000000000001         -2.9001313703223678E-002
  0.10140000000000000         -1.2410798380087198E-002
  0.10170000000000000          1.9370643434443681E-003
  0.10200000000000001          1.4324127996831101E-002
  0.10230000000000002          1.9121869282446285E-002
  0.10260000000000000          2.6108495196664309E-002
  0.10290000000000001          2.7826820568915313E-002
  0.10320000000000000          3.0466294950458390E-002
  0.10350000000000001          3.4676916305632556E-002
  0.10380000000000000          3.6086487480028191E-002
  0.10410000000000001          4.1308897654528533E-002
  0.10440000000000001          4.2430060670260512E-002
  0.10470000000000000          4.3488620548708508E-002
  0.10500000000000000          4.2244384807918388E-002
  0.10530000000000000          3.7072970353681123E-002
  0.10560000000000000          3.0499938132596098E-002
  0.10590000000000001          2.0028795579031228E-002
  0.10620000000000000          8.8327984150015325E-003
  0.10650000000000001         -3.4994788007079781E-003
  0.10679999999999999         -1.1929801602347080E-002
  0.10710000000000000         -1.6976308807422982E-002
  0.10740000000000001         -1.5806463355486005E-002
  0.10770000000000000         -7.8645394520634980E-003
  0.10800000000000000          3.2756896816639089E-003
  0.10830000000000001          2.2086489871869720E-002
  0.10859999999999999          4.0138224880341224E-002
  0.10890000000000000          6.1047246729893520E-002
  0.10920000000000001          8.0211704043607973E-002
  0.10950000000000001          9.1827277536723553E-002
  0.10979999999999999         0.10184783172349331     
  0.11009999999999999         0.10079574983883606     
  0.11040000000000001          9.5930379476287769E-002
  0.11070000000000001          8.6339843741339739E-002
  0.11100000000000000          7.0356299634095149E-002
  0.11130000000000000          5.7242049448695348E-002
  0.11160000000000002          4.0284345733875924E-002
  0.11190000000000001          2.7405090123924145E-002
  0.11220000000000001          1.6985222637449959E-002
  0.11250000000000000          6.8745444632681224E-003
  0.11280000000000000          1.6735591172561428E-003
  0.11309999999999999         -4.4709274289962833E-003
  0.11340000000000001         -9.6879076884102029E-003
  0.11369999999999998         -1.5617396199662013E-002
  0.11400000000000000         -2.3426198655317094E-002
  0.11430000000000000         -3.2439931275179988E-002
  0.11460000000000002         -4.1083155673332206E-002
  0.11489999999999999         -4.9392989097914501E-002
  0.11520000000000001         -5.4680245016625495E-002
  0.11550000000000001         -5.4660325595511344E-002
  0.11580000000000000         -5.3187133902700780E-002
  0.11609999999999999         -4.3231872980813907E-002
  0.11640000000000002         -3.1524143022596776E-002
  0.11670000000000001         -1.7038160558690261E-002
  0.11700000000000001          7.5695696153351148E-004
  0.11730000000000000          1.1617735903667995E-002
  0.11760000000000000          2.3970291866232295E-002
  0.11789999999999999          2.7107231823122385E-002
  0.11820000000000001          2.3069007758463149E-002
  0.11850000000000001          1.5867720665520842E-002
  0.11880000000000000         -2.6131454762442774E-003
  0.11910000000000000         -1.8927210379842546E-002
  0.11940000000000002         -3.9334266186627477E-002
  0.11970000000000001         -5.9054078715413308E-002
  0.12000000000000001         -7.2418918038284347E-002
  0.12030000000000000         -8.6184275557721526E-002
  0.12060000000000000         -9.0074148757630534E-002
  0.12089999999999999         -9.0547119231605286E-002
  0.12119999999999999         -8.7075350221960418E-002
  0.12150000000000001         -7.8535092544514476E-002
  0.12180000000000001         -7.1025407042209485E-002
  0.12210000000000000         -6.1772933559237610E-002
  0.12239999999999999         -5.3708108719748203E-002
  0.12270000000000002         -4.6641371066736478E-002
  0.12300000000000001         -3.9937096590934557E-002
  0.12330000000000001         -3.2866637205500586E-002
  0.12360000000000000         -2.5790809883746747E-002
  0.12390000000000000         -1.5945301819437513E-002
  0.12419999999999999         -4.1197172738154245E-003
  0.12450000000000001          7.2978460530057753E-003
  0.12480000000000001          2.2553596020358231E-002
  0.12509999999999999          3.3682076693822442E-002
  0.12540000000000001          4.4303031687275028E-002
  0.12570000000000003          5.1032805676516420E-002
  0.12600000000000000          4.8611008954591806E-002
  0.12630000000000002          4.3539526028779300E-002
  0.12659999999999999          2.7676940256629732E-002
  0.12690000000000001          8.8737617437691600E-003
  0.12719999999999998         -1.2500261655712958E-002
  0.12750000000000000         -3.8059561692937852E-002
  0.12780000000000002         -5.7460484911786597E-002
  0.12809999999999999         -7.6538016502455342E-002
  0.12840000000000001         -8.7517795074232324E-002
  0.12869999999999998         -9.0395618844871156E-002
  0.12900000000000000         -8.7552358484145734E-002
  0.12930000000000003         -7.5095181681903947E-002
  0.12959999999999999         -5.9178901972064428E-002
  0.12990000000000002         -3.9214248652784417E-002
  0.13019999999999998         -1.8015855559525746E-002
  0.13050000000000000          2.9823290474671324E-003
  0.13080000000000003          2.2694879232487135E-002
  0.13109999999999999          4.1316850643238888E-002
  0.13140000000000002          5.8244964298697910E-002
  0.13169999999999998          7.2667633826264649E-002
  0.13200000000000001          8.8341800128306808E-002
  0.13229999999999997         0.10061176584651021     
  0.13260000000000000         0.11537413742081933     
  0.13290000000000002         0.12896325844132378     
  0.13319999999999999         0.13924158702235581     
  0.13350000000000001         0.15038869873605790     
  0.13380000000000003         0.15214360786980688     
  0.13410000000000000         0.15187175129915337     
  0.13440000000000002         0.14422076530209238     
  0.13469999999999999         0.12807479104817510     
  0.13500000000000001         0.11115567105905164     
  0.13529999999999998          8.4963349125130455E-002
  0.13560000000000000          6.0810072944433656E-002
  0.13590000000000002          3.7174701389193231E-002
  0.13619999999999999          1.4331471332721266E-002
  0.13650000000000001          6.8813732412856016E-004
  0.13680000000000003         -9.7675583392028403E-003
  0.13710000000000000         -1.1255123507671078E-002
  0.13740000000000002         -7.0776739606867416E-003
  0.13769999999999999         -5.9810758163902100E-006
  0.13800000000000001          1.1468052766725422E-002
  0.13829999999999998          2.1967257694068213E-002
  0.13860000000000000          3.0601267544039926E-002
  0.13890000000000002          3.6992746060440437E-002
  0.13919999999999999          3.9077928778622262E-002
  0.13950000000000001          3.6752393931019374E-002
  0.13979999999999998          3.3471523714549756E-002
  0.14010000000000000          2.5806493175200909E-002
  0.14040000000000002          1.8360282665272395E-002
  0.14069999999999999          1.2291435036575137E-002
  0.14100000000000001          4.1013478050570739E-003
  0.14130000000000004          1.3094501314780355E-003
  0.14160000000000000         -4.8502925202400628E-003
  0.14189999999999997         -9.9979796148880716E-003
  0.14219999999999999         -1.4554801787324587E-002
  0.14250000000000002         -2.5902593200887471E-002
  0.14279999999999998         -3.4216086229260888E-002
  0.14310000000000000         -4.8727347133472702E-002
  0.14339999999999997         -6.3815644118411910E-002
  0.14369999999999999         -7.6763440975977690E-002
  0.14400000000000002         -9.3192731107753932E-002
  0.14429999999999998        -0.10146000628035347     
  0.14460000000000001        -0.10832108199160995     
  0.14490000000000003        -0.10913518466625820     
  0.14520000000000000        -0.10240783937952436     
  0.14550000000000002         -9.3967442426611911E-002
  0.14579999999999999         -7.9098572456775526E-002
  0.14610000000000001         -6.3979944409807227E-002
  0.14640000000000003         -4.9465558436089546E-002
  0.14670000000000000         -3.6732613455575040E-002
  0.14699999999999996         -2.8651278278432803E-002
  0.14729999999999999         -2.5008916802923560E-002
  0.14760000000000001         -2.5925701305083766E-002
  0.14789999999999998         -3.1645357142812393E-002
  0.14820000000000000         -4.1297781481193549E-002