  -1.4999999999999999E-002     0.0000000000000000     
  -1.4700000000000000E-002     0.0000000000000000     
  -1.4400000000000000E-002     0.0000000000000000     
  -1.4100000000000000E-002     0.0000000000000000     
  -1.3800000000000000E-002     0.0000000000000000     
  -1.3500000000000000E-002     0.0000000000000000     
  -1.3200000000000000E-002     0.0000000000000000     
  -1.2899999999999998E-002     0.0000000000000000     
  -1.2600000000000000E-002     0.0000000000000000     
  -1.2299999999999998E-002     0.0000000000000000     
  -1.2000000000000000E-002     0.0000000000000000     
  -1.1699999999999999E-002     0.0000000000000000     
  -1.1399999999999999E-002     0.0000000000000000     
  -1.1099999999999999E-002     0.0000000000000000     
  -1.0799999999999999E-002     0.0000000000000000     
  -1.0499999999999999E-002     0.0000000000000000     
  -1.0199999999999999E-002     0.0000000000000000     
  -9.8999999999999991E-003     0.0000000000000000     
  -9.5999999999999992E-003     0.0000000000000000     
  -9.2999999999999992E-003     0.0000000000000000     
  -8.9999999999999993E-003     0.0000000000000000     
  -8.6999999999999994E-003     0.0000000000000000     
  -8.3999999999999995E-003     0.0000000000000000     
  -8.0999999999999996E-003     0.0000000000000000     
  -7.7999999999999988E-003     0.0000000000000000     
  -7.4999999999999997E-003     0.0000000000000000     
  -7.1999999999999998E-003     0.0000000000000000     
  -6.8999999999999981E-003     0.0000000000000000     
  -6.5999999999999982E-003     0.0000000000000000     
  -6.3000000000000000E-003     0.0000000000000000     
  -6.0000000000000001E-003     0.0000000000000000     
  -5.6999999999999985E-003     0.0000000000000000     
  -5.3999999999999986E-003     0.0000000000000000     
  -5.1000000000000004E-003     0.0000000000000000     
  -4.7999999999999987E-003     0.0000000000000000     
  -4.5000000000000005E-003     0.0000000000000000     
  -4.1999999999999989E-003     0.0000000000000000     
  -3.8999999999999990E-003     0.0000000000000000     
  -3.5999999999999990E-003     0.0000000000000000     
  -3.2999999999999991E-003     0.0000000000000000     
  -2.9999999999999992E-003     0.0000000000000000     
  -2.6999999999999993E-003     0.0000000000000000     
  -2.3999999999999994E-003     0.0000000000000000     
  -2.0999999999999977E-003     0.0000000000000000     
  -1.7999999999999995E-003     0.0000000000000000     
  -1.4999999999999979E-003     0.0000000000000000     
  -1.1999999999999997E-003     0.0000000000000000     
  -8.9999999999999976E-004     0.0000000000000000     
  -5.9999999999999810E-004     0.0000000000000000     
  -2.9999999999999992E-004     0.0000000000000000     
   0.0000000000000000          0.0000000000000000     
   3.0000000000000165E-004     0.0000000000000000     
   5.9999999999999984E-004     0.0000000000000000     
   9.0000000000000149E-004     0.0000000000000000     
   1.2000000000000031E-003     0.0000000000000000     
   1.5000000000000013E-003     0.0000000000000000     
   1.8000000000000030E-003     0.0000000000000000     
   2.1000000000000012E-003     0.0000000000000000     
   2.3999999999999994E-003     0.0000000000000000     
   2.7000000000000010E-003     0.0000000000000000     
   2.9999999999999992E-003     0.0000000000000000     
   3.3000000000000008E-003     0.0000000000000000     
   3.6000000000000025E-003     0.0000000000000000     
   3.9000000000000007E-003     0.0000000000000000     
   4.2000000000000023E-003     0.0000000000000000     
   4.5000000000000005E-003     0.0000000000000000     
   4.7999999999999987E-003     0.0000000000000000     
   5.1000000000000004E-003     0.0000000000000000     
   5.4000000000000020E-003     0.0000000000000000     
   5.7000000000000037E-003     0.0000000000000000     
   5.9999999999999984E-003     0.0000000000000000     
   6.3000000000000000E-003     0.0000000000000000     
   6.6000000000000017E-003     0.0000000000000000     
   6.9000000000000034E-003     0.0000000000000000     
   7.2000000000000015E-003     0.0000000000000000     
   7.5000000000000032E-003     0.0000000000000000     
   7.8000000000000014E-003     0.0000000000000000     
   8.0999999999999996E-003     0.0000000000000000     
   8.4000000000000012E-003     0.0000000000000000     
   8.7000000000000029E-003     0.0000000000000000     
   9.0000000000000011E-003     0.0000000000000000     
   9.2999999999999992E-003     0.0000000000000000     
   9.6000000000000009E-003     7.3525094364146905E-044
   9.8999999999999991E-003    -2.5763547208313535E-041
   1.0200000000000001E-002    -4.8819302661977040E-038
   1.0500000000000002E-002     2.1940444758581125E-036
   1.0800000000000004E-002    -1.1268854240046005E-035
   1.1099999999999999E-002    -1.1205915266525719E-034
   1.1400000000000000E-002     1.1921017562209963E-033
   1.1700000000000002E-002     2.9475408575793707E-033
   1.2000000000000004E-002    -6.7848687010988909E-032
   1.2300000000000002E-002     1.4718595761507955E-031
   1.2600000000000000E-002     1.9226317297843549E-030
   1.2900000000000002E-002    -1.3244286454954921E-029
   1.3200000000000000E-002     4.2838105583469485E-030
   1.3500000000000002E-002     3.1630055963831445E-028
   1.3800000000000003E-002    -1.5795704284734991E-027
   1.4100000000000001E-002     1.2722285221228589E-027
   1.4400000000000000E-002     2.1075524258036519E-026
   1.4700000000000001E-002    -1.1757587498917988E-025
   1.4999999999999999E-002     2.6623313595984607E-025
   1.5300000000000001E-002     1.2164987730359869E-025
   1.5600000000000003E-002    -3.0092320341594860E-024
   1.5899999999999997E-002     1.1124504053411821E-023
   1.6199999999999999E-002    -2.3835302411991837E-023
   1.6500000000000001E-002     4.5544780377840572E-023
   1.6800000000000002E-002    -2.0535822100925997E-022
   1.7100000000000004E-002     1.2992361395131796E-021
   1.7400000000000006E-002    -6.4053619162275797E-021
   1.7700000000000000E-002     2.4394152813605403E-020
   1.8000000000000002E-002    -7.5027389502481337E-020
   1.8300000000000004E-002     1.8905952921452700E-019
   1.8600000000000005E-002    -3.7216157612452139E-019
   1.8900000000000000E-002     4.2772019568484087E-019
   1.9200000000000002E-002     5.3292874771117930E-019
   1.9500000000000003E-002    -3.8029620228104745E-018
   1.9799999999999998E-002    -4.1784982117833278E-018
   2.0100000000000000E-002     1.8237301793816366E-016
   2.0400000000000001E-002    -1.6246709823455788E-015
   2.0700000000000003E-002     1.0184043792177423E-014
   2.0999999999999998E-002    -5.1427816147907889E-014
   2.1299999999999999E-002     2.1493040626793232E-013
   2.1600000000000001E-002    -7.2918799231256497E-013
   2.1900000000000003E-002     1.8538307046957852E-012
   2.2200000000000004E-002    -2.5353177316856772E-012
   2.2500000000000006E-002    -4.5392522725279079E-012
   2.2800000000000001E-002     4.0210264809976005E-011
   2.3100000000000002E-002    -1.2127359187231145E-010
   2.3400000000000004E-002     1.4306326598180227E-010
   2.3699999999999999E-002     3.1457533165060530E-010
   2.4000000000000000E-002    -1.6005965660699386E-009
   2.4300000000000002E-002     1.8645882431787679E-009
   2.4599999999999997E-002     4.2375427245087481E-009
   2.4900000000000005E-002    -1.4115882166372191E-008
   2.5200000000000000E-002    -2.2860833877205103E-009
   2.5499999999999995E-002     5.5484697414268498E-008
   2.5800000000000003E-002    -1.6436271841347900E-008
   2.6099999999999998E-002    -1.9727319597775437E-007
   2.6400000000000007E-002    -6.7691085174922453E-010
   2.6700000000000002E-002     5.6806941475056386E-007
   2.6999999999999996E-002     3.1939745061091804E-007
   2.7300000000000005E-002    -1.2400176241436288E-006
   2.7600000000000000E-002    -1.6573872237569907E-006
   2.7900000000000008E-002     2.3231788756005309E-006
   2.8200000000000003E-002     9.7337324641579840E-006
   2.8499999999999998E-002     1.5596379655406909E-005
   2.8800000000000006E-002     1.8539647918177409E-005
   2.9100000000000001E-002     2.5628335785622797E-005
   2.9400000000000003E-002     4.5945542382759875E-005
   2.9700000000000004E-002     8.1039298248370656E-005
   3.0000000000000006E-002     1.2692118440155734E-004
   3.0300000000000001E-002     1.8683691822408941E-004
   3.0600000000000002E-002     2.7765860410257863E-004
   3.0900000000000004E-002     4.2076224799569492E-004
   3.1199999999999999E-002     6.3132690764750574E-004
   3.1500000000000007E-002     9.2330328195639648E-004
   3.1800000000000002E-002     1.3244230929235284E-003
   3.2099999999999997E-002     1.8806231947353100E-003
   3.2400000000000005E-002     2.6445619860229874E-003
   3.2700000000000000E-002     3.6665319902047157E-003
   3.3000000000000002E-002     5.0016611367206141E-003
   3.3300000000000003E-002     6.7209905859154520E-003
   3.3599999999999998E-002     8.9067873867409823E-003
   3.3900000000000000E-002     1.1635548681467753E-002
   3.4200000000000001E-002     1.4967192065087762E-002
   3.4500000000000003E-002     1.8945526338367435E-002
   3.4799999999999998E-002     2.3595795532899547E-002
   3.5099999999999999E-002     2.8907233697488488E-002
   3.5400000000000001E-002     3.4809599796468457E-002
   3.5699999999999996E-002     4.1159242215648519E-002
   3.6000000000000004E-002     4.7737575258567880E-002
   3.6299999999999999E-002     5.4247286503239039E-002
   3.6600000000000008E-002     6.0304894229013375E-002
   3.6900000000000002E-002     6.5439051114078620E-002
   3.7199999999999997E-002     6.9107415928679750E-002
   3.7500000000000006E-002     7.0731361654617506E-002
   3.7800000000000000E-002     6.9733664461586076E-002
   3.8100000000000009E-002     6.5584826305383315E-002
   3.8400000000000004E-002     5.7842514562863295E-002
   3.8699999999999998E-002     4.6213429103987562E-002
   3.9000000000000007E-002     3.0621428960466934E-002
   3.9300000000000002E-002     1.1242887358793599E-002
   3.9600000000000003E-002    -1.1452983164156907E-002
   3.9900000000000005E-002    -3.6712374289848110E-002
   4.0200000000000000E-002    -6.3509997592243628E-002
   4.0500000000000001E-002    -9.0567854635195649E-002
   4.0800000000000003E-002   -0.11643920477086742     
   4.1100000000000005E-002   -0.13960604964322629     
   4.1399999999999999E-002   -0.15859391719568788     
   4.1700000000000008E-002   -0.17209393190500483     
   4.2000000000000003E-002   -0.17906889107920532     
   4.2299999999999997E-002   -0.17885704525602292     
   4.2600000000000006E-002   -0.17125417526810011     
   4.2900000000000001E-002   -0.15656187585133849     
   4.3200000000000002E-002   -0.13559524710634940     
   4.3500000000000004E-002   -0.10962519761309912     
   4.3799999999999999E-002    -8.0289441367067060E-002
   4.4100000000000000E-002    -4.9507337071980545E-002
   4.4400000000000002E-002    -1.9344450035760588E-002
   4.4700000000000004E-002     8.1424236379008808E-003
   4.4999999999999998E-002     3.1080987542217428E-002
   4.5300000000000000E-002     4.7867786105847000E-002
   4.5600000000000002E-002     5.7279597778700883E-002
   4.5899999999999996E-002     5.8596052356150327E-002
   4.6200000000000005E-002     5.1579542446007015E-002
   4.6500000000000000E-002     3.6498716089025898E-002
   4.6799999999999994E-002     1.4139027320634694E-002
   4.7100000000000003E-002    -1.4288152534885195E-002
   4.7399999999999998E-002    -4.7191150672632284E-002
   4.7700000000000006E-002    -8.2700221599658105E-002
   4.8000000000000001E-002   -0.11878778060663742     
   4.8300000000000010E-002   -0.15331721124446002     
   4.8600000000000004E-002   -0.18418483159096949     
   4.8899999999999999E-002   -0.20941877188366825     
   4.9200000000000008E-002   -0.22724265641318975     
   4.9500000000000002E-002   -0.23622696708347862     
   4.9800000000000011E-002   -0.23533813009277066     
   5.0100000000000006E-002   -0.22400162564682696     
   5.0400000000000000E-002   -0.20216249436701106     
   5.0700000000000009E-002   -0.17027037549428614     
   5.1000000000000004E-002   -0.12930777634022900     
   5.1299999999999998E-002    -8.0734307570941410E-002
   5.1600000000000007E-002    -2.6385881947342843E-002
   5.1900000000000002E-002     3.1610301222456796E-002
   5.2200000000000010E-002     9.0974439949353669E-002
   5.2500000000000005E-002    0.14940683342048955     
   5.2800000000000000E-002    0.20471989533659482     
   5.3099999999999994E-002    0.25500329126298715     
   5.3400000000000003E-002    0.29868524163037025     
   5.3699999999999998E-002    0.33460561624592733     
   5.4000000000000006E-002    0.36208657577270142     
   5.4300000000000001E-002    0.38088266620942646     
   5.4599999999999996E-002    0.39117801946060049     
   5.4900000000000004E-002    0.39351111601233474     
   5.5199999999999999E-002    0.38864937449227038     
   5.5499999999999994E-002    0.37754284411503958     
   5.5800000000000002E-002    0.36123059067149704     
   5.6099999999999997E-002    0.34074168934566307     
   5.6400000000000006E-002    0.31701191389149075     
   5.6700000000000000E-002    0.29082100300675373     
   5.6999999999999995E-002    0.26282829594541451     
   5.7300000000000004E-002    0.23356612641361718     
   5.7599999999999998E-002    0.20339425720063001     
   5.7900000000000007E-002    0.17252742755982059     
   5.8200000000000002E-002    0.14110967458603796     
   5.8499999999999996E-002    0.10927553786727708     
   5.8800000000000005E-002     7.7170548335098677E-002
   5.9100000000000000E-002     4.4986916592138576E-002
   5.9400000000000008E-002     1.3020100313188183E-002
   5.9700000000000003E-002    -1.8283165233091189E-002
   6.0000000000000012E-002    -4.8306738567914793E-002
   6.0300000000000006E-002    -7.6283587177702200E-002
   6.0600000000000001E-002   -0.10132469154812754     
   6.0900000000000010E-002   -0.12241511070417757     
   6.1200000000000004E-002   -0.13851245801045653     
   6.1500000000000013E-002   -0.14865399158585868     
   6.1800000000000008E-002   -0.15204358171597449     
   6.2100000000000002E-002   -0.14820221582773116     
   6.2399999999999997E-002   -0.13702241451000330     
   6.2700000000000006E-002   -0.11885216131413867     
   6.3000000000000000E-002    -9.4602746548026667E-002
   6.3300000000000009E-002    -6.5686053505192202E-002
   6.3600000000000004E-002    -3.4003856710209161E-002
   6.3899999999999998E-002    -1.8076238099795192E-003
   6.4199999999999993E-002     2.8471807784302132E-002
   6.4500000000000002E-002     5.4310847768774310E-002
   6.4800000000000010E-002     7.3388206950439044E-002
   6.5100000000000005E-002     8.3805874800487845E-002
   6.5400000000000000E-002     8.4177977698354847E-002
   6.5700000000000008E-002     7.3841977547725132E-002
   6.5999999999999989E-002     5.2912271144762359E-002
   6.6299999999999998E-002     2.2249192885035254E-002
   6.6600000000000006E-002    -1.6531262482529591E-002
   6.6900000000000001E-002    -6.1202241517961720E-002
   6.7199999999999996E-002   -0.10904703930560414     
   6.7500000000000004E-002   -0.15704498028537933     
   6.7800000000000013E-002   -0.20219232440935875     
   6.8099999999999994E-002   -0.24157519503713271     
   6.8400000000000002E-002   -0.27255237731665494     
   6.8700000000000011E-002   -0.29297345815339954     
   6.8999999999999992E-002   -0.30125765487846812     
   6.9300000000000000E-002   -0.29652733534900577     
   6.9600000000000009E-002   -0.27859478315548852     
   6.9900000000000004E-002   -0.24795749104253256     
   7.0199999999999999E-002   -0.20582712678557724     
   7.0500000000000007E-002   -0.15404675871922532     
   7.0800000000000016E-002    -9.4991077528074938E-002
   7.1099999999999997E-002    -3.1440339263000085E-002
   7.1400000000000005E-002     3.3576425704848374E-002
   7.1700000000000000E-002     9.6889523200467675E-002
   7.1999999999999995E-002    0.15536389707068443     
   7.2300000000000003E-002    0.20609378066782619     
   7.2600000000000012E-002    0.24654412119988939     
   7.2900000000000006E-002    0.27467504625689110     
   7.3200000000000001E-002    0.28905214238699473     
   7.3499999999999996E-002    0.28885169669194949     
   7.3800000000000004E-002    0.27385005877871682     
   7.4099999999999999E-002    0.24441824155507752     
   7.4400000000000008E-002    0.20144520537987270     
   7.4700000000000003E-002    0.14624145307901246     
   7.5000000000000011E-002     8.0426300496282438E-002
   7.5299999999999992E-002     5.7832279441843628E-003
   7.5600000000000001E-002    -7.5834669754213893E-002
   7.5900000000000009E-002   -0.16247130401163545     
   7.6200000000000004E-002   -0.25210133521979772     
   7.6499999999999999E-002   -0.34264464030049846     
   7.6800000000000007E-002   -0.43194592314422842     
   7.7099999999999988E-002   -0.51773814617282832     
   7.7399999999999997E-002   -0.59751661392739630     
   7.7700000000000005E-002   -0.66856640057694094     
   7.8000000000000014E-002   -0.72802862132465873     
   7.8299999999999995E-002   -0.77300920834196363     
   7.8600000000000003E-002   -0.80069916522407614     
   7.8900000000000012E-002   -0.80850197112700362     
   7.9199999999999993E-002   -0.79425451805971914     
   7.9500000000000001E-002   -0.75647460645964726     
   7.9800000000000010E-002   -0.69463362724115330     
   8.0100000000000018E-002   -0.60929787549876513     
   8.0399999999999999E-002   -0.50209928365608336     
   8.0700000000000008E-002   -0.37575872284758777     
   8.1000000000000003E-002   -0.23407975678995779     
   8.1299999999999997E-002    -8.1763376483329181E-002
   8.1600000000000006E-002     7.5864357997151632E-002
   8.1900000000000014E-002    0.23317272902038833     
   8.2199999999999995E-002    0.38459579720540699     
   8.2500000000000004E-002    0.52492649149192916     
   8.2799999999999999E-002    0.64952395300673471     
   8.3100000000000007E-002    0.75455537744693102     
   8.3400000000000002E-002    0.83714085169043517     
   8.3700000000000011E-002    0.89540863805549920     
   8.4000000000000005E-002    0.92843662790972092     
   8.4300000000000000E-002    0.93615824274942150     
   8.4599999999999995E-002    0.91923777863723055     
   8.4900000000000003E-002    0.87903015173501864     
   8.5199999999999998E-002    0.81747850732715110     
   8.5500000000000007E-002    0.73700177279638635     
   8.5800000000000001E-002    0.64048553975911882     
   8.6100000000000010E-002    0.53131801101581810     
   8.6399999999999991E-002    0.41350337269183812     
   8.6699999999999999E-002    0.29154236979538811     
   8.7000000000000008E-002    0.17026753412938184     
   8.7300000000000003E-002     5.4887023801933874E-002
   8.7599999999999997E-002    -4.9222733218992072E-002
   8.7900000000000006E-002   -0.13693226865161420     
   8.8200000000000014E-002   -0.20374002216278658     
   8.8499999999999995E-002   -0.24623606939606413     
   8.8800000000000004E-002   -0.26250246303137392     
   8.9100000000000013E-002   -0.25233210102664988     
   8.9399999999999993E-002   -0.21755258954818521     
   8.9700000000000002E-002   -0.16214111774114412     
   9.0000000000000011E-002    -9.2018124934457393E-002
   9.0299999999999991E-002    -1.4719601707767899E-002
   9.0600000000000000E-002     6.1291418173646667E-002
   9.0900000000000009E-002    0.12726917724206133     
   9.1200000000000017E-002    0.17488934258398689     
   9.1499999999999998E-002    0.19725356053546347     
   9.1800000000000007E-002    0.18954027363294490     
   9.2100000000000001E-002    0.14953767706405080     
   9.2399999999999996E-002     7.8164220872261478E-002
   9.2700000000000005E-002    -2.0512881973799163E-002
   9.3000000000000013E-002   -0.13956244309547347     
   9.3300000000000008E-002   -0.26967666057952838     
   9.3600000000000003E-002   -0.39988961965557135     
   9.3899999999999997E-002   -0.51844087737246392     
   9.4200000000000006E-002   -0.61382657608647662     
   9.4500000000000001E-002   -0.67581845800393414     
   9.4800000000000009E-002   -0.69634214352193036     
   9.5100000000000004E-002   -0.67020878598157507     
   9.5399999999999999E-002   -0.59555142565938224     
   9.5699999999999993E-002   -0.47399383318791855     
   9.6000000000000002E-002   -0.31067033878548522     
   9.6300000000000011E-002   -0.11396420667584697     
   9.6600000000000005E-002    0.10509151356910038     
   9.6900000000000000E-002    0.33362539939069141     
   9.7200000000000009E-002    0.55764116556866239     
   9.7499999999999989E-002    0.76277286070374306     
   9.7799999999999998E-002    0.93521748864847387     
   9.8100000000000007E-002     1.0625419453227498     
   9.8400000000000015E-002     1.1344826121500180     
   9.8699999999999996E-002     1.1435839359937197     
   9.9000000000000005E-002     1.0855005015698078     
   9.9300000000000013E-002    0.95948039884410319     
   9.9599999999999994E-002    0.76855295268489210     
   9.9900000000000003E-002    0.51945251832579420     
  0.10020000000000001         0.22242411486192759     
  0.10049999999999999        -0.10932188493172273     
  0.10080000000000000        -0.46011834333988993     
  0.10110000000000001        -0.81254769577343122     
  0.10140000000000000         -1.1485801606886283     
  0.10170000000000000         -1.4504594263811759     
  0.10200000000000001         -1.7015701829410999     
  0.10230000000000002         -1.8875934250399422     
  0.10260000000000000         -1.9971429465562993     
  0.10290000000000001         -2.0223597433431735     
  0.10320000000000000         -1.9593960971102997     
  0.10350000000000001         -1.8085208057365461     
  0.10380000000000000         -1.5740922323817590     
  0.10410000000000001         -1.2641423764861286     
  0.10440000000000001        -0.88982834044310199     
  0.10470000000000000        -0.46503292155689224     
  0.10500000000000000         -5.6106001873398662E-003
  0.10530000000000000         0.47148123859424029     
  0.10560000000000000         0.94872351899741814     
  0.10590000000000001          1.4087877742740189     
  0.10620000000000000          1.8351228103391253     
  0.10650000000000001          2.2124424582087574     
  0.10679999999999999          2.5271964917437257     
  0.10710000000000000          2.7680111421193039     
  0.10740000000000001          2.9260187646420501     
  0.10770000000000000          2.9949454336830472     
  0.10800000000000000          2.9713680043435513     
  0.10830000000000001          2.8549678448500853     
  0.10859999999999999          2.6483424321079490     
  0.10890000000000000          2.3567993867602088     
  0.10920000000000001          1.9883489174301534     
  0.10950000000000001          1.5534776441463611     
  0.10979999999999999          1.0646647332921821     
  0.11009999999999999         0.53574007000576407     
  0.11040000000000001         -1.8357924350478963E-002
  0.11070000000000001        -0.58203806796953805     
  0.11100000000000000         -1.1397962060030491     
  0.11130000000000000         -1.6764922422291431     
  0.11160000000000002         -2.1776835676641753     
  0.11190000000000001         -2.6299469351194089     
  0.11220000000000001         -3.0210395043290732     
  0.11250000000000000         -3.3401951400628280     
  0.11280000000000000         -3.5779212109941314     
  0.11309999999999999         -3.7260281655379277     
  0.11340000000000001         -3.7778805944161418     
  0.11369999999999998         -3.7283963561133033     
  0.11400000000000000         -3.5743800425176016     
  0.11430000000000000         -3.3147849422774534     
  0.11460000000000002         -2.9508843758079268     
  0.11489999999999999         -2.4870545542794997     
  0.11520000000000001         -1.9312539865728224     
  0.11550000000000001         -1.2952464092936713     
  0.11580000000000000        -0.59512580962393768     
  0.11609999999999999         0.14887984679663818     
  0.11640000000000002         0.91259888220541130     
  0.11670000000000001          1.6684174269534966     
  0.11700000000000001          2.3865830436408766     
  0.11730000000000000          3.0363401820398268     
  0.11760000000000000          3.5874377372166841     
  0.11789999999999999          4.0122436836769637     
  0.11820000000000001          4.2874053501962992     
  0.11850000000000001          4.3954413043589025     
  0.11880000000000000          4.3262842433905835     
  0.11910000000000000          4.0781107158409347     
  0.11940000000000002          3.6580148800926349     
  0.11970000000000001          3.0818911742879211     
  0.12000000000000001          2.3736119523657653     
  0.12030000000000000          1.5642007430658174     
  0.12060000000000000         0.69020380845240137     
  0.12089999999999999        -0.20837181915201558     
  0.12119999999999999         -1.0897761716044079     
  0.12150000000000001         -1.9128263481525711     
  0.12180000000000001         -2.6392047310644178     
  0.12210000000000000         -3.2347849550399133     
  0.12239999999999999         -3.6716054095809607     
  0.12270000000000002         -3.9294850276494646     
  0.12300000000000001         -3.9966979198573505     
  0.12330000000000001         -3.8707293996903802     
  0.12360000000000000         -3.5584550574106446     
  0.12390000000000000         -3.0759300437087416     
  0.12419999999999999         -2.4480941486790684     
  0.12450000000000001         -1.7072548600310353     
  0.12480000000000001        -0.89150120035018388     
  0.12509999999999999         -4.3191164665884518E-002
  0.12540000000000001         0.79361901506177723     
  0.12570000000000003          1.5754597717896122     
  0.12600000000000000          2.2617454008492341     
  0.12630000000000002          2.8178011821760784     
  0.12659999999999999          3.2165692318218753     
  0.12690000000000001          3.4399836053587052     
  0.12719999999999998          3.4806601181602068     
  0.12750000000000000          3.3420591692553128     
  0.12780000000000002          3.0380240149284621     
  0.12809999999999999          2.5917595075104365     
  0.12840000000000001          2.0336060446722870     
  0.12869999999999998          1.3991994141437609     
  0.12900000000000000         0.72720197894626937     
  0.12930000000000003          5.5871830671908290E-002
  0.12959999999999999        -0.57932764472367759     
  0.12990000000000002         -1.1475954916245727     
  0.13019999999999998         -1.6246301896170117     
  0.13050000000000000         -1.9933285692273084     
  0.13080000000000003         -2.2445336497383552     
  0.13109999999999999         -2.3768736025511696     
  0.13140000000000002         -2.3954324592747049     
  0.13169999999999998         -2.3108646637073478     
  0.13200000000000001         -2.1381575309225900     
  0.13229999999999997         -1.8949990071211369     
  0.13260000000000000         -1.6007585166485043     
  0.13290000000000002         -1.2749562747817356     
  0.13319999999999999        -0.93619602368874100     
  0.13350000000000001        -0.60196142800934760     
  0.13380000000000003        -0.28772578359054130     
  0.13410000000000000         -6.5241107219198846E-003
  0.13440000000000002         0.23123773467322917     
  0.13469999999999999         0.41837823702252991     
  0.13500000000000001         0.55093532513804555     
  0.13529999999999998         0.62809908423452088     
  0.13560000000000000         0.65300264086370619     
  0.13590000000000002         0.63241911534257222     
  0.13619999999999999         0.57621929130962646     
  0.13650000000000001         0.49711871365683513     
  0.13680000000000003         0.40956448521926064     
  0.13710000000000000         0.32888448380357749     
  0.13740000000000002         0.27007441250633463     
  0.13769999999999999         0.24592207669164856     
  0.13800000000000001         0.26584820606631510     
  0.13829999999999998         0.33490337101938900     
  0.13860000000000000         0.45261853364322513     
  0.13890000000000002         0.61305001019102479     
  0.13919999999999999         0.80496453780643240     
  0.13950000000000001          1.0120251722521090     
  0.13979999999999998          1.2145216904686498     
  0.14010000000000000          1.3910446965355776     
  0.14040000000000002          1.5202544307895729     
  0.14069999999999999          1.5830397753193410     
  0.14100000000000001          1.5640074251684493     
  0.14130000000000004          1.4532419559723539     
  0.14160000000000000          1.2479506436217143     
  0.14189999999999997         0.95259982581463287     
  0.14219999999999999         0.57890210989958990     
  0.14250000000000002         0.14563578934489163     
  0.14279999999999998        -0.32281049019551816     
  0.14310000000000000        -0.79773058913103490     
  0.14339999999999997         -1.2481137282897254     
  0.14369999999999999         -1.6435532770415258     
  0.14400000000000002         -1.9560097472881521     
  0.14429999999999998         -2.1619344499093613     
  0.14460000000000001         -2.2446572735415318     
  0.14490000000000003         -2.1958546694185066     
  0.14520000000000000         -2.0166934816757607     
  0.14550000000000002         -1.7180175006822365     
  0.14579999999999999         -1.3196199677323119     
  0.14610000000000001        -0.84956513913519638     
  0.14640000000000003        -0.34206964650425087     
  0.14670000000000000         0.16551943286347123     
  0.14699999999999996         0.63514594809991565     
  0.14729999999999999          1.0312013327886713     
  0.14760000000000001          1.3239154780930653     
  0.14789999999999998          1.4917282492312736     
  0.14820000000000000          1.5232259109877395     