  -1.4999999999999999E-002     0.0000000000000000     
  -1.4700000000000000E-002     0.0000000000000000     
  -1.4400000000000000E-002     0.0000000000000000     
  -1.4100000000000000E-002     0.0000000000000000     
  -1.3800000000000000E-002     0.0000000000000000     
  -1.3500000000000000E-002     0.0000000000000000     
  -1.3200000000000000E-002     0.0000000000000000     
  -1.2899999999999998E-002     0.0000000000000000     
  -1.2600000000000000E-002     0.0000000000000000     
  -1.2299999999999998E-002     0.0000000000000000     
  -1.2000000000000000E-002     0.0000000000000000     
  -1.1699999999999999E-002     0.0000000000000000     
  -1.1399999999999999E-002     0.0000000000000000     
  -1.1099999999999999E-002     0.0000000000000000     
  -1.0799999999999999E-002     0.0000000000000000     
  -1.0499999999999999E-002     0.0000000000000000     
  -1.0199999999999999E-002     0.0000000000000000     
  -9.8999999999999991E-003     0.0000000000000000     
  -9.5999999999999992E-003     0.0000000000000000     
  -9.2999999999999992E-003     0.0000000000000000     
  -8.9999999999999993E-003     0.0000000000000000     
  -8.6999999999999994E-003     0.0000000000000000     
  -8.3999999999999995E-003     0.0000000000000000     
  -8.0999999999999996E-003     0.0000000000000000     
  -7.7999999999999988E-003     0.0000000000000000     
  -7.4999999999999997E-003     0.0000000000000000     
  -7.1999999999999998E-003     0.0000000000000000     
  -6.8999999999999981E-003     0.0000000000000000     
  -6.5999999999999982E-003     0.0000000000000000     
  -6.3000000000000000E-003     0.0000000000000000     
  -6.0000000000000001E-003     0.0000000000000000     
  -5.6999999999999985E-003     0.0000000000000000     
  -5.3999999999999986E-003     0.0000000000000000     
  -5.1000000000000004E-003     0.0000000000000000     
  -4.7999999999999987E-003     0.0000000000000000     
  -4.5000000000000005E-003     0.0000000000000000     
  -4.1999999999999989E-003     0.0000000000000000     
  -3.8999999999999990E-003     0.0000000000000000     
  -3.5999999999999990E-003     0.0000000000000000     
  -3.2999999999999991E-003     0.0000000000000000     
  -2.9999999999999992E-003     0.0000000000000000     
  -2.6999999999999993E-003     0.0000000000000000     
  -2.3999999999999994E-003     0.0000000000000000     
  -2.0999999999999977E-003     0.0000000000000000     
  -1.7999999999999995E-003     0.0000000000000000     
  -1.4999999999999979E-003     0.0000000000000000     
  -1.1999999999999997E-003     0.0000000000000000     
  -8.9999999999999976E-004     0.0000000000000000     
  -5.9999999999999810E-004     0.0000000000000000     
  -2.9999999999999992E-004     0.0000000000000000     
   0.0000000000000000          0.0000000000000000     
   3.0000000000000165E-004     0.0000000000000000     
   5.9999999999999984E-004     0.0000000000000000     
   9.0000000000000149E-004     0.0000000000000000     
   1.2000000000000031E-003     0.0000000000000000     
   1.5000000000000013E-003     0.0000000000000000     
   1.8000000000000030E-003     0.0000000000000000     
   2.1000000000000012E-003     0.0000000000000000     
   2.3999999999999994E-003     0.0000000000000000     
   2.7000000000000010E-003     0.0000000000000000     
   2.9999999999999992E-003     0.0000000000000000     
   3.3000000000000008E-003     0.0000000000000000     
   3.6000000000000025E-003     0.0000000000000000     
   3.9000000000000007E-003     0.0000000000000000     
   4.2000000000000023E-003     0.0000000000000000     
   4.5000000000000005E-003     0.0000000000000000     
   4.7999999999999987E-003     0.0000000000000000     
   5.1000000000000004E-003     0.0000000000000000     
   5.4000000000000020E-003     0.0000000000000000     
   5.7000000000000037E-003     0.0000000000000000     
   5.9999999999999984E-003     0.0000000000000000     
   6.3000000000000000E-003     0.0000000000000000     
   6.6000000000000017E-003     0.0000000000000000     
   6.9000000000000034E-003     0.0000000000000000     
   7.2000000000000015E-003     0.0000000000000000     
   7.5000000000000032E-003     0.0000000000000000     
   7.8000000000000014E-003     0.0000000000000000     
   8.0999999999999996E-003     0.0000000000000000     
   8.4000000000000012E-003     0.0000000000000000     
   8.7000000000000029E-003     0.0000000000000000     
   9.0000000000000011E-003     0.0000000000000000     
   9.2999999999999992E-003     0.0000000000000000     
   9.6000000000000009E-003     0.0000000000000000     
   9.8999999999999991E-003     0.0000000000000000     
   1.0200000000000001E-002    -3.5685796585401525E-042
   1.0500000000000002E-002    -4.2732480680641175E-041
   1.0800000000000004E-002    -2.0041987641920942E-037
   1.1099999999999999E-002    -1.1514181733278960E-035
   1.1400000000000000E-002     9.1300903856572022E-035
   1.1700000000000002E-002     5.7491077341699941E-034
   1.2000000000000004E-002    -7.4448443128032660E-033
   1.2300000000000002E-002    -7.6627152675446707E-033
   1.2600000000000000E-002     3.2860899883926843E-031
   1.2900000000000002E-002    -9.3752218795413575E-031
   1.3200000000000000E-002    -6.8830811685983787E-030
   1.3500000000000002E-002     5.5124549191911611E-029
   1.3800000000000003E-002    -5.8909951200208084E-029
   1.4100000000000001E-002    -9.9636929924851489E-028
   1.4400000000000000E-002     5.5594761177941009E-027
   1.4700000000000001E-002    -6.3329046435646019E-027
   1.4999999999999999E-002    -6.2809223916284747E-026
   1.5300000000000001E-002     3.6623962376065220E-025
   1.5600000000000003E-002    -7.5379917249524970E-025
   1.5899999999999997E-002    -1.1031819662668497E-024
   1.6199999999999999E-002     1.2419822791230412E-023
   1.6500000000000001E-002    -3.9259103475997206E-023
   1.6800000000000002E-002     4.7248556154379170E-023
   1.7100000000000004E-002     1.2134291076942374E-022
   1.7400000000000006E-002    -7.6557878999157415E-022
   1.7700000000000000E-002     1.9673126874344093E-021
   1.8000000000000002E-002    -2.7744961351272841E-021
   1.8300000000000004E-002     1.7424194806774389E-021
   1.8600000000000005E-002    -3.6239756116753349E-021
   1.8900000000000000E-002     2.4008099104211598E-020
   1.9200000000000002E-002     3.5692775924681639E-020
   1.9500000000000003E-002    -1.3491419315866611E-018
   1.9799999999999998E-002     1.0841796460874967E-017
   2.0100000000000000E-002    -5.8973845200777104E-017
   2.0400000000000001E-002     2.5242780139467033E-016
   2.0700000000000003E-002    -8.6632404966667107E-016
   2.0999999999999998E-002     2.1457121533383713E-015
   2.1299999999999999E-002    -1.3861867572385454E-015
   2.1600000000000001E-002    -2.4117606635756955E-014
   2.1900000000000003E-002     1.8593628432849360E-013
   2.2200000000000004E-002    -8.7560166420504490E-013
   2.2500000000000006E-002     2.9995460227649037E-012
   2.2800000000000001E-002    -7.1008147225044537E-012
   2.3100000000000002E-002     7.2093822470681591E-012
   2.3400000000000004E-002     2.5177569019009512E-011
   2.3699999999999999E-002    -1.4395657778248189E-010
   2.4000000000000000E-002     3.0593732359965132E-010
   2.4300000000000002E-002    -1.4776908431882486E-011
   2.4599999999999997E-002    -1.6327239699300394E-009
   2.4900000000000005E-002     3.4573225138694806E-009
   2.5200000000000000E-002     1.7821703386102598E-009
   2.5499999999999995E-002    -1.7422259543350157E-008
   2.5800000000000003E-002     1.0365048569188440E-008
   2.6099999999999998E-002     5.8558199597177353E-008
   2.6400000000000007E-002    -6.1395292580696409E-008
   2.6700000000000002E-002    -2.0303614604832179E-007
   2.6999999999999996E-002     1.2679620550091598E-007
   2.7300000000000005E-002     6.2744176606201193E-007
   2.7600000000000000E-002     3.3500510977749877E-008
   2.7900000000000008E-002    -1.5628065456242188E-006
   2.8200000000000003E-002    -1.1715736574778214E-006
   2.8499999999999998E-002     3.8245003668927467E-006
   2.8800000000000006E-002     1.1142884207104366E-005
   2.9100000000000001E-002     1.5925054332366034E-005
   2.9400000000000003E-002     1.8783754819882013E-005
   2.9700000000000004E-002     2.8061271430363392E-005
   3.0000000000000006E-002     5.1470682975764153E-005
   3.0300000000000001E-002     8.8372801029628194E-005
   3.0600000000000002E-002     1.3522950493054033E-004
   3.0900000000000004E-002     1.9845900813639572E-004
   3.1199999999999999E-002     2.9686416928137677E-004
   3.1500000000000007E-002     4.5030483081441992E-004
   3.1800000000000002E-002     6.7197697340725564E-004
   3.2099999999999997E-002     9.7721520649943477E-004
   3.2400000000000005E-002     1.3976107399666783E-003
   3.2700000000000000E-002     1.9808697072841420E-003
   3.3000000000000002E-002     2.7778636592008374E-003
   3.3300000000000003E-002     3.8373139668253006E-003
   3.3599999999999998E-002     5.2158763058967987E-003
   3.3900000000000000E-002     6.9865565739362732E-003
   3.4200000000000001E-002     9.2300199401266353E-003
   3.4500000000000003E-002     1.2017569297539502E-002
   3.4799999999999998E-002     1.5403798608954831E-002
   3.5099999999999999E-002     1.9428360749816336E-002
   3.5400000000000001E-002     2.4110713914623414E-002
   3.5699999999999996E-002     2.9429875410881809E-002
   3.6000000000000004E-002     3.5303142804611061E-002
   3.6299999999999999E-002     4.1574783656170816E-002
   3.6600000000000008E-002     4.8016164503240373E-002
   3.6900000000000002E-002     5.4321982342013422E-002
   3.7199999999999997E-002     6.0101844381502734E-002
   3.7500000000000006E-002     6.4880987170584090E-002
   3.7800000000000000E-002     6.8121404093572507E-002
   3.8100000000000009E-002     6.9258221635366241E-002
   3.8400000000000004E-002     6.7740653393979319E-002
   3.8699999999999998E-002     6.3069148929314672E-002
   3.9000000000000007E-002     5.4842046353204853E-002
   3.9300000000000002E-002     4.2814655854483255E-002
   3.9600000000000003E-002     2.6962669565422027E-002
   3.9900000000000005E-002     7.5229667457659289E-003
   4.0200000000000000E-002    -1.4990903125049200E-002
   4.0500000000000001E-002    -3.9790577184258949E-002
   4.0800000000000003E-002    -6.5826255754957139E-002
   4.1100000000000005E-002    -9.1816476609462960E-002
   4.1399999999999999E-002   -0.11633276485398594     
   4.1700000000000008E-002   -0.13790781796178847     
   4.2000000000000003E-002   -0.15514328444929171     
   4.2299999999999997E-002   -0.16682403121302580     
   4.2600000000000006E-002   -0.17201936840246673     
   4.2900000000000001E-002   -0.17017995735163660     
   4.3200000000000002E-002   -0.16122537335745779     
   4.3500000000000004E-002   -0.14556823334368146     
   4.3799999999999999E-002   -0.12409681567526470     
   4.4100000000000000E-002    -9.8137528044483779E-002
   4.4400000000000002E-002    -6.9364321037656398E-002
   4.4700000000000004E-002    -3.9682224509299924E-002
   4.4999999999999998E-002    -1.1114734341643267E-002
   4.5300000000000000E-002     1.4370258258982851E-002
   4.5600000000000002E-002     3.4987449903383504E-002
   4.5899999999999996E-002     4.9252997130331981E-002
   4.6200000000000005E-002     5.6089073106595048E-002
   4.6500000000000000E-002     5.4873471904697387E-002
   4.6799999999999994E-002     4.5498704822040527E-002
   4.7100000000000003E-002     2.8364045141566818E-002
   4.7399999999999998E-002     4.3286301573336773E-003
   4.7700000000000006E-002    -2.5319664945134927E-002
   4.8000000000000001E-002    -5.8949314145045853E-002
   4.8300000000000010E-002    -9.4672470274715328E-002
   4.8600000000000004E-002   -0.13042966960683094     
   4.8899999999999999E-002   -0.16412070437634785     
   4.9200000000000008E-002   -0.19369057435971107     
   4.9500000000000002E-002   -0.21721592534031187     
   4.9800000000000011E-002   -0.23302726749436908     
   5.0100000000000006E-002   -0.23978473309307285     
   5.0400000000000000E-002   -0.23656115053305815     
   5.0700000000000009E-002   -0.22293658434173341     
   5.1000000000000004E-002   -0.19898144211981034     
   5.1299999999999998E-002   -0.16526741169953951     
   5.1600000000000007E-002   -0.12289585163916100     
   5.1900000000000002E-002    -7.3417677899312972E-002
   5.2200000000000010E-002    -1.8740484555849028E-002
   5.2500000000000005E-002     3.8984904899962924E-002
   5.2800000000000000E-002     9.7495026697021245E-002
   5.3099999999999994E-002    0.15454753562850260     
   5.3400000000000003E-002    0.20806419514986177     
   5.3699999999999998E-002    0.25624359856894413     
   5.4000000000000006E-002    0.29766157095591894     
   5.4300000000000001E-002    0.33133220369446631     
   5.4599999999999996E-002    0.35673894454834509     
   5.4900000000000004E-002    0.37378528262303651     
   5.5199999999999999E-002    0.38275364546540103     
   5.5499999999999994E-002    0.38427046992289449     
   5.5800000000000002E-002    0.37917270799855118     
   5.6099999999999997E-002    0.36840229471762270     
   5.6400000000000006E-002    0.35293338383904471     
   5.6700000000000000E-002    0.33368643343112420     
   5.6999999999999995E-002    0.31147934416543677     
   5.7300000000000004E-002    0.28697741555628686     
   5.7599999999999998E-002    0.26063505905270185     
   5.7900000000000007E-002    0.23276827261948974     
   5.8200000000000002E-002    0.20357688774230370     
   5.8499999999999996E-002    0.17313230825233930     
   5.8800000000000005E-002    0.14148275035563912     
   5.9100000000000000E-002    0.10868138350751429     
   5.9400000000000008E-002     7.4840888825406210E-002
   5.9700000000000003E-002     4.0235683679057763E-002
   6.0000000000000012E-002     5.2925193128474787E-003
   6.0300000000000006E-002    -2.9361747495562723E-002
   6.0600000000000001E-002    -6.2865308219916372E-002
   6.0900000000000010E-002    -9.4187892975528736E-002
   6.1200000000000004E-002   -0.12210683839067416     
   6.1500000000000013E-002   -0.14529616629843345     
   6.1800000000000008E-002   -0.16246477465050657     
   6.2100000000000002E-002   -0.17241098977263103     
   6.2399999999999997E-002   -0.17417214858548308     
   6.2700000000000006E-002   -0.16718778944417664     
   6.3000000000000000E-002   -0.15136891451110718     
   6.3300000000000009E-002   -0.12718086352718960     
   6.3600000000000004E-002    -9.5713675896229256E-002
   6.3899999999999998E-002    -5.8675479030194738E-002
   6.4199999999999993E-002    -1.8337413647709168E-002
   6.4500000000000002E-002     2.2672920310083729E-002
   6.4800000000000010E-002     6.1494376569548738E-002
   6.5100000000000005E-002     9.5185395805009163E-002
   6.5400000000000000E-002    0.12102186965101319     
   6.5700000000000008E-002    0.13669037017379004     
   6.5999999999999989E-002    0.14050538912469468     
   6.6299999999999998E-002    0.13155917377760387     
   6.6600000000000006E-002    0.10976773259918290     
   6.6900000000000001E-002     7.5899509190028497E-002
   6.7199999999999996E-002     3.1550349654590484E-002
   6.7500000000000004E-002    -2.0939949695858152E-002
   6.7800000000000013E-002    -7.8679082020939817E-002
   6.8099999999999994E-002   -0.13839129021714708     
   6.8400000000000002E-002   -0.19662728801773929     
   6.8700000000000011E-002   -0.25000140785644015     
   6.8999999999999992E-002   -0.29533753757595521     
   6.9300000000000000E-002   -0.32983883996619517     
   6.9600000000000009E-002   -0.35128291155095115     
   6.9900000000000004E-002   -0.35806539975331036     
   7.0199999999999999E-002   -0.34935003570223977     
   7.0500000000000007E-002   -0.32511687529184774     
   7.0800000000000016E-002   -0.28606313055522320     
   7.1099999999999997E-002   -0.23371360334800728     
   7.1400000000000005E-002   -0.17030273637671742     
   7.1700000000000000E-002    -9.8665238248132864E-002
   7.1999999999999995E-002    -2.2173134788191832E-002
   7.2300000000000003E-002     5.5576688296714798E-002
   7.2600000000000012E-002    0.13084954465820259     
   7.2900000000000006E-002    0.19994415439231267     
   7.3200000000000001E-002    0.25950223165923902     
   7.3499999999999996E-002    0.30661443961588486     
   7.3800000000000004E-002    0.33904681152530219     
   7.4099999999999999E-002    0.35535596243671680     
   7.4400000000000008E-002    0.35480606450949170     
   7.4700000000000003E-002    0.33742087977057444     
   7.5000000000000011E-002    0.30393816863079437     
   7.5299999999999992E-002    0.25565394748093051     
   7.5600000000000001E-002    0.19430175173930292     
   7.5900000000000009E-002    0.12189742876631043     
   7.6200000000000004E-002     4.0555613901566104E-002
   7.6499999999999999E-002    -4.7608142426391428E-002
   7.6800000000000007E-002   -0.14048275858655387     
   7.7099999999999988E-002   -0.23597636937287400     
   7.7399999999999997E-002   -0.33203637605606046     
   7.7700000000000005E-002   -0.42658686582423583     
   7.8000000000000014E-002   -0.51746037525731969     
   7.8299999999999995E-002   -0.60228161330942132     
   7.8600000000000003E-002   -0.67841675668559298     
   7.8900000000000012E-002   -0.74308409101274331     
   7.9199999999999993E-002   -0.79340968203914652     
   7.9500000000000001E-002   -0.82651905151059202     
   7.9800000000000010E-002   -0.83974640085364904     
   8.0100000000000018E-002   -0.83078140900590547     
   8.0399999999999999E-002   -0.79802184115475594     
   8.0700000000000008E-002   -0.74080461860123492     
   8.1000000000000003E-002   -0.65945007809758582     
   8.1299999999999997E-002   -0.55547831789987379     
   8.1600000000000006E-002   -0.43156746212518299     
   8.1900000000000014E-002   -0.29143400573664890     
   8.2199999999999995E-002   -0.13978501258470188     
   8.2500000000000004E-002     1.8061471102887562E-002
   8.2799999999999999E-002    0.17644675713750796     
   8.3100000000000007E-002    0.32961251081415688     
   8.3400000000000002E-002    0.47222093167693829     
   8.3700000000000011E-002    0.59956299689013159     
   8.4000000000000005E-002    0.70769831951178819     
   8.4300000000000000E-002    0.79373824655164527     
   8.4599999999999995E-002    0.85575806610716643     
   8.4900000000000003E-002    0.89275779906110508     
   8.5199999999999998E-002    0.90474795904245053     
   8.5500000000000007E-002    0.89257688132754742     
   8.5800000000000001E-002    0.85764526248305184     
   8.6100000000000010E-002    0.80185352324865833     
   8.6399999999999991E-002    0.72758839865606073     
   8.6699999999999999E-002    0.63772796598911252     
   8.7000000000000008E-002    0.53560046967099373     
   8.7300000000000003E-002    0.42485409760495851     
   8.7599999999999997E-002    0.30962086118126897     
   8.7900000000000006E-002    0.19451519493874608     
   8.8200000000000014E-002     8.4428260717062706E-002
   8.8499999999999995E-002    -1.5571542387569949E-002
   8.8800000000000004E-002   -0.10048830437909970     
   8.9100000000000013E-002   -0.16581421661320134     
   8.9399999999999993E-002   -0.20785340467425284     
   8.9700000000000002E-002   -0.22414773168014041     
   9.0000000000000011E-002   -0.21392193421029998     
   9.0299999999999991E-002   -0.17824878583237880     
   9.0600000000000000E-002   -0.12019937076314877     
   9.0900000000000009E-002    -4.4865414381555675E-002
   9.1200000000000017E-002     4.0930988999295356E-002
   9.1499999999999998E-002    0.12901536370643105     
   9.1800000000000007E-002    0.21054651641881839     
   9.2100000000000001E-002    0.27676962510369613     
   9.2399999999999996E-002    0.31972612151665114     
   9.2700000000000005E-002    0.33309366945603414     
   9.3000000000000013E-002    0.31282183925041374     
   9.3300000000000008E-002    0.25757881332074872     
   9.3600000000000003E-002    0.16911771796737793     
   9.3899999999999997E-002     5.2317653054545041E-002
   9.4200000000000006E-002    -8.5192462916530862E-002
   9.4500000000000001E-002   -0.23364908791174582     
   9.4800000000000009E-002   -0.38185560384090400     
   9.5100000000000004E-002   -0.51795615485570945     
   9.5399999999999999E-002   -0.63042740893978932     
   9.5699999999999993E-002   -0.70910740843260167     
   9.6000000000000002E-002   -0.74609230912057467     
   9.6300000000000011E-002   -0.73627914324178678     
   9.6600000000000005E-002   -0.67771187736763383     
   9.6900000000000000E-002   -0.57184213972108233     
   9.7200000000000009E-002   -0.42354618428200158     
   9.7499999999999989E-002   -0.24083938352071654     
   9.7799999999999998E-002    -3.4260489622437079E-002
   9.8100000000000007E-002    0.18388928469670179     
   9.8400000000000015E-002    0.40010293377090800     
   9.8699999999999996E-002    0.60041121624297711     
   9.9000000000000005E-002    0.77139273774503758     
   9.9300000000000013E-002    0.90088197600339803     
   9.9599999999999994E-002    0.97874406565405070     
   9.9900000000000003E-002    0.99746518737143064     
  0.10020000000000001         0.95257173849086807     
  0.10049999999999999         0.84311549435221667     
  0.10080000000000000         0.67177330420964376     
  0.10110000000000001         0.44487065445837198     
  0.10140000000000000         0.17216867017849233     
  0.10170000000000000        -0.13366261962933007     
  0.10200000000000001        -0.45756722432252805     
  0.10230000000000002        -0.78287577270456321     
  0.10260000000000000         -1.0923127956589682     
  0.10290000000000001         -1.3689291157490149     
  0.10320000000000000         -1.5971060968392978     
  0.10350000000000001         -1.7634146281576082     
  0.10380000000000000         -1.8573812504386569     
  0.10410000000000001         -1.8720692799194651     
  0.10440000000000001         -1.8043716253757838     
  0.10470000000000000         -1.6551395399137783     
  0.10500000000000000         -1.4290655993279122     
  0.10530000000000000         -1.1342246432008114     
  0.10560000000000000        -0.78159040248044098     
  0.10590000000000001        -0.38433904963060522     
  0.10620000000000000          4.2842403101666163E-002
  0.10650000000000001         0.48442492112732860     
  0.10679999999999999         0.92474543654584995     
  0.10710000000000000          1.3486000330852117     
  0.10740000000000001          1.7418292704219542     
  0.10770000000000000          2.0916151700385361     
  0.10800000000000000          2.3866663084846955     
  0.10830000000000001          2.6176238872406223     
  0.10859999999999999          2.7770880449570923     
  0.10890000000000000          2.8596220849457983     
  0.10920000000000001          2.8618892452306923     
  0.10950000000000001          2.7825359674349106     
  0.10979999999999999          2.6222290602316249     
  0.11009999999999999          2.3836637324425589     
  0.11040000000000001          2.0713583552154446     
  0.11070000000000001          1.6918198525281936     
  0.11100000000000000          1.2534819395522585     
  0.11130000000000000         0.76642767715362314     
  0.11160000000000002         0.24231816000865464     
  0.11190000000000001        -0.30578961170677854     
  0.11220000000000001        -0.86364927802671032     
  0.11250000000000000         -1.4160663893619068     
  0.11280000000000000         -1.9474720054204213     
  0.11309999999999999         -2.4421629621752707     
  0.11340000000000001         -2.8847195024862402     
  0.11369999999999998         -3.2605551144073357     
  0.11400000000000000         -3.5561943570457704     
  0.11430000000000000         -3.7597914330010589     
  0.11460000000000002         -3.8616415961222073     
  0.11489999999999999         -3.8543537691086316     
  0.11520000000000001         -3.7334115855000682     
  0.11550000000000001         -3.4975664538226647     
  0.11580000000000000         -3.1489998762336060     
  0.11609999999999999         -2.6936333093872693     
  0.11640000000000002         -2.1413251920453966     
  0.11670000000000001         -1.5060611975178522     
  0.11700000000000001        -0.80589608207720653     
  0.11730000000000000         -6.2347919604735597E-002
  0.11760000000000000         0.69988808722806550     
  0.11789999999999999          1.4534977764101051     
  0.11820000000000001          2.1698889871430005     
  0.11850000000000001          2.8203334589686739     
  0.11880000000000000          3.3772438746661684     
  0.11910000000000000          3.8156771531531373     
  0.11940000000000002          4.1148773933003833     
  0.11970000000000001          4.2594991312975017     
  0.12000000000000001          4.2405282258955310     
  0.12030000000000000          4.0560985102188543     
  0.12060000000000000          3.7118401152534286     
  0.12089999999999999          3.2207679524333561     
  0.12119999999999999          2.6025987429870741     
  0.12150000000000001          1.8827852045895135     
  0.12180000000000001          1.0914696838016242     
  0.12210000000000000         0.26200480850509145     
  0.12239999999999999        -0.57055308371080260     
  0.12270000000000002         -1.3710506444063491     
  0.12300000000000001         -2.1058609767910097     
  0.12330000000000001         -2.7440035352049281     
  0.12360000000000000         -3.2583838181224634     
  0.12390000000000000         -3.6270771460596687     
  0.12419999999999999         -3.8340706087850229     
  0.12450000000000001         -3.8699841287714696     
  0.12480000000000001         -3.7326538697627569     
  0.12509999999999999         -3.4272740988249142     
  0.12540000000000001         -2.9666931250518447     
  0.12570000000000003         -2.3710932909549247     
  0.12600000000000000         -1.6671910171131434     
  0.12630000000000002        -0.88758517976885720     
  0.12659999999999999         -6.9366489677633258E-002
  0.12690000000000001         0.74791948083608251     
  0.12719999999999998          1.5240754820762172     
  0.12750000000000000          2.2204437310536833     
  0.12780000000000002          2.8023285182344861     
  0.12809999999999999          3.2410448476578333     
  0.12840000000000001          3.5160237120790860     
  0.12869999999999998          3.6158766209018038     
  0.12900000000000000          3.5391436388337270     
  0.12930000000000003          3.2946557743112415     
  0.12959999999999999          2.9003965677902772     
  0.12990000000000002          2.3822742503894117     
  0.13019999999999998          1.7724757287225943     
  0.13050000000000000          1.1066352343507850     
  0.13080000000000003         0.42144856528992680     
  0.13109999999999999        -0.24740226011766675     
  0.13140000000000002        -0.86778245477455496     
  0.13169999999999998         -1.4128239666271676     
  0.13200000000000001         -1.8620730996204493     
  0.13229999999999997         -2.2022403103786354     
  0.13260000000000000         -2.4271255936463096     
  0.13290000000000002         -2.5372046939587269     
  0.13319999999999999         -2.5387893617626043     
  0.13350000000000001         -2.4429428922326162     
  0.13380000000000003         -2.2644461511977463     
  0.13410000000000000         -2.0203822226176178     
  0.13440000000000002         -1.7287693899779042     
  0.13469999999999999         -1.4079969340049896     
  0.13500000000000001         -1.0760534244049600     
  0.13529999999999998        -0.74921141240289080     
  0.13560000000000000        -0.44156196988204188     
  0.13590000000000002        -0.16495061215069548     
  0.13619999999999999          7.1636952714752150E-002
  0.13650000000000001         0.26268125227828071     
  0.13680000000000003         0.40638854139393016     
  0.13710000000000000         0.50453237534135376     
  0.13740000000000002         0.56226495170043411     
  0.13769999999999999         0.58803782814165462     
  0.13800000000000001         0.59292198851689271     
  0.13829999999999998         0.58949256684952056     
  0.13860000000000000         0.59085823034043161     
  0.13890000000000002         0.60919584242019975     
  0.13919999999999999         0.65441206029544285     
  0.13950000000000001         0.73321575727762456     
  0.13979999999999998         0.84786121239759460     
  0.14010000000000000         0.99539792901931490     
  0.14040000000000002          1.1677263000343570     
  0.14069999999999999          1.3519393515659635     
  0.14100000000000001          1.5311627975266897     
  0.14130000000000004          1.6858830952848187     
  0.14160000000000000          1.7954528886142922     
  0.14189999999999997          1.8402228126370404     
  0.14219999999999999          1.8034890977784066     
  0.14250000000000002          1.6730477483458159     
  0.14279999999999998          1.4427163564245520     
  0.14310000000000000          1.1134994864840482     
  0.14339999999999997         0.69414517944309218     
  0.14369999999999999         0.20084270446073227     
  0.14400000000000002        -0.34340115352595202     
  0.14429999999999998        -0.90998042708913052     
  0.14460000000000001         -1.4663882585804389     
  0.14490000000000003         -1.9784438185693163     
  0.14520000000000000         -2.4126694699105617     
  0.14550000000000002         -2.7384804415918977     
  0.14579999999999999         -2.9307223819428909     
  0.14610000000000001         -2.9719372901032282     
  0.14640000000000003         -2.8536988203273288     
  0.14670000000000000         -2.5775656637036954     
  0.14699999999999996         -2.1557423315568229     
  0.14729999999999999         -1.6106019799497344     
  0.14760000000000001        -0.97374413618874422     
  0.14789999999999998        -0.28391861494132986     
  0.14820000000000000         0.41578211341041427     