  -1.4999999999999999E-002     0.0000000000000000     
  -1.4700000000000000E-002     0.0000000000000000     
  -1.4400000000000000E-002     0.0000000000000000     
  -1.4100000000000000E-002     0.0000000000000000     
  -1.3800000000000000E-002     0.0000000000000000     
  -1.3500000000000000E-002     0.0000000000000000     
  -1.3200000000000000E-002     0.0000000000000000     
  -1.2899999999999998E-002     0.0000000000000000     
  -1.2600000000000000E-002     0.0000000000000000     
  -1.2299999999999998E-002     0.0000000000000000     
  -1.2000000000000000E-002     0.0000000000000000     
  -1.1699999999999999E-002     0.0000000000000000     
  -1.1399999999999999E-002     0.0000000000000000     
  -1.1099999999999999E-002     0.0000000000000000     
  -1.0799999999999999E-002     0.0000000000000000     
  -1.0499999999999999E-002     0.0000000000000000     
  -1.0199999999999999E-002     0.0000000000000000     
  -9.8999999999999991E-003     0.0000000000000000     
  -9.5999999999999992E-003     0.0000000000000000     
  -9.2999999999999992E-003     0.0000000000000000     
  -8.9999999999999993E-003     0.0000000000000000     
  -8.6999999999999994E-003     0.0000000000000000     
  -8.3999999999999995E-003     0.0000000000000000     
  -8.0999999999999996E-003     0.0000000000000000     
  -7.7999999999999988E-003     0.0000000000000000     
  -7.4999999999999997E-003     0.0000000000000000     
  -7.1999999999999998E-003     0.0000000000000000     
  -6.8999999999999981E-003     0.0000000000000000     
  -6.5999999999999982E-003     0.0000000000000000     
  -6.3000000000000000E-003     0.0000000000000000     
  -6.0000000000000001E-003     0.0000000000000000     
  -5.6999999999999985E-003     0.0000000000000000     
  -5.3999999999999986E-003     0.0000000000000000     
  -5.1000000000000004E-003     0.0000000000000000     
  -4.7999999999999987E-003     0.0000000000000000     
  -4.5000000000000005E-003     0.0000000000000000     
  -4.1999999999999989E-003     0.0000000000000000     
  -3.8999999999999990E-003     0.0000000000000000     
  -3.5999999999999990E-003     0.0000000000000000     
  -3.2999999999999991E-003     0.0000000000000000     
  -2.9999999999999992E-003     0.0000000000000000     
  -2.6999999999999993E-003     0.0000000000000000     
  -2.3999999999999994E-003     0.0000000000000000     
  -2.0999999999999977E-003     0.0000000000000000     
  -1.7999999999999995E-003     0.0000000000000000     
  -1.4999999999999979E-003     0.0000000000000000     
  -1.1999999999999997E-003     0.0000000000000000     
  -8.9999999999999976E-004     0.0000000000000000     
  -5.9999999999999810E-004     0.0000000000000000     
  -2.9999999999999992E-004     0.0000000000000000     
   0.0000000000000000          0.0000000000000000     
   3.0000000000000165E-004     0.0000000000000000     
   5.9999999999999984E-004     0.0000000000000000     
   9.0000000000000149E-004     0.0000000000000000     
   1.2000000000000031E-003     0.0000000000000000     
   1.5000000000000013E-003     0.0000000000000000     
   1.8000000000000030E-003     0.0000000000000000     
   2.1000000000000012E-003     0.0000000000000000     
   2.3999999999999994E-003     0.0000000000000000     
   2.7000000000000010E-003     0.0000000000000000     
   2.9999999999999992E-003     0.0000000000000000     
   3.3000000000000008E-003     0.0000000000000000     
   3.6000000000000025E-003     0.0000000000000000     
   3.9000000000000007E-003     0.0000000000000000     
   4.2000000000000023E-003     0.0000000000000000     
   4.5000000000000005E-003     0.0000000000000000     
   4.7999999999999987E-003    -1.4422260605570015E-045
   5.1000000000000004E-003     3.0255127230866352E-044
   5.4000000000000020E-003     9.2003674159367810E-043
   5.7000000000000037E-003     1.3270363052311552E-042
   5.9999999999999984E-003     1.0051734868107430E-035
   6.3000000000000000E-003     3.7284661386539895E-034
   6.6000000000000017E-003    -3.1103339675092081E-033
   6.9000000000000034E-003    -2.1993193448949444E-032
   7.2000000000000015E-003     2.9939692177225078E-031
   7.5000000000000032E-003    -4.5788485849693445E-031
   7.8000000000000014E-003    -9.5752934960066868E-030
   8.0999999999999996E-003     6.2240321611654820E-029
   8.4000000000000012E-003    -1.7853005848976761E-029
   8.7000000000000029E-003    -1.5660660715052730E-027
   9.0000000000000011E-003     8.2599297426993960E-027
   9.2999999999999992E-003    -8.7375405208246786E-027
   9.6000000000000009E-003    -1.0924674103403477E-025
   9.8999999999999991E-003     6.8387750966203165E-025
   1.0200000000000001E-002    -1.7413254633983036E-024
   1.0500000000000002E-002    -5.1110887243300987E-025
   1.0800000000000004E-002     2.2221932079048595E-023
   1.1099999999999999E-002    -9.4621797672992185E-023
   1.1400000000000000E-002     2.1213016389435606E-022
   1.1700000000000002E-002    -1.5079784033219486E-022
   1.2000000000000004E-002    -7.2787398865864187E-022
   1.2300000000000002E-002     2.6949846559700330E-021
   1.2600000000000000E-002    -8.6475565220872535E-022
   1.2900000000000002E-002    -2.8982265578519080E-020
   1.3200000000000000E-002     1.5653681652438559E-019
   1.3500000000000002E-002    -5.1312000938228795E-019
   1.3800000000000003E-002     1.1903772212964884E-018
   1.4100000000000001E-002    -1.6829298728248867E-018
   1.4400000000000000E-002    -1.0118356316713734E-018
   1.4700000000000001E-002     1.7671297362589582E-017
   1.4999999999999999E-002    -7.9176826497247796E-017
   1.5300000000000001E-002     2.5678519094876588E-016
   1.5600000000000003E-002    -6.4912955732498720E-016
   1.5899999999999997E-002     1.0410463435382537E-015
   1.6199999999999999E-002     1.1554118563299158E-015
   1.6500000000000001E-002    -1.9438106612926887E-014
   1.6800000000000002E-002     1.0301705739255323E-013
   1.7100000000000004E-002    -3.7013159786006298E-013
   1.7400000000000006E-002     8.8288060251707114E-013
   1.7700000000000000E-002    -6.3714261220059176E-013
   1.8000000000000002E-002    -5.6672037212587886E-012
   1.8300000000000004E-002     3.0665943302021439E-011
   1.8600000000000005E-002    -7.5275849620168427E-011
   1.8900000000000000E-002     3.9900343822479923E-011
   1.9200000000000002E-002     3.7547438626878508E-010
   1.9500000000000003E-002    -1.2509618318974856E-009
   1.9799999999999998E-002     8.6391212379600111E-010
   2.0100000000000000E-002     4.4425307187258452E-009
   2.0400000000000001E-002    -1.0370372105677712E-008
   2.0700000000000003E-002    -6.5945234321139009E-009
   2.0999999999999998E-002     4.3362563001759187E-008
   2.1299999999999999E-002     7.1200797051569831E-009
   2.1600000000000001E-002    -1.5814161964609874E-007
   2.1900000000000003E-002    -9.1622016494927588E-008
   2.2200000000000004E-002     4.2705474159503312E-007
   2.2500000000000006E-002     5.3779871839100901E-007
   2.2800000000000001E-002    -7.3533142802008458E-007
   2.3100000000000002E-002    -1.8580346351175582E-006
   2.3400000000000004E-002     6.2788595227263187E-007
   2.3699999999999999E-002     7.2915289537877185E-006
   2.4000000000000000E-002     1.3902397810532625E-005
   2.4300000000000002E-002     1.7212378864631752E-005
   2.4599999999999997E-002     2.1833595488317889E-005
   2.4900000000000005E-002     3.7426951170740882E-005
   2.5200000000000000E-002     6.8393082515676780E-005
   2.5499999999999995E-002     1.1135696923314594E-004
   2.5800000000000003E-002     1.6582063944098124E-004
   2.6099999999999998E-002     2.4431815164750395E-004
   2.6400000000000007E-002     3.6837037426317132E-004
   2.6700000000000002E-002     5.5612063440234837E-004
   2.6999999999999996E-002     8.2101187687751891E-004
   2.7300000000000005E-002     1.1853466011705488E-003
   2.7600000000000000E-002     1.6898585852076914E-003
   2.7900000000000008E-002     2.3869736627876600E-003
   2.8200000000000003E-002     3.3290888576935160E-003
   2.8499999999999998E-002     4.5704761810312399E-003
   2.8800000000000006E-002     6.1792590869920597E-003
   2.9100000000000001E-002     8.2385269161931052E-003
   2.9400000000000003E-002     1.0831428615464092E-002
   2.9700000000000004E-002     1.4028374970539569E-002
   3.0000000000000006E-002     1.7885362689154506E-002
   3.0300000000000001E-002     2.2442704074645724E-002
   3.0600000000000002E-002     2.7710698629329952E-002
   3.0900000000000004E-002     3.3648897158740879E-002
   3.1199999999999999E-002     4.0146928633718798E-002
   3.1500000000000007E-002     4.7018725988116787E-002
   3.1800000000000002E-002     5.4000743564498917E-002
   3.2099999999999997E-002     6.0739633854320019E-002
   3.2400000000000005E-002     6.6786894255729257E-002
   3.2700000000000000E-002     7.1611443652084161E-002
   3.3000000000000002E-002     7.4626373718351235E-002
   3.3300000000000003E-002     7.5223679801992460E-002
   3.3599999999999998E-002     7.2808224395651960E-002
   3.3900000000000000E-002     6.6851142899230817E-002
   3.4200000000000001E-002     5.6953642941756553E-002
   3.4500000000000003E-002     4.2881999764593122E-002
   3.4799999999999998E-002     2.4656672614331961E-002
   3.5099999999999999E-002     2.5653297628324039E-003
   3.5400000000000001E-002    -2.2819208161798259E-002
   3.5699999999999996E-002    -5.0608114388776479E-002
   3.6000000000000004E-002    -7.9658722706104773E-002
   3.6299999999999999E-002   -0.10861267117810636     
   3.6600000000000008E-002   -0.13596037155380636     
   3.6900000000000002E-002   -0.16019378899829650     
   3.7199999999999997E-002   -0.17987885057561798     
   3.7500000000000006E-002   -0.19379188773181191     
   3.7800000000000000E-002   -0.20103330236102815     
   3.8100000000000009E-002   -0.20109615686023546     
   3.8400000000000004E-002   -0.19397030344331145     
   3.8699999999999998E-002   -0.18013201295150083     
   3.9000000000000007E-002   -0.16053551099504584     
   3.9300000000000002E-002   -0.13655022917496495     
   3.9600000000000003E-002   -0.10986863394030902     
   3.9900000000000005E-002    -8.2407901281595766E-002
   4.0200000000000000E-002    -5.6137517751891026E-002
   4.0500000000000001E-002    -3.2927970328803360E-002
   4.0800000000000003E-002    -1.4481072310330381E-002
   4.1100000000000005E-002    -2.1559722298490399E-003
   4.1399999999999999E-002     3.0967118583036745E-003
   4.1700000000000008E-002     7.9177796384686313E-004
   4.2000000000000003E-002    -9.0352392119261507E-003
   4.2299999999999997E-002    -2.5925605778978730E-002
   4.2600000000000006E-002    -4.8893195230582304E-002
   4.2900000000000001E-002    -7.6544795569788993E-002
   4.3200000000000002E-002   -0.10722712106696904     
   4.3500000000000004E-002   -0.13893152496185177     
   4.3799999999999999E-002   -0.16956703153476838     
   4.4100000000000000E-002   -0.19695678222361382     
   4.4400000000000002E-002   -0.21891720549440172     
   4.4700000000000004E-002   -0.23350803594871858     
   4.4999999999999998E-002   -0.23899544889490729     
   4.5300000000000000E-002   -0.23400728573867172     
   4.5600000000000002E-002   -0.21772752901862635     
   4.5899999999999996E-002   -0.18980013035396326     
   4.6200000000000005E-002   -0.15044325762906438     
   4.6500000000000000E-002   -0.10054670388726646     
   4.6799999999999994E-002    -4.1552782344495352E-002
   4.7100000000000003E-002     2.4668988648084540E-002
   4.7399999999999998E-002     9.5803978135238929E-002
   4.7700000000000006E-002    0.16933997320889196     
   4.8000000000000001E-002    0.24277943859134019     
   4.8300000000000010E-002    0.31358811884743043     
   4.8600000000000004E-002    0.37959072750627909     
   4.8899999999999999E-002    0.43906176965092852     
   4.9200000000000008E-002    0.49061862612326462     
   4.9500000000000002E-002    0.53346819750320740     
   4.9800000000000011E-002    0.56724978629069067     
   5.0100000000000006E-002    0.59201039076595607     
   5.0400000000000000E-002    0.60815055415265218     
   5.0700000000000009E-002    0.61610372146355641     
   5.1000000000000004E-002    0.61641432155030529     
   5.1299999999999998E-002    0.60955728422979882     
   5.1600000000000007E-002    0.59578700212588664     
   5.1900000000000002E-002    0.57523508227744935     
   5.2200000000000010E-002    0.54772306835619555     
   5.2500000000000005E-002    0.51290704153240174     
   5.2800000000000000E-002    0.47049583305482390     
   5.3099999999999994E-002    0.42017088584157164     
   5.3400000000000003E-002    0.36178590023743690     
   5.3699999999999998E-002    0.29548359951466258     
   5.4000000000000006E-002    0.22182992973798513     
   5.4300000000000001E-002    0.14182443097404693     
   5.4599999999999996E-002     5.6923710358355917E-002
   5.4900000000000004E-002    -3.0886313351974736E-002
   5.5199999999999999E-002   -0.11928883362807589     
   5.5499999999999994E-002   -0.20568439870150734     
   5.5800000000000002E-002   -0.28732220195268676     
   5.6099999999999997E-002   -0.36147324456930735     
   5.6400000000000006E-002   -0.42556734433221999     
   5.6700000000000000E-002   -0.47743858750210871     
   5.6999999999999995E-002   -0.51538546991547096     
   5.7300000000000004E-002   -0.53822853473212851     
   5.7599999999999998E-002   -0.54559209373813400     
   5.7900000000000007E-002   -0.53761746947132205     
   5.8200000000000002E-002   -0.51507511152782104     
   5.8499999999999996E-002   -0.47951933020244059     
   5.8800000000000005E-002   -0.43283288726165120     
   5.9100000000000000E-002   -0.37722404547472010     
   5.9400000000000008E-002   -0.31514032070934650     
   5.9700000000000003E-002   -0.24911857622369518     
   6.0000000000000012E-002   -0.18171313944692188     
   6.0300000000000006E-002   -0.11538513103998366     
   6.0600000000000001E-002    -5.2380964589284269E-002
   6.0900000000000010E-002     5.2933448896463264E-003
   6.1200000000000004E-002     5.5805075491737612E-002
   6.1500000000000013E-002     9.7527256813142435E-002
   6.1800000000000008E-002    0.12893669392348234     
   6.2100000000000002E-002    0.14876385254359345     
   6.2399999999999997E-002    0.15618704532072433     
   6.2700000000000006E-002    0.15044689419800250     
   6.3000000000000000E-002    0.13132777940743964     
   6.3300000000000009E-002     9.9230683795249949E-002
   6.3600000000000004E-002     5.4997932882295132E-002
   6.3899999999999998E-002     4.8614486384692123E-004
   6.4199999999999993E-002    -6.1633771323948275E-002
   6.4500000000000002E-002   -0.12805026569602390     
   6.4800000000000010E-002   -0.19457534113495376     
   6.5100000000000005E-002   -0.25661352777433399     
   6.5400000000000000E-002   -0.30933792206712019     
   6.5700000000000008E-002   -0.34808034770427876     
   6.5999999999999989E-002   -0.36897514527479985     
   6.6299999999999998E-002   -0.36913888035956849     
   6.6600000000000006E-002   -0.34707157223860508     
   6.6900000000000001E-002   -0.30323131236899931     
   6.7199999999999996E-002   -0.24013924313090182     
   6.7500000000000004E-002   -0.16211705900131732     
   6.7800000000000013E-002    -7.5355730657728950E-002
   6.8099999999999994E-002     1.2516433073464948E-002
   6.8400000000000002E-002     9.3193187528650231E-002
   6.8700000000000011E-002    0.15792185302368594     
   6.8999999999999992E-002    0.19864151387030368     
   6.9300000000000000E-002    0.20884928810096126     
   6.9600000000000009E-002    0.18391978054157684     
   6.9900000000000004E-002    0.12211470343062639     
   7.0199999999999999E-002     2.4551740576522194E-002
   7.0500000000000007E-002   -0.10468797054792349     
   7.0800000000000016E-002   -0.25798496703869939     
   7.1099999999999997E-002   -0.42534655983032260     
   7.1400000000000005E-002   -0.59497035840235613     
   7.1700000000000000E-002   -0.75357987479310418     
   7.1999999999999995E-002   -0.88811149886652918     
   7.2300000000000003E-002   -0.98605904314304738     
   7.2600000000000012E-002    -1.0365592625526776     
   7.2900000000000006E-002    -1.0318581286490116     
   7.3200000000000001E-002   -0.96721868101938224     
   7.3499999999999996E-002   -0.84155736648034307     
   7.3800000000000004E-002   -0.65778885193309222     
   7.4099999999999999E-002   -0.42230865614541191     
   7.4400000000000008E-002   -0.14503877707211438     
   7.4700000000000003E-002    0.16122088121907419     
   7.5000000000000011E-002    0.48204943628482666     
   7.5299999999999992E-002    0.80170722297011277     
   7.5600000000000001E-002     1.1039045146214241     
   7.5900000000000009E-002     1.3731574243888511     
   7.6200000000000004E-002     1.5952320642339444     
   7.6499999999999999E-002     1.7577841922846129     
   7.6800000000000007E-002     1.8514887803971121     
   7.7099999999999988E-002     1.8698344975267478     
   7.7399999999999997E-002     1.8098071365781605     
   7.7700000000000005E-002     1.6725896112135166     
   7.8000000000000014E-002     1.4627831618238394     
   7.8299999999999995E-002     1.1888409195534511     
   7.8600000000000003E-002    0.86279324802959700     
   7.8900000000000012E-002    0.49932637489613341     
   7.9199999999999993E-002    0.11571748208132299     
   7.9500000000000001E-002   -0.26947570223499057     
   7.9800000000000010E-002   -0.63760651969975513     
   8.0100000000000018E-002   -0.97048023454235754     
   8.0399999999999999E-002    -1.2518327651371464     
   8.0700000000000008E-002    -1.4683392542608580     
   8.1000000000000003E-002    -1.6101674386793638     
   8.1299999999999997E-002    -1.6717312902252079     
   8.1600000000000006E-002    -1.6520521007241231     
   8.1900000000000014E-002    -1.5543168116361112     
   8.2199999999999995E-002    -1.3855969184385308     
   8.2500000000000004E-002    -1.1564726036627573     
   8.2799999999999999E-002   -0.87964388913317770     
   8.3100000000000007E-002   -0.56924303664840159     
   8.3400000000000002E-002   -0.23999340718696216     
   8.3700000000000011E-002     9.4195413037534731E-002
   8.4000000000000005E-002    0.42021346408386534     
   8.4300000000000000E-002    0.72661567795630611     
   8.4599999999999995E-002     1.0041160755383411     
   8.4900000000000003E-002     1.2449611654223136     
   8.5199999999999998E-002     1.4433483162453979     
   8.5500000000000007E-002     1.5950314123609901     
   8.5800000000000001E-002     1.6967717758932455     
   8.6100000000000010E-002     1.7467345374497800     
   8.6399999999999991E-002     1.7438754236582821     
   8.6699999999999999E-002     1.6879740165314321     
   8.7000000000000008E-002     1.5798801589965434     
   8.7300000000000003E-002     1.4213626784210893     
   8.7599999999999997E-002     1.2155617857992780     
   8.7900000000000006E-002    0.96710083448679307     
   8.8200000000000014E-002    0.68204245123438201     
   8.8499999999999995E-002    0.36766254525800091     
   8.8800000000000004E-002     3.2676887740436131E-002
   8.9100000000000013E-002   -0.31304784402464464     
   8.9399999999999993E-002   -0.65925764670593823     
   8.9700000000000002E-002   -0.99539304316790234     
   9.0000000000000011E-002    -1.3112819342110340     
   9.0299999999999991E-002    -1.5975833179628622     
   9.0600000000000000E-002    -1.8455872865926626     
   9.0900000000000009E-002    -2.0481410439393959     
   9.1200000000000017E-002    -2.1996748932283059     
   9.1499999999999998E-002    -2.2955763883699087     
   9.1800000000000007E-002    -2.3328345408843547     
   9.2100000000000001E-002    -2.3095501082252454     
   9.2399999999999996E-002    -2.2248757506667172     
   9.2700000000000005E-002    -2.0794997825377561     
   9.3000000000000013E-002    -1.8746930941242623     
   9.3300000000000008E-002    -1.6129189070666059     
   9.3600000000000003E-002    -1.2983183137161851     
   9.3899999999999997E-002   -0.93610743590592360     
   9.4200000000000006E-002   -0.53328224976571137     
   9.4500000000000001E-002    -9.8445225639267955E-002
   9.4800000000000009E-002    0.35835944892905314     
   9.5100000000000004E-002    0.82548505591083299     
   9.5399999999999999E-002     1.2900401534710508     
   9.5699999999999993E-002     1.7384975267580862     
   9.6000000000000002E-002     2.1568205796305073     
   9.6300000000000011E-002     2.5311785307643873     
   9.6600000000000005E-002     2.8485921106666803     
   9.6900000000000000E-002     3.0969563308471666     
   9.7200000000000009E-002     3.2659047510363384     
   9.7499999999999989E-002     3.3468600239437376     
   9.7799999999999998E-002     3.3330868243197607     
   9.8100000000000007E-002     3.2205666065653920     
   9.8400000000000015E-002     3.0075472321833958     
   9.8699999999999996E-002     2.6944406883195922     
   9.9000000000000005E-002     2.2849579600505190     
   9.9300000000000013E-002     1.7857404353902546     
   9.9599999999999994E-002     1.2063472691721442     
   9.9900000000000003E-002    0.56014790287052107     
  0.10020000000000001        -0.13633485289912484     
  0.10049999999999999        -0.86318501408581705     
  0.10080000000000000         -1.5966084502421807     
  0.10110000000000001         -2.3106497066330145     
  0.10140000000000000         -2.9774297226810256     
  0.10170000000000000         -3.5678883719229399     
  0.10200000000000001         -4.0539175332863042     
  0.10230000000000002         -4.4092008015813624     
  0.10260000000000000         -4.6111618441202564     
  0.10290000000000001         -4.6431905149144859     
  0.10320000000000000         -4.4948464644847972     
  0.10350000000000001         -4.1635013668349599     
  0.10380000000000000         -3.6560691229724753     
  0.10410000000000001         -2.9881637666988690     
  0.10440000000000001         -2.1839952754646634     
  0.10470000000000000         -1.2759419666341940     
  0.10500000000000000        -0.30269396183954717     
  0.10530000000000000         0.69189912017727506     
  0.10560000000000000          1.6616054418695152     
  0.10590000000000001          2.5606766785563932     
  0.10620000000000000          3.3451410522301877     
  0.10650000000000001          3.9763428042114235     
  0.10679999999999999          4.4230290730111337     
  0.10710000000000000          4.6624156255585500     
  0.10740000000000001          4.6829315316946012     
  0.10770000000000000          4.4837690300580446     
  0.10800000000000000          4.0746155455666395     
  0.10830000000000001          3.4767163207137632     
  0.10859999999999999          2.7204334863047963     
  0.10890000000000000          1.8432825651285301     
  0.10920000000000001         0.88896967784025671     
  0.10950000000000001         -9.5769499891871473E-002
  0.10979999999999999         -1.0635100245291009     
  0.11009999999999999         -1.9680962338099657     
  0.11040000000000001         -2.7672718612225204     
  0.11070000000000001         -3.4242397407372378     
  0.11100000000000000         -3.9094019941570886     
  0.11130000000000000         -4.2019177387257933     
  0.11160000000000002         -4.2901111406480830     
  0.11190000000000001         -4.1719990353159391     
  0.11220000000000001         -3.8553846256111903     
  0.11250000000000000         -3.3572139901749214     
  0.11280000000000000         -2.7031948519933624     
  0.11309999999999999         -1.9264552353052584     
  0.11340000000000001         -1.0653885193909312     
  0.11369999999999998        -0.16247553140397802     
  0.11400000000000000         0.73788416875522023     
  0.11430000000000000          1.5928340663687504     
  0.11460000000000002          2.3625014555248747     
  0.11489999999999999          3.0121312854314342     
  0.11520000000000001          3.5148120595060326     
  0.11550000000000001          3.8522306089742631     
  0.11580000000000000          4.0156336349019828     
  0.11609999999999999          4.0063200424772409     
  0.11640000000000002          3.8342740873316918     
  0.11670000000000001          3.5168080584139290     
  0.11700000000000001          3.0772721949283199     
  0.11730000000000000          2.5424158695697474     
  0.11760000000000000          1.9396830873498856     
  0.11789999999999999          1.2955694239118041     
  0.11820000000000001         0.63369035827540576     
  0.11850000000000001         -2.6514327218097225E-002
  0.11880000000000000        -0.66991443002840223     
  0.11910000000000000         -1.2858493433517593     
  0.11940000000000002         -1.8668056898407290     
  0.11970000000000001         -2.4069032927541687     
  0.12000000000000001         -2.9006460076861038     
  0.12030000000000000         -3.3406057842911956     
  0.12060000000000000         -3.7168746609887178     
  0.12089999999999999         -4.0161891727499572     
  0.12119999999999999         -4.2213169004117503     
  0.12150000000000001         -4.3131052013700444     
  0.12180000000000001         -4.2715388346113556     
  0.12210000000000000         -4.0779167225767479     
  0.12239999999999999         -3.7186435218037528     
  0.12270000000000002         -3.1869321702344333     
  0.12300000000000001         -2.4858377636378188     
  0.12330000000000001         -1.6306760736885511     
  0.12360000000000000        -0.64875657888028970     
  0.12390000000000000         0.42059333616088307     
  0.12419999999999999          1.5273335437125020     
  0.12450000000000001          2.6137636461337967     
  0.12480000000000001          3.6190842214253158     
  0.12509999999999999          4.4833518301676385     
  0.12540000000000001          5.1524454533538488     
  0.12570000000000003          5.5831843857870798     
  0.12600000000000000          5.7464953887610255     
  0.12630000000000002          5.6308461557868226     
  0.12659999999999999          5.2436286172762019     
  0.12690000000000001          4.6102052662954263     
  0.12719999999999998          3.7729783721025520     
  0.12750000000000000          2.7878268143964751     
  0.12780000000000002          1.7196719743945859     
  0.12809999999999999         0.63780151181718125     
  0.12840000000000001        -0.39002052775343049     
  0.12869999999999998         -1.3022686789064024     
  0.12900000000000000         -2.0473814661674763     
  0.12930000000000003         -2.5883270002963688     
  0.12959999999999999         -2.9042387682126831     
  0.12990000000000002         -2.9906638268673347     
  0.13019999999999998         -2.8595254904509138     
  0.13050000000000000         -2.5366447307633782     
  0.13080000000000003         -2.0593030624032909     
  0.13109999999999999         -1.4730619195076342     
  0.13140000000000002        -0.82718185992734372     
  0.13169999999999998        -0.17090870416940016     
  0.13200000000000001         0.44898862842702486     
  0.13229999999999997         0.99209432879324877     
  0.13260000000000000          1.4260444007226767     
  0.13290000000000002          1.7268872839407436     
  0.13319999999999999          1.8807460634257473     
  0.13350000000000001          1.8825995248306966     
  0.13380000000000003          1.7347301686684904     
  0.13410000000000000          1.4462478497663638     
  0.13440000000000002          1.0306283441236122     
  0.13469999999999999         0.50434941569149505     
  0.13500000000000001        -0.11381132655766268     
  0.13529999999999998        -0.80488899563299621     
  0.13560000000000000         -1.5497029356071765     
  0.13590000000000002         -2.3279665265046332     
  0.13619999999999999         -3.1189785978063571     
  0.13650000000000001         -3.8999305971060041     
  0.13680000000000003         -4.6452762114057036     
  0.13710000000000000         -5.3268324564257163     
  0.13740000000000002         -5.9124667057449107     
  0.13769999999999999         -6.3671991382487327     
  0.13800000000000001         -6.6553108350892280     
  0.13829999999999998         -6.7414405054428235     
  0.13860000000000000         -6.5940401253141649     
  0.13890000000000002         -6.1892711739760005     
  0.13919999999999999         -5.5134636834479860     
  0.13950000000000001         -4.5672671057251231     
  0.13979999999999998         -3.3675564695073472     
  0.14010000000000000         -1.9471661861105778     
  0.14040000000000002        -0.35593649801981275     
  0.14069999999999999          1.3420586436512376     
  0.14100000000000001          3.0735266541433202     
  0.14130000000000004          4.7598110075013489     
  0.14160000000000000          6.3237544430037778     
  0.14189999999999997          7.6957308659036459     
  0.14219999999999999          8.8177931159668237     
  0.14250000000000002          9.6498072385851117     
  0.14279999999999998          10.170737561369704     
  0.14310000000000000          10.378741584850255     
  0.14339999999999997          10.291453700184062     
  0.14369999999999999          9.9405263577991771     
  0.14400000000000002          9.3679097836447074     
  0.14429999999999998          8.6216310164286583     
  0.14460000000000001          7.7479690101948862     
  0.14490000000000003          6.7885430662403676     
  0.14520000000000000          5.7774293986329956     
  0.14550000000000002          4.7363817959558308     
  0.14579999999999999          3.6777212538236128     
  0.14610000000000001          2.6044737810899870     
  0.14640000000000003          1.5116815831801218     
  0.14670000000000000         0.39316282429094024     
  0.14699999999999996        -0.75680299119038552     
  0.14729999999999999         -1.9407119856627209     
  0.14760000000000001         -3.1516700466360872     
  0.14789999999999998         -4.3738848030898385     
  0.14820000000000000         -5.5826947124906763     