  -1.4999999999999999E-002     0.0000000000000000     
  -1.4700000000000000E-002     0.0000000000000000     
  -1.4400000000000000E-002     0.0000000000000000     
  -1.4100000000000000E-002     0.0000000000000000     
  -1.3800000000000000E-002     0.0000000000000000     
  -1.3500000000000000E-002     0.0000000000000000     
  -1.3200000000000000E-002     0.0000000000000000     
  -1.2899999999999998E-002     0.0000000000000000     
  -1.2600000000000000E-002     0.0000000000000000     
  -1.2299999999999998E-002     0.0000000000000000     
  -1.2000000000000000E-002     0.0000000000000000     
  -1.1699999999999999E-002     0.0000000000000000     
  -1.1399999999999999E-002     0.0000000000000000     
  -1.1099999999999999E-002     0.0000000000000000     
  -1.0799999999999999E-002     0.0000000000000000     
  -1.0499999999999999E-002     0.0000000000000000     
  -1.0199999999999999E-002     0.0000000000000000     
  -9.8999999999999991E-003     0.0000000000000000     
  -9.5999999999999992E-003     0.0000000000000000     
  -9.2999999999999992E-003     0.0000000000000000     
  -8.9999999999999993E-003     0.0000000000000000     
  -8.6999999999999994E-003     0.0000000000000000     
  -8.3999999999999995E-003     0.0000000000000000     
  -8.0999999999999996E-003     0.0000000000000000     
  -7.7999999999999988E-003     0.0000000000000000     
  -7.4999999999999997E-003     0.0000000000000000     
  -7.1999999999999998E-003     0.0000000000000000     
  -6.8999999999999981E-003     0.0000000000000000     
  -6.5999999999999982E-003     0.0000000000000000     
  -6.3000000000000000E-003     0.0000000000000000     
  -6.0000000000000001E-003     0.0000000000000000     
  -5.6999999999999985E-003     0.0000000000000000     
  -5.3999999999999986E-003     0.0000000000000000     
  -5.1000000000000004E-003     0.0000000000000000     
  -4.7999999999999987E-003     0.0000000000000000     
  -4.5000000000000005E-003     0.0000000000000000     
  -4.1999999999999989E-003     0.0000000000000000     
  -3.8999999999999990E-003     0.0000000000000000     
  -3.5999999999999990E-003     0.0000000000000000     
  -3.2999999999999991E-003     0.0000000000000000     
  -2.9999999999999992E-003     3.3406250229371891E-043
  -2.6999999999999993E-003     1.8376176910466097E-041
  -2.3999999999999994E-003     8.1922587464982435E-041
  -2.0999999999999977E-003    -1.5540166519506822E-038
  -1.7999999999999995E-003    -1.3185929783359742E-039
  -1.4999999999999979E-003     1.6205639757340502E-036
  -1.1999999999999997E-003    -1.2590345008815360E-035
  -8.9999999999999976E-004     7.0855989503260335E-036
  -5.9999999999999810E-004     1.3186508327025994E-034
  -2.9999999999999992E-004    -1.7361654955690657E-033
   0.0000000000000000          5.5420494128075408E-033
   3.0000000000000165E-004     2.5738409481529199E-033
   5.9999999999999984E-004    -6.1444936975100633E-032
   9.0000000000000149E-004     1.3736583777042914E-031
   1.2000000000000031E-003     1.4777684229947434E-031
   1.5000000000000013E-003    -1.3582786247490749E-030
   1.8000000000000030E-003     2.2999384540434568E-030
   2.1000000000000012E-003     3.9974869669026577E-030
   2.3999999999999994E-003    -3.0303985968840342E-029
   2.7000000000000010E-003     6.9474559051122709E-029
   2.9999999999999992E-003    -1.3714273738387067E-030
   3.3000000000000008E-003    -5.7449469462689566E-028
   3.6000000000000025E-003     1.6252076319212441E-027
   3.9000000000000007E-003     5.5456830182192216E-027
   4.2000000000000023E-003    -6.9022575258023025E-026
   4.5000000000000005E-003     2.8160033857927707E-025
   4.7999999999999987E-003    -2.9677880628255427E-025
   5.1000000000000004E-003    -3.1887934278918702E-024
   5.4000000000000020E-003     2.2833278932364403E-023
   5.7000000000000037E-003    -8.4585453179471177E-023
   5.9999999999999984E-003     1.8933457301973845E-022
   6.3000000000000000E-003    -1.2404171582799905E-022
   6.6000000000000017E-003    -1.0324454172372454E-021
   6.9000000000000034E-003     5.6693609852996909E-021
   7.2000000000000015E-003    -1.7765180748922418E-020
   7.5000000000000032E-003     3.9439286521018810E-020
   7.8000000000000014E-003    -5.7749663488914463E-020
   8.0999999999999996E-003     1.2376477355718144E-020
   8.4000000000000012E-003     2.6381630346459565E-019
   8.7000000000000029E-003    -1.1243651764398723E-018
   9.0000000000000011E-003     3.1831941099427123E-018
   9.2999999999999992E-003    -7.6262873741609484E-018
   9.6000000000000009E-003     2.0036055305367757E-017
   9.8999999999999991E-003    -8.2677805443946803E-017
   1.0200000000000001E-002     4.8590416509356325E-016
   1.0500000000000002E-002    -2.9265345255656510E-015
   1.0800000000000004E-002     1.5901384129019887E-014
   1.1099999999999999E-002    -7.5513744487171761E-014
   1.1400000000000000E-002     3.0649274698870503E-013
   1.1700000000000002E-002    -1.0179897452856380E-012
   1.2000000000000004E-002     2.4745305071223218E-012
   1.2300000000000002E-002    -2.5377034439267462E-012
   1.2600000000000000E-002    -1.2181071639579644E-011
   1.2900000000000002E-002     8.0411524936790249E-011
   1.3200000000000000E-002    -2.3488490842360626E-010
   1.3500000000000002E-002     2.6019003642540085E-010
   1.3800000000000003E-002     7.9814816627081244E-010
   1.4100000000000001E-002    -4.0248963055431024E-009
   1.4400000000000000E-002     5.5339293511578485E-009
   1.4700000000000001E-002     9.5704811879479505E-009
   1.4999999999999999E-002    -4.3939979485694348E-008
   1.5300000000000001E-002     2.0898325440245057E-008
   1.5600000000000003E-002     1.5300940884070880E-007
   1.5899999999999997E-002    -1.9629546000934269E-007
   1.6199999999999999E-002    -4.4684344095078171E-007
   1.6500000000000001E-002     6.3477573647802698E-007
   1.6800000000000002E-002     1.4165357061157918E-006
   1.7100000000000004E-002    -1.1802057172762742E-006
   1.7400000000000006E-002    -4.8965025834788999E-006
   1.7700000000000000E-002    -2.0230348188534317E-007
   1.8000000000000002E-002     2.2058141500165248E-005
   1.8300000000000004E-002     6.2188453267436762E-005
   1.8600000000000005E-002     1.1487732889718877E-004
   1.8900000000000000E-002     1.8062947340383075E-004
   1.9200000000000002E-002     2.7202108817547105E-004
   1.9500000000000003E-002     4.1379586581885835E-004
   1.9799999999999998E-002     6.4002785622699625E-004
   2.0100000000000000E-002     9.9094779477363303E-004
   2.0400000000000001E-002     1.5176323105378477E-003
   2.0700000000000003E-002     2.2916000345856611E-003
   2.0999999999999998E-002     3.4108039891985785E-003
   2.1299999999999999E-002     5.0059560637947306E-003
   2.1600000000000001E-002     7.2484130912737876E-003
   2.1900000000000003E-002     1.0354626530293797E-002
   2.2200000000000004E-002     1.4585795153929538E-002
   2.2500000000000006E-002     2.0245533962122818E-002
   2.2800000000000001E-002     2.7678293769278717E-002
   2.3100000000000002E-002     3.7259779885790191E-002
   2.3400000000000004E-002     4.9367027357698517E-002
   2.3699999999999999E-002     6.4339325821513013E-002
   2.4000000000000000E-002     8.2431420791937812E-002
   2.4300000000000002E-002    0.10374825136916402     
   2.4599999999999997E-002    0.12815716303060135     
   2.4900000000000005E-002    0.15519213453407948     
   2.5200000000000000E-002    0.18395311908065515     
   2.5499999999999995E-002    0.21301228840904321     
   2.5800000000000003E-002    0.24033450444509175     
   2.6099999999999998E-002    0.26323975675977518     
   2.6400000000000007E-002    0.27839543305030329     
   2.6700000000000002E-002    0.28191234832169698     
   2.6999999999999996E-002    0.26949935041373041     
   2.7300000000000005E-002    0.23671065829589277     
   2.7600000000000000E-002    0.17932462045560515     
   2.7900000000000008E-002     9.3748740617096621E-002
   2.8200000000000003E-002    -2.2443328638271670E-002
   2.8499999999999998E-002   -0.16998028868464565     
   2.8800000000000006E-002   -0.34742558546371005     
   2.9100000000000001E-002   -0.55072100890149778     
   2.9400000000000003E-002   -0.77295460988318609     
   2.9700000000000004E-002    -1.0043205917356608     
   3.0000000000000006E-002    -1.2323342893818339     
   3.0300000000000001E-002    -1.4423562865263755     
   3.0600000000000002E-002    -1.6183928033429358     
   3.0900000000000004E-002    -1.7441557078193268     
   3.1199999999999999E-002    -1.8043404884861021     
   3.1500000000000007E-002    -1.7859893313460180     
   3.1800000000000002E-002    -1.6797597473282611     
   3.2099999999999997E-002    -1.4811761448186278     
   3.2400000000000005E-002    -1.1913393376630130     
   3.2700000000000000E-002   -0.81747670410658846     
   3.3000000000000002E-002   -0.37288245611609794     
   3.3300000000000003E-002    0.12377810473454054     
   3.3599999999999998E-002    0.64936481460933282     
   3.3900000000000000E-002     1.1778928501551404     
   3.4200000000000001E-002     1.6822490718246128     
   3.4500000000000003E-002     2.1360367317379843     
   3.4799999999999998E-002     2.5156691216000304     
   3.5099999999999999E-002     2.8017878449292852     
   3.5400000000000001E-002     2.9807444634806655     
   3.5699999999999996E-002     3.0453979548489736     
   3.6000000000000004E-002     2.9952503511606210     
   3.6299999999999999E-002     2.8364164450631635     
   3.6600000000000008E-002     2.5807665606572283     
   3.6900000000000002E-002     2.2447695273153450     
   3.7199999999999997E-002     1.8482403781980947     
   3.7500000000000006E-002     1.4125709002767646     
   3.7800000000000000E-002    0.95926982957003193     
   3.8100000000000009E-002    0.50868750287508102     
   3.8400000000000004E-002     7.8679785760350521E-002
   3.8699999999999998E-002   -0.31599652819854174     
   3.9000000000000007E-002   -0.66419457466126564     
   3.9300000000000002E-002   -0.95864018092692316     
   3.9600000000000003E-002    -1.1955723309763060     
   3.9900000000000005E-002    -1.3744795409693036     
   4.0200000000000000E-002    -1.4974136752524190     
   4.0500000000000001E-002    -1.5684234645054764     
   4.0800000000000003E-002    -1.5927528223859519     
   4.1100000000000005E-002    -1.5763526106463055     
   4.1399999999999999E-002    -1.5254155370930964     
   4.1700000000000008E-002    -1.4457830310320015     
   4.2000000000000003E-002    -1.3431490344650243     
   4.2299999999999997E-002    -1.2225328361252148     
   4.2600000000000006E-002    -1.0886743139933182     
   4.2900000000000001E-002   -0.94626724940476614     
   4.3200000000000002E-002   -0.79972936407677109     
   4.3500000000000004E-002   -0.65398563403201537     
   4.3799999999999999E-002   -0.51423801354878196     
   4.4100000000000000E-002   -0.38609258850421790     
   4.4400000000000002E-002   -0.27586212613789551     
   4.4700000000000004E-002   -0.18989792960071311     
   4.4999999999999998E-002   -0.13463569425687874     
   4.5300000000000000E-002   -0.11587458249228499     
   4.5600000000000002E-002   -0.13796189164985390     
   4.5899999999999996E-002   -0.20339985388099718     
   4.6200000000000005E-002   -0.31170661355161156     
   4.6500000000000000E-002   -0.45892761634271417     
   4.6799999999999994E-002   -0.63713502339449091     
   4.7100000000000003E-002   -0.83408493457305888     
   4.7399999999999998E-002    -1.0335453319833459     
   4.7700000000000006E-002    -1.2158381083586747     
   4.8000000000000001E-002    -1.3590525267703897     
   4.8300000000000010E-002    -1.4405027122426919     
   4.8600000000000004E-002    -1.4388368644190122     
   4.8899999999999999E-002    -1.3360308896408106     
   4.9200000000000008E-002    -1.1194713604068562     
   4.9500000000000002E-002   -0.78413840775961696     
   4.9800000000000011E-002   -0.33364825587243435     
   5.0100000000000006E-002    0.21861190369056877     
   5.0400000000000000E-002    0.84969136712666415     
   5.0700000000000009E-002     1.5281844904592305     
   5.1000000000000004E-002     2.2156751004616959     
   5.1299999999999998E-002     2.8699303960788565     
   5.1600000000000007E-002     3.4476727967743250     
   5.1900000000000002E-002     3.9080039672155396     
   5.2200000000000010E-002     4.2160749611152584     
   5.2500000000000005E-002     4.3456676834766306     
   5.2800000000000000E-002     4.2817379169243877     
   5.3099999999999994E-002     4.0217194899324520     
   5.3400000000000003E-002     3.5757741342056910     
   5.3699999999999998E-002     2.9661511586348484     
   5.4000000000000006E-002     2.2251514579241394     
   5.4300000000000001E-002     1.3928285438729824     
   5.4599999999999996E-002    0.51369876102967316     
   5.4900000000000004E-002   -0.36661125760951990     
   5.5199999999999999E-002    -1.2044554364251021     
   5.5499999999999994E-002    -1.9615782630747631     
   5.5800000000000002E-002    -2.6069565594489452     
   5.6099999999999997E-002    -3.1189041654147860     
   5.6400000000000006E-002    -3.4855936777612313     
   5.6700000000000000E-002    -3.7048340779565443     
   5.6999999999999995E-002    -3.7838144457102096     
   5.7300000000000004E-002    -3.7369774154544055     
   5.7599999999999998E-002    -3.5844414111405367     
   5.7900000000000007E-002    -3.3498899229232117     
   5.8200000000000002E-002    -3.0578113037999213     
   5.8499999999999996E-002    -2.7318684641630617     
   5.8800000000000005E-002    -2.3927285346594482     
   5.9100000000000000E-002    -2.0566230400854129     
   5.9400000000000008E-002    -1.7345625201588464     
   5.9700000000000003E-002    -1.4317664696299137     
   6.0000000000000012E-002    -1.1479404087475855     
   6.0300000000000006E-002   -0.87786142008888723     
   6.0600000000000001E-002   -0.61271321702424963     
   6.0900000000000010E-002   -0.34128285282868498     
   6.1200000000000004E-002    -5.2127330526160295E-002
   6.1500000000000013E-002    0.26466796454738750     
   6.1800000000000008E-002    0.61629453085737151     
   6.2100000000000002E-002     1.0047928345010626     
   6.2399999999999997E-002     1.4269536512088465     
   6.2700000000000006E-002     1.8731953863666559     
   6.3000000000000000E-002     2.3275869052773519     
   6.3300000000000009E-002     2.7692545761938145     
   6.3600000000000004E-002     3.1727562002171403     
   6.3899999999999998E-002     3.5107671901185133     
   6.4199999999999993E-002     3.7561433942841482     
   6.4500000000000002E-002     3.8838288096087972     
   6.4800000000000010E-002     3.8742492307025138     
   6.5100000000000005E-002     3.7145189202654043     
   6.5400000000000000E-002     3.4000532109511146     
   6.5700000000000008E-002     2.9360696973047884     
   6.5999999999999989E-002     2.3369973723310231     
   6.6299999999999998E-002     1.6263847840257957     
   6.6600000000000006E-002    0.83529140344194541     
   6.6900000000000001E-002     4.5719637737931529E-005
   6.7199999999999996E-002   -0.83962348708008527     
   6.7500000000000004E-002    -1.6436509287875454     
   6.7800000000000013E-002    -2.3739748090763984     
   6.8099999999999994E-002    -2.9966919336472415     
   6.8400000000000002E-002    -3.4841484082988607     
   6.8700000000000011E-002    -3.8159931751508545     
   6.8999999999999992E-002    -3.9800012565649867     
   6.9300000000000000E-002    -3.9720920954320116     
   6.9600000000000009E-002    -3.7959926120228955     
   6.9900000000000004E-002    -3.4623522037162271     
   7.0199999999999999E-002    -2.9880999228622898     
   7.0500000000000007E-002    -2.3951903178210103     
   7.0800000000000016E-002    -1.7092848584334863     
   7.1099999999999997E-002   -0.95919523416888186     
   7.1400000000000005E-002   -0.17566156147775086     
   7.1700000000000000E-002    0.60931796810083727     
   7.1999999999999995E-002     1.3633833763772538     
   7.2300000000000003E-002     2.0547406587168586     
   7.2600000000000012E-002     2.6530812663771450     
   7.2900000000000006E-002     3.1309006205768193     
   7.3200000000000001E-002     3.4647578371528089     
   7.3499999999999996E-002     3.6370088963470595     
   7.3800000000000004E-002     3.6369459982014138     
   7.4099999999999999E-002     3.4623608212096713     
   7.4400000000000008E-002     3.1207563669935845     
   7.4700000000000003E-002     2.6292395751708577     
   7.5000000000000011E-002     2.0150340910138151     
   7.5299999999999992E-002     1.3139914206715435     
   7.5600000000000001E-002    0.56855017297221333     
   7.5900000000000009E-002   -0.17411314881680018     
   7.6200000000000004E-002   -0.86623978593098405     
   7.6499999999999999E-002    -1.4625401061820233     
   7.6800000000000007E-002    -1.9238256820257056     
   7.7099999999999988E-002    -2.2211842905860988     
   7.7399999999999997E-002    -2.3375816855936109     
   7.7700000000000005E-002    -2.2706375330451771     
   7.8000000000000014E-002    -2.0329569783461263     
   7.8299999999999995E-002    -1.6508528144792973     
   7.8600000000000003E-002    -1.1634879983771451     
   7.8900000000000012E-002   -0.61860802432055362     
   7.9199999999999993E-002    -6.9114199868882009E-002
   7.9500000000000001E-002    0.43119013812015317     
   7.9800000000000010E-002    0.83343172213900640     
   8.0100000000000018E-002     1.0969923348647119     
   8.0399999999999999E-002     1.1936511627558590     
   8.0700000000000008E-002     1.1104692607620144     
   8.1000000000000003E-002    0.85043231054178547     
   8.1299999999999997E-002    0.43318465352275615     
   8.1600000000000006E-002   -0.10692175519067565     
   8.1900000000000014E-002   -0.72364844210331636     
   8.2199999999999995E-002    -1.3623464584464644     
   8.2500000000000004E-002    -1.9648673258072815     
   8.2799999999999999E-002    -2.4746404311909291     
   8.3100000000000007E-002    -2.8411675116301822     
   8.3400000000000002E-002    -3.0249381458905242     
   8.3700000000000011E-002    -3.0009776721485668     
   8.4000000000000005E-002    -2.7608638109379959     
   8.4300000000000000E-002    -2.3146415970610255     
   8.4599999999999995E-002    -1.6897926833239141     
   8.4900000000000003E-002   -0.92920998186533144     
   8.5199999999999998E-002    -8.8555882306730505E-002
   8.5500000000000007E-002    0.76905893203682063     
   8.5800000000000001E-002     1.5779454385168505     
   8.6100000000000010E-002     2.2751021147161437     
   8.6399999999999991E-002     2.8066068662681705     
   8.6699999999999999E-002     3.1311603455144774     
   8.7000000000000008E-002     3.2243725738359132     
   8.7300000000000003E-002     3.0810317648074479     
   8.7599999999999997E-002     2.7145458909350140     
   8.7900000000000006E-002     2.1568035281807134     
   8.8200000000000014E-002     1.4543040164473278     
   8.8499999999999995E-002    0.66374624815890648     
   8.8800000000000004E-002   -0.15228587206306646     
   8.9100000000000013E-002   -0.93203066750511898     
   8.9399999999999993E-002    -1.6194608287073753     
   8.9700000000000002E-002    -2.1685200869175896     
   9.0000000000000011E-002    -2.5474582209086076     
   9.0299999999999991E-002    -2.7402716020063433     
   9.0600000000000000E-002    -2.7470477927579506     
   9.0900000000000009E-002    -2.5833274826903159     
   9.1200000000000017E-002    -2.2768789266413409     
   9.1499999999999998E-002    -1.8645931550561738     
   9.1800000000000007E-002    -1.3885595418144461     
   9.2100000000000001E-002   -0.89111435289554897     
   9.2399999999999996E-002   -0.41178809510889691     
   9.2700000000000005E-002     1.6111114612095821E-002
   9.3000000000000013E-002    0.36807827057878606     
   9.3300000000000008E-002    0.62860755058228224     
   9.3600000000000003E-002    0.79224062530704931     
   9.3899999999999997E-002    0.86219350851736398     
   9.4200000000000006E-002    0.84838743383242021     
   9.4500000000000001E-002    0.76658472114352438     
   9.4800000000000009E-002    0.63531722018509829     
   9.5100000000000004E-002    0.47430023885342498     
   9.5399999999999999E-002    0.30323237820120830     
   9.5699999999999993E-002    0.13966239994342203     
   9.6000000000000002E-002    -4.7563484922000590E-004
   9.6300000000000011E-002   -0.10329929386272939     
   9.6600000000000005E-002   -0.15742308958372475     
   9.6900000000000000E-002   -0.15255670774919650     
   9.7200000000000009E-002    -7.9966786283104829E-002
   9.7499999999999989E-002     6.7960207440870862E-002
   9.7799999999999998E-002    0.29803109579214715     
   9.8100000000000007E-002    0.61500791872345539     
   9.8400000000000015E-002     1.0215540448147320     
   9.8699999999999996E-002     1.5170314819167467     
   9.9000000000000005E-002     2.0958511544007026     
   9.9300000000000013E-002     2.7470733237889426     
   9.9599999999999994E-002     3.4532261937661177     
   9.9900000000000003E-002     4.1897038799565882     
  0.10020000000000001          4.9259382897996078     
  0.10049999999999999          5.6256950021068812     
  0.10080000000000000          6.2485746096781174     
  0.10110000000000001          6.7531885549015271     
  0.10140000000000000          7.0988089152166562     
  0.10170000000000000          7.2487449648904754     
  0.10200000000000001          7.1734761946234435     
  0.10230000000000002          6.8517781088569834     
  0.10260000000000000          6.2735742507547201     
  0.10290000000000001          5.4406449304236251     
  0.10320000000000000          4.3660331979145166     
  0.10350000000000001          3.0746404432065382     
  0.10380000000000000          1.6005171500175925     
  0.10410000000000001         -1.3960717838535586E-002
  0.10440000000000001         -1.7212516297154714     
  0.10470000000000000         -3.4707975442475183     
  0.10500000000000000         -5.2110874216557601     
  0.10530000000000000         -6.8925658982251070     
  0.10560000000000000         -8.4680058986965623     
  0.10590000000000001         -9.8950760293534437     
  0.10620000000000000         -11.136570464488141     
  0.10650000000000001         -12.160316184917733     
  0.10679999999999999         -12.941034313386115     
  0.10710000000000000         -13.458369857535287     
  0.10740000000000001         -13.697407858693143     
  0.10770000000000000         -13.648968569139045     
  0.10800000000000000         -13.308597053285435     
  0.10830000000000001         -12.676909705787512     
  0.10859999999999999         -11.759905441342323     
  0.10890000000000000         -10.569205327490137     
  0.10920000000000001         -9.1216802046296355     
  0.10950000000000001         -7.4411062952134444     
  0.10979999999999999         -5.5578212336249644     
  0.11009999999999999         -3.5087941869196300     
  0.11040000000000001         -1.3394008991973201     
  0.11070000000000001         0.89993695566271081     
  0.11100000000000000          3.1510757523856583     
  0.11130000000000000          5.3515545310600894     
  0.11160000000000002          7.4368383672591101     
  0.11190000000000001          9.3392354664549604     
  0.11220000000000001          10.995657681012855     
  0.11250000000000000          12.346637298645897     
  0.11280000000000000          13.340762122535603     
  0.11309999999999999          13.940004075954654     
  0.11340000000000001          14.117770085073015     
  0.11369999999999998          13.866175998288618     
  0.11400000000000000          13.194467905272138     
  0.11430000000000000          12.128567932816409     
  0.11460000000000002          10.714887509048378     
  0.11489999999999999          9.0131299409336876     
  0.11520000000000001          7.0973391435335440     
  0.11550000000000001          5.0520093842897831     
  0.11580000000000000          2.9653741342644202     
  0.11609999999999999         0.92822744298303217     
  0.11640000000000002        -0.97302140497782164     
  0.11670000000000001         -2.6597995335110096     
  0.11700000000000001         -4.0650862580605631     
  0.11730000000000000         -5.1371041633394015     
  0.11760000000000000         -5.8420512801721740     
  0.11789999999999999         -6.1646729467512920     
  0.11820000000000001         -6.1091009940637111     
  0.11850000000000001         -5.6997159254797349     
  0.11880000000000000         -4.9766077811008760     
  0.11910000000000000         -3.9965728259828799     
  0.11940000000000002         -2.8296019376611445     
  0.11970000000000001         -1.5522706044034482     
  0.12000000000000001        -0.24876220893827161     
  0.12030000000000000         0.99768668937989946     
  0.12060000000000000          2.1084448481113092     
  0.12089999999999999          3.0108430630734135     
  0.12119999999999999          3.6474583995018146     
  0.12150000000000001          3.9747981272898647     
  0.12180000000000001          3.9683346936424240     
  0.12210000000000000          3.6258182539962061     
  0.12239999999999999          2.9633524037156378     
  0.12270000000000002          2.0196993806566397     
  0.12300000000000001         0.85124957558669800     
  0.12330000000000001        -0.47074952735494613     
  0.12360000000000000         -1.8630946569925426     
  0.12390000000000000         -3.2381053750289479     
  0.12419999999999999         -4.5065282866298890     
  0.12450000000000001         -5.5857799995880608     
  0.12480000000000001         -6.4036463013468889     
  0.12509999999999999         -6.9041539707246091     
  0.12540000000000001         -7.0515502831004735     
  0.12570000000000003         -6.8314145875350381     
  0.12600000000000000         -6.2550185414727073     
  0.12630000000000002         -5.3547991714126679     
  0.12659999999999999         -4.1856319187874877     
  0.12690000000000001         -2.8210013895413191     
  0.12719999999999998         -1.3448479316870976     
  0.12750000000000000         0.14829253821902894     
  0.12780000000000002          1.5655483872336691     
  0.12809999999999999          2.8193859439706186     
  0.12840000000000001          3.8320819908035757     
  0.12869999999999998          4.5467572396938198     
  0.12900000000000000          4.9249068370641842     
  0.12930000000000003          4.9540308942998195     
  0.12959999999999999          4.6476139552225151     
  0.12990000000000002          4.0406874135002306     
  0.13019999999999998          3.1925930865097083     
  0.13050000000000000          2.1772728378924535     
  0.13080000000000003          1.0793958536806683     
  0.13109999999999999         -1.1172376631194969E-002
  0.13140000000000002         -1.0102869819388420     
  0.13169999999999998         -1.8426461229329243     
  0.13200000000000001         -2.4500666449462756     
  0.13229999999999997         -2.7962798714267789     
  0.13260000000000000         -2.8681417124632445     
  0.13290000000000002         -2.6781376825294272     
  0.13319999999999999         -2.2614490739616167     
  0.13350000000000001         -1.6732487504525322     
  0.13380000000000003        -0.98278355219211333     
  0.13410000000000000        -0.26683692298061235     
  0.13440000000000002         0.39800992247556977     
  0.13469999999999999         0.94315526294742458     
  0.13500000000000001          1.3133050429355888     
  0.13529999999999998          1.4739022095542005     
  0.13560000000000000          1.4122086185312575     
  0.13590000000000002          1.1398369801072212     
  0.13619999999999999         0.69142277869308721     
  0.13650000000000001         0.11841529812480567     
  0.13680000000000003        -0.51297005607256119     
  0.13710000000000000         -1.1319954723275916     
  0.13740000000000002         -1.6699621525430934     
  0.13769999999999999         -2.0665659715025031     
  0.13800000000000001         -2.2789101179938620     
  0.13829999999999998         -2.2826873609606464     
  0.13860000000000000         -2.0771643376419493     
  0.13890000000000002         -1.6834580424218495     
  0.13919999999999999         -1.1406963932691732     
  0.13950000000000001        -0.50387444705240214     
  0.13979999999999998         0.16642373295614554     
  0.14010000000000000         0.80774274883711084     
  0.14040000000000002          1.3650240866073093     
  0.14069999999999999          1.7966318096895608     
  0.14100000000000001          2.0758698849803783     
  0.14130000000000004          2.1974441776069105     
  0.14160000000000000          2.1720843387026854     
  0.14189999999999997          2.0270417944838535     
  0.14219999999999999          1.8019966344310601     
  0.14250000000000002          1.5395450067075553     
  0.14279999999999998          1.2848291223074226     
  0.14310000000000000          1.0754457034308458     
  0.14339999999999997         0.93872855380202247     
  0.14369999999999999         0.89115344018134901     
  0.14400000000000002         0.93271866674474779     
  0.14429999999999998          1.0528478625110615     
  0.14460000000000001          1.2301922203799798     
  0.14490000000000003          1.4359574955674363     
  0.14520000000000000          1.6407654360810695     
  0.14550000000000002          1.8147500391018743     
  0.14579999999999999          1.9341772794205419     
  0.14610000000000001          1.9828744927625328     
  0.14640000000000003          1.9524594927533356     
  0.14670000000000000          1.8442534930967778     
  0.14699999999999996          1.6664475291850198     
  0.14729999999999999          1.4336386643019696     
  0.14760000000000001          1.1631782827718871     
  0.14789999999999998         0.87370410137835908     
  0.14820000000000000         0.58269560082819161     