  -1.4999999999999999E-002     0.0000000000000000     
  -1.4700000000000000E-002     0.0000000000000000     
  -1.4400000000000000E-002     0.0000000000000000     
  -1.4100000000000000E-002     0.0000000000000000     
  -1.3800000000000000E-002     0.0000000000000000     
  -1.3500000000000000E-002     0.0000000000000000     
  -1.3200000000000000E-002     0.0000000000000000     
  -1.2899999999999998E-002     0.0000000000000000     
  -1.2600000000000000E-002     0.0000000000000000     
  -1.2299999999999998E-002     0.0000000000000000     
  -1.2000000000000000E-002     0.0000000000000000     
  -1.1699999999999999E-002     0.0000000000000000     
  -1.1399999999999999E-002     0.0000000000000000     
  -1.1099999999999999E-002     0.0000000000000000     
  -1.0799999999999999E-002     0.0000000000000000     
  -1.0499999999999999E-002     0.0000000000000000     
  -1.0199999999999999E-002     0.0000000000000000     
  -9.8999999999999991E-003     0.0000000000000000     
  -9.5999999999999992E-003     0.0000000000000000     
  -9.2999999999999992E-003     0.0000000000000000     
  -8.9999999999999993E-003     0.0000000000000000     
  -8.6999999999999994E-003    -3.9199197181354975E-044
  -8.3999999999999995E-003     6.6415013721260931E-038
  -8.0999999999999996E-003    -3.0035839996480858E-036
  -7.7999999999999988E-003     4.0754971674846203E-035
  -7.4999999999999997E-003    -1.4984866239128534E-034
  -7.1999999999999998E-003     8.3610487702131397E-035
  -6.8999999999999981E-003     1.1126713465435034E-033
  -6.5999999999999982E-003    -4.6067554294943408E-033
  -6.3000000000000000E-003     2.2939245990297203E-032
  -6.0000000000000001E-003    -1.9674919765190118E-031
  -5.6999999999999985E-003     1.6591994668158516E-030
  -5.3999999999999986E-003    -1.1229195874264192E-029
  -5.1000000000000004E-003     5.8658799859229407E-029
  -4.7999999999999987E-003    -2.2830311686250455E-028
  -4.5000000000000005E-003     6.0682244601756424E-028
  -4.1999999999999989E-003    -7.4512152979499153E-028
  -3.8999999999999990E-003    -1.8671485575162789E-027
  -3.5999999999999990E-003     1.2924286680932003E-026
  -3.2999999999999991E-003    -3.5699615826636693E-026
  -2.9999999999999992E-003     5.2709949703217856E-026
  -2.6999999999999993E-003    -1.6191585195554976E-026
  -2.3999999999999994E-003    -6.5475015218933755E-026
  -2.0999999999999977E-003    -1.8883576947297122E-025
  -1.7999999999999995E-003     2.0707148592799014E-024
  -1.4999999999999979E-003    -7.9698307522326570E-024
  -1.1999999999999997E-003     1.9690633708525669E-023
  -8.9999999999999976E-004    -3.2687968162503304E-023
  -5.9999999999999810E-004     2.4409130768495863E-023
  -2.9999999999999992E-004     6.3441495287303083E-023
   0.0000000000000000         -3.4493369173741114E-022
   3.0000000000000165E-004     9.9510914817690345E-022
   5.9999999999999984E-004    -2.1855063750576893E-021
   9.0000000000000149E-004     3.8186904614711054E-021
   1.2000000000000031E-003    -4.8214009672244692E-021
   1.5000000000000013E-003     1.6708704549832215E-021
   1.8000000000000030E-003     1.4091806502425864E-020
   2.1000000000000012E-003    -5.9138150403229730E-020
   2.3999999999999994E-003     1.6117102617404879E-019
   2.7000000000000010E-003    -3.5903274868108396E-019
   2.9999999999999992E-003     7.0082101487168765E-019
   3.3000000000000008E-003    -1.2640206221259809E-018
   3.6000000000000025E-003     2.3180133272957080E-018
   3.9000000000000007E-003    -5.0492125644374114E-018
   4.2000000000000023E-003     1.3977102161342453E-017
   4.5000000000000005E-003    -4.3246361817689337E-017
   4.7999999999999987E-003     1.2866584495484608E-016
   5.1000000000000004E-003    -3.3921394310209274E-016
   5.4000000000000020E-003     7.5352255926906367E-016
   5.7000000000000037E-003    -1.3253602842791338E-015
   5.9999999999999984E-003     1.6658434375778365E-015
   6.3000000000000000E-003    -1.7668150053907403E-015
   6.6000000000000017E-003     8.8341957994834135E-015
   6.9000000000000034E-003    -6.6162555081919866E-014
   7.2000000000000015E-003     3.2665455925182282E-013
   7.5000000000000032E-003    -1.0810478465259552E-012
   7.8000000000000014E-003     1.9126458451885351E-012
   8.0999999999999996E-003     3.3234182803220782E-012
   8.4000000000000012E-003    -4.1952566520280355E-011
   8.7000000000000029E-003     1.7855700099950482E-010
   9.0000000000000011E-003    -4.2439488633515922E-010
   9.2999999999999992E-003     2.4937735386790766E-010
   9.6000000000000009E-003     2.2192254910019378E-009
   9.8999999999999991E-003    -8.4901429523653299E-009
   1.0200000000000001E-002     9.4198011583612322E-009
   1.0500000000000002E-002     2.4523418416357862E-008
   1.0800000000000004E-002    -9.2439484605014426E-008
   1.1099999999999999E-002     3.1818773645946564E-008
   1.1400000000000000E-002     3.3554796930554834E-007
   1.1700000000000002E-002    -4.0164841099504645E-007
   1.2000000000000004E-002    -9.6068938195833444E-007
   1.2300000000000002E-002     1.3651647585042117E-006
   1.2600000000000000E-002     2.9670802145422239E-006
   1.2900000000000002E-002    -2.5943915739674458E-006
   1.3200000000000000E-002    -1.0073517045666723E-005
   1.3500000000000002E-002    -5.2210626693759984E-007
   1.3800000000000003E-002     4.1265641702384723E-005
   1.4100000000000001E-002     1.1118666306630773E-004
   1.4400000000000000E-002     1.9536084074971952E-004
   1.4700000000000001E-002     2.9355592442108198E-004
   1.4999999999999999E-002     4.2883095919361836E-004
   1.5300000000000001E-002     6.4362839678002879E-004
   1.5600000000000003E-002     9.9290613432615436E-004
   1.5899999999999997E-002     1.5385521840351642E-003
   1.6199999999999999E-002     2.3546059891040453E-003
   1.6500000000000001E-002     3.5419977679458673E-003
   1.6800000000000002E-002     5.2425142776230515E-003
   1.7100000000000004E-002     7.6498228780352163E-003
   1.7400000000000006E-002     1.1014974367923074E-002
   1.7700000000000000E-002     1.5644529397162776E-002
   1.8000000000000002E-002     2.1897317230400098E-002
   1.8300000000000004E-002     3.0182457617722622E-002
   1.8600000000000005E-002     4.0951746303056175E-002
   1.8900000000000000E-002     5.4673826656284008E-002
   1.9200000000000002E-002     7.1783503373414687E-002
   1.9500000000000003E-002     9.2617546412570625E-002
   1.9799999999999998E-002    0.11733984618996698     
   2.0100000000000000E-002    0.14583904633168798     
   2.0400000000000001E-002    0.17759851614479510     
   2.0700000000000003E-002    0.21155917052888146     
   2.0999999999999998E-002    0.24598237184669910     
   2.1299999999999999E-002    0.27833922920254717     
   2.1600000000000001E-002    0.30523764235879675     
   2.1900000000000003E-002    0.32241590913588858     
   2.2200000000000004E-002    0.32480775407993356     
   2.2500000000000006E-002    0.30673035130939386     
   2.2800000000000001E-002    0.26222454780979754     
   2.3100000000000002E-002    0.18547962103777949     
   2.3400000000000004E-002     7.1468180111704541E-002
   2.3699999999999999E-002    -8.3370250884775871E-002
   2.4000000000000000E-002   -0.28041636135158604     
   2.4300000000000002E-002   -0.51806281524475695     
   2.4599999999999997E-002   -0.79114506396218098     
   2.4900000000000005E-002    -1.0905049732971774     
   2.5200000000000000E-002    -1.4027784670227565     
   2.5499999999999995E-002    -1.7106902122150691     
   2.5800000000000003E-002    -1.9936831635019718     
   2.6099999999999998E-002    -2.2289621211769322     
   2.6400000000000007E-002    -2.3930734926181580     
   2.6700000000000002E-002    -2.4636587417101108     
   2.6999999999999996E-002    -2.4214252759827528     
   2.7300000000000005E-002    -2.2522410729370801     
   2.7600000000000000E-002    -1.9488181536310694     
   2.7900000000000008E-002    -1.5121411867594909     
   2.8200000000000003E-002   -0.95237240631096653     
   2.8499999999999998E-002   -0.28875666144143036     
   2.8800000000000006E-002    0.45099701154825778     
   2.9100000000000001E-002     1.2322528015902727     
   2.9400000000000003E-002     2.0157513057904888     
   2.9700000000000004E-002     2.7600580882642518     
   3.0000000000000006E-002     3.4246934900544299     
   3.0300000000000001E-002     3.9729629854894069     
   3.0600000000000002E-002     4.3747824422249035     
   3.0900000000000004E-002     4.6088155437447238     
   3.1199999999999999E-002     4.6637867605140251     
   3.1500000000000007E-002     4.5393279742164649     
   3.1800000000000002E-002     4.2455223831136522     
   3.2099999999999997E-002     3.8017703448934532     
   3.2400000000000005E-002     3.2352351259218350     
   3.2700000000000000E-002     2.5784436952184273     
   3.3000000000000002E-002     1.8667700972134822     
   3.3300000000000003E-002     1.1360287354086147     
   3.3599999999999998E-002    0.41996459970531574     
   3.3900000000000000E-002   -0.25180056056028804     
   3.4200000000000001E-002   -0.85514102102578415     
   3.4500000000000003E-002    -1.3725198141804431     
   3.4799999999999998E-002    -1.7934765337202361     
   3.5099999999999999E-002    -2.1142560871668445     
   3.5400000000000001E-002    -2.3376988741281362     
   3.5699999999999996E-002    -2.4720148381352036     
   3.6000000000000004E-002    -2.5297161859096517     
   3.6299999999999999E-002    -2.5267414373596768     
   3.6600000000000008E-002    -2.4805938535905581     
   3.6900000000000002E-002    -2.4093379330092555     
   3.7199999999999997E-002    -2.3303822844528317     
   3.7500000000000006E-002    -2.2588269098752574     
   3.7800000000000000E-002    -2.2068561903997326     
   3.8100000000000009E-002    -2.1824578634602849     
   3.8400000000000004E-002    -2.1884750706530212     
   3.8699999999999998E-002    -2.2226530874960839     
   3.9000000000000007E-002    -2.2767884078475520     
   3.9300000000000002E-002    -2.3371519367217592     
   3.9600000000000003E-002    -2.3854452870751892     
   3.9900000000000005E-002    -2.3992311255904419     
   4.0200000000000000E-002    -2.3541242391127799     
   4.0500000000000001E-002    -2.2259003469623364     
   4.0800000000000003E-002    -1.9924499412989030     
   4.1100000000000005E-002    -1.6369795330482424     
   4.1399999999999999E-002    -1.1499843273414796     
   4.1700000000000008E-002   -0.53137575166072570     
   4.2000000000000003E-002    0.20758708569037740     
   4.2299999999999997E-002     1.0443714540791333     
   4.2600000000000006E-002     1.9451097867402958     
   4.2900000000000001E-002     2.8660189269763556     
   4.3200000000000002E-002     3.7564679490596253     
   4.3500000000000004E-002     4.5617450358871592     
   4.3799999999999999E-002     5.2274754941562804     
   4.4100000000000000E-002     5.7039311700507485     
   4.4400000000000002E-002     5.9498232120330243     
   4.4700000000000004E-002     5.9361513385508422     
   4.4999999999999998E-002     5.6487086636429078     
   4.5300000000000000E-002     5.0895131620593705     
   4.5600000000000002E-002     4.2771953378380294     
   4.5899999999999996E-002     3.2458051777684958     
   4.6200000000000005E-002     2.0425071206626439     
   4.6500000000000000E-002    0.72451244474614984     
   4.6799999999999994E-002   -0.64474115154261513     
   4.7100000000000003E-002    -1.9998325655949369     
   4.7399999999999998E-002    -3.2771851009287447     
   4.7700000000000006E-002    -4.4184688194567006     
   4.8000000000000001E-002    -5.3740270929714979     
   4.8300000000000010E-002    -6.1042402384590071     
   4.8600000000000004E-002    -6.5811541552416291     
   4.8899999999999999E-002    -6.7894704771104877     
   4.9200000000000008E-002    -6.7254760733153729     
   4.9500000000000002E-002    -6.3971093286184857     
   4.9800000000000011E-002    -5.8230326949984814     
   5.0100000000000006E-002    -5.0306008889708798     
   5.0400000000000000E-002    -4.0556072137511912     
   5.0700000000000009E-002    -2.9405271298525393     
   5.1000000000000004E-002    -1.7326634780623313     
   5.1299999999999998E-002   -0.48391336513020705     
   5.1600000000000007E-002    0.75208719610386865     
   5.1900000000000002E-002     1.9214370712914091     
   5.2200000000000010E-002     2.9717098643210438     
   5.2500000000000005E-002     3.8553887536147022     
   5.2800000000000000E-002     4.5315640923562510     
   5.3099999999999994E-002     4.9686787983061826     
   5.3400000000000003E-002     5.1477540375635042     
   5.3699999999999998E-002     5.0632966461298539     
   5.4000000000000006E-002     4.7250650960466922     
   5.4300000000000001E-002     4.1587795057400934     
   5.4599999999999996E-002     3.4042824796368101     
   5.4900000000000004E-002     2.5143613200239905     
   5.5199999999999999E-002     1.5513301776529174     
   5.5499999999999994E-002    0.58215212729173060     
   5.5800000000000002E-002   -0.32530492826019158     
   5.6099999999999997E-002    -1.1082243411501151     
   5.6400000000000006E-002    -1.7140244746932289     
   5.6700000000000000E-002    -2.1040691523510877     
   5.6999999999999995E-002    -2.2578851328740055     
   5.7300000000000004E-002    -2.1746541637109837     
   5.7599999999999998E-002    -1.8730887650298356     
   5.7900000000000007E-002    -1.3906627334982380     
   5.8200000000000002E-002   -0.77987798443018397     
   5.8499999999999996E-002   -0.10342149582771440     
   5.8800000000000005E-002    0.57084344889609384     
   5.9100000000000000E-002     1.1766435797538968     
   5.9400000000000008E-002     1.6554438590884186     
   5.9700000000000003E-002     1.9614056941028140     
   6.0000000000000012E-002     2.0664812857001054     
   6.0300000000000006E-002     1.9627827939896896     
   6.0600000000000001E-002     1.6630467777999789     
   6.0900000000000010E-002     1.2004718312601530     
   6.1200000000000004E-002    0.62499675093250839     
   6.1500000000000013E-002    -1.5693385597167870E-003
   6.1800000000000008E-002   -0.61044340577806444     
   6.2100000000000002E-002    -1.1335003128563308     
   6.2399999999999997E-002    -1.5095709178677919     
   6.2700000000000006E-002    -1.6896748077852821     
   6.3000000000000000E-002    -1.6433816666377778     
   6.3300000000000009E-002    -1.3608918953346343     
   6.3600000000000004E-002   -0.85442975089552509     
   6.3899999999999998E-002   -0.15835933659739881     
   6.4199999999999993E-002    0.67546014871322446     
   6.4500000000000002E-002     1.5813607794736102     
   6.4800000000000010E-002     2.4856144733074479     
   6.5100000000000005E-002     3.3147670308628578     
   6.5400000000000000E-002     4.0009244722294772     
   6.5700000000000008E-002     4.4882653804055765     
   6.5999999999999989E-002     4.7385996299857469     
   6.6299999999999998E-002     4.7327597986329017     
   6.6600000000000006E-002     4.4725554836118739     
   6.6900000000000001E-002     3.9794920403163947     
   6.7199999999999996E-002     3.2903214538452286     
   6.7500000000000004E-002     2.4536653777475532     
   6.7800000000000013E-002     1.5241159433967260     
   6.8099999999999994E-002    0.55545215594117858     
   6.8400000000000002E-002   -0.40310607937266563     
   6.8700000000000011E-002    -1.3119715636784739     
   6.8999999999999992E-002    -2.1442792322648816     
   6.9300000000000000E-002    -2.8857669457551163     
   6.9600000000000009E-002    -3.5350100340845154     
   6.9900000000000004E-002    -4.1016096132005977     
   7.0199999999999999E-002    -4.6014264792584196     
   7.0500000000000007E-002    -5.0544775407786826     
   7.0800000000000016E-002    -5.4803288568841557     
   7.1099999999999997E-002    -5.8940551579975127     
   7.1400000000000005E-002    -6.3051788824712309     
   7.1700000000000000E-002    -6.7146379697121841     
   7.1999999999999995E-002    -7.1142413120791463     
   7.2300000000000003E-002    -7.4884464031634232     
   7.2600000000000012E-002    -7.8139578416042106     
   7.2900000000000006E-002    -8.0622698264720540     
   7.3200000000000001E-002    -8.2027279281474659     
   7.3499999999999996E-002    -8.2031628056463237     
   7.3800000000000004E-002    -8.0332409407623082     
   7.4099999999999999E-002    -7.6668311806746106     
   7.4400000000000008E-002    -7.0818244943181856     
   7.4700000000000003E-002    -6.2638018027959479     
   7.5000000000000011E-002    -5.2063877930641302     
   7.5299999999999992E-002    -3.9116474082786468     
   7.5600000000000001E-002    -2.3929881162934596     
   7.5900000000000009E-002   -0.67397181107870030     
   7.6200000000000004E-002     1.2106168935145527     
   7.6499999999999999E-002     3.2137266291808988     
   7.6800000000000007E-002     5.2779906094883637     
   7.7099999999999988E-002     7.3367058746679081     
   7.7399999999999997E-002     9.3146167952867600     
   7.7700000000000005E-002     11.133302258070996     
   7.8000000000000014E-002     12.713025556400698     
   7.8299999999999995E-002     13.977483211288357     
   7.8600000000000003E-002     14.859633828129715     
   7.8900000000000012E-002     15.304979690427070     
   7.9199999999999993E-002     15.276496301946532     
   7.9500000000000001E-002     14.758567246476053     
   7.9800000000000010E-002     13.757956936034082     
   8.0100000000000018E-002     12.305482401544779     
   8.0399999999999999E-002     10.455350489045397     
   8.0700000000000008E-002     8.2817704090598507     
   8.1000000000000003E-002     5.8761179857665393     
   8.1299999999999997E-002     3.3420900378841192     
   8.1600000000000006E-002    0.78934784197945385     
   8.1900000000000014E-002    -1.6718742864174827     
   8.2199999999999995E-002    -3.9362304471865563     
   8.2500000000000004E-002    -5.9093195830033904     
   8.2799999999999999E-002    -7.5127321446471695     
   8.3100000000000007E-002    -8.6862846100091975     
   8.3400000000000002E-002    -9.3920989443861203     
   8.3700000000000011E-002    -9.6159921039814673     
   8.4000000000000005E-002    -9.3667941591832378     
   8.4300000000000000E-002    -8.6768623245396732     
   8.4599999999999995E-002    -7.6005226549423366     
   8.4900000000000003E-002    -6.2098347788964592     
   8.5199999999999998E-002    -4.5934188781616578     
   8.5500000000000007E-002    -2.8509591866291424     
   8.5800000000000001E-002    -1.0873794250076252     
   8.6100000000000010E-002    0.59006972140147840     
   8.6399999999999991E-002     2.0799711924301749     
   8.6699999999999999E-002     3.2920280082730842     
   8.7000000000000008E-002     4.1510517743327826     
   8.7300000000000003E-002     4.6045668019119077     
   8.7599999999999997E-002     4.6242296533149876     
   8.7900000000000006E-002     4.2089836577271669     
   8.8200000000000014E-002     3.3874721831514822     
   8.8499999999999995E-002     2.2135754423420333     
   8.8800000000000004E-002    0.76634820465130460     
   8.9100000000000013E-002   -0.85515114497847722     
   8.9399999999999993E-002    -2.5411536240818773     
   8.9700000000000002E-002    -4.1745427868827036     
   9.0000000000000011E-002    -5.6418259706758862     
   9.0299999999999991E-002    -6.8417174834919976     
   9.0600000000000000E-002    -7.6896140197888352     
   9.0900000000000009E-002    -8.1275412433592376     
   9.1200000000000017E-002    -8.1269699882024202     
   9.1499999999999998E-002    -7.6902644132737539     
   9.1800000000000007E-002    -6.8537609386599074     
   9.2100000000000001E-002    -5.6815817618843418     
   9.2399999999999996E-002    -4.2619751324408961     
   9.2700000000000005E-002    -2.7021028056747229     
   9.3000000000000013E-002    -1.1154495175987824     
   9.3300000000000008E-002    0.38402914943076794     
   9.3600000000000003E-002     1.6919991139163835     
   9.3899999999999997E-002     2.7248979749552094     
   9.4200000000000006E-002     3.4231279749780290     
   9.4500000000000001E-002     3.7582522160449510     
   9.4800000000000009E-002     3.7349653980343760     
   9.5100000000000004E-002     3.3876517707032039     
   9.5399999999999999E-002     2.7797211366167383     
   9.5699999999999993E-002     1.9948976335792274     
   9.6000000000000002E-002     1.1284801443607222     
   9.6300000000000011E-002    0.28008101984106665     
   9.6600000000000005E-002   -0.45856104271711773     
   9.6900000000000000E-002    -1.0112626080462601     
   9.7200000000000009E-002    -1.3236707992062613     
   9.7499999999999989E-002    -1.3695571893954144     
   9.7799999999999998E-002    -1.1510584860899231     
   9.8100000000000007E-002   -0.69722140279662204     
   9.8400000000000015E-002    -6.0571659010919675E-002
   9.8699999999999996E-002    0.69046331169826070     
   9.9000000000000005E-002     1.4794912117949517     
   9.9300000000000013E-002     2.2304579704134295     
   9.9599999999999994E-002     2.8762168121314566     
   9.9900000000000003E-002     3.3652523982906519     
  0.10020000000000001          3.6659268233795910     
  0.10049999999999999          3.7688804899430282     
  0.10080000000000000          3.6867810535661460     
  0.10110000000000001          3.4500693208123105     
  0.10140000000000000          3.1028329385830147     
  0.10170000000000000          2.6964704206202175     
  0.10200000000000001          2.2822028974310764     
  0.10230000000000002          1.9063750048813868     
  0.10260000000000000          1.6043705619965687     
  0.10290000000000001          1.3975626013536950     
  0.10320000000000000          1.2933871592490518     
  0.10350000000000001          1.2845618594515331     
  0.10380000000000000          1.3523768045144133     
  0.10410000000000001          1.4710885105102414     
  0.10440000000000001          1.6105295181765851     
  0.10470000000000000          1.7414073643868355     
  0.10500000000000000          1.8390606282317481     
  0.10530000000000000          1.8847248149249536     
  0.10560000000000000          1.8681569859800859     
  0.10590000000000001          1.7869623462694242     
  0.10620000000000000          1.6451832829297564     
  0.10650000000000001          1.4524889803896395     
  0.10679999999999999          1.2212116392401056     
  0.10710000000000000         0.96405676400296292     
  0.10740000000000001         0.69322280223938371     
  0.10770000000000000         0.41851960509043667     
  0.10800000000000000         0.14669116972170368     
  0.10830000000000001        -0.11744467582816005     
  0.10859999999999999        -0.37207012403210232     
  0.10890000000000000        -0.61719773644274634     
  0.10920000000000001        -0.85307309922518226     
  0.10950000000000001         -1.0816600063148571     
  0.10979999999999999         -1.3056457924574996     
  0.11009999999999999         -1.5277214882343539     
  0.11040000000000001         -1.7527455870794428     
  0.11070000000000001         -1.9857716091296378     
  0.11100000000000000         -2.2321114013369572     
  0.11130000000000000         -2.4982134706383530     
  0.11160000000000002         -2.7877516092436299     
  0.11190000000000001         -3.1021880384852762     
  0.11220000000000001         -3.4398495364852644     
  0.11250000000000000         -3.7924327000029807     
  0.11280000000000000         -4.1479558031814232     
  0.11309999999999999         -4.4898737886703319     
  0.11340000000000001         -4.7979954643756360     
  0.11369999999999998         -5.0542811265584842     
  0.11400000000000000         -5.2428468528744485     
  0.11430000000000000         -5.3539437078901724     
  0.11460000000000002         -5.3880246865550179     
  0.11489999999999999         -5.3531039914806158     
  0.11520000000000001         -5.2666767781199724     
  0.11550000000000001         -5.1529196438222673     
  0.11580000000000000         -5.0354112331098531     
  0.11609999999999999         -4.9353207316323715     
  0.11640000000000002         -4.8639506105688755     
  0.11670000000000001         -4.8172644440514132     
  0.11700000000000001         -4.7762121105343827     
  0.11730000000000000         -4.7034353264500055     
  0.11760000000000000         -4.5480641503326833     
  0.11789999999999999         -4.2525204949055055     
  0.11820000000000001         -3.7577661984876412     
  0.11850000000000001         -3.0164410789010505     
  0.11880000000000000         -2.0004472677879725     
  0.11910000000000000        -0.70673092136992277     
  0.11940000000000002         0.83578033679253394     
  0.11970000000000001          2.5684837567993686     
  0.12000000000000001          4.4079989376037414     
  0.12030000000000000          6.2536691319982634     
  0.12060000000000000          8.0022333462364106     
  0.12089999999999999          9.5609005002141583     
  0.12119999999999999          10.861785672081375     
  0.12150000000000001          11.873487227718098     
  0.12180000000000001          12.607285227311205     
  0.12210000000000000          13.119014441127803     
  0.12239999999999999          13.501707706398914     
  0.12270000000000002          13.872944483803524     
  0.12300000000000001          14.356580364774867     
  0.12330000000000001          15.059638589415499     
  0.12360000000000000          16.050050334117032     
  0.12390000000000000          17.335082598714667     
  0.12419999999999999          18.846164294408471     
  0.12450000000000001          20.433166104592381     
  0.12480000000000001          21.866464236922507     
  0.12509999999999999          22.853191032722393     
  0.12540000000000001          23.062875454323681     
  0.12570000000000003          22.159770737922891     
  0.12600000000000000          19.844726416760579     
  0.12630000000000002          15.895908307135358     
  0.12659999999999999          10.203379693629124     
  0.12690000000000001          2.8018948493743641     
  0.12719999999999998         -6.1137959207136605     
  0.12750000000000000         -16.189391644911101     
  0.12780000000000002         -26.919818305558415     
  0.12809999999999999         -37.686728740382030     
  0.12840000000000001         -47.798743408269075     
  0.12869999999999998         -56.544200023285065     
  0.12900000000000000         -63.253760364032630     
  0.12930000000000003         -67.354880337091487     
  0.12959999999999999         -68.424407021781604     
  0.12990000000000002         -66.227309291557447     
  0.13019999999999998         -60.741770892151727     
  0.13050000000000000         -52.164653088185609     
  0.13080000000000003         -40.899001530114347     
  0.13109999999999999         -27.527446369249674     
  0.13140000000000002         -12.767394825387816     
  0.13169999999999998          2.5797357584887703     
  0.13200000000000001          17.685212900568278     
  0.13229999999999997          31.751720057949871     
  0.13260000000000000          44.064887464475042     
  0.13290000000000002          54.036196984632070     
  0.13319999999999999          61.236880465849850     
  0.13350000000000001          65.414595688455037     
  0.13380000000000003          66.501471560931378     
  0.13410000000000000          64.606337581683661     
  0.13440000000000002          59.994090142971423     
  0.13469999999999999          53.063101891615304     
  0.13500000000000001          44.309157582633837     
  0.13529999999999998          34.288520181359061     
  0.13560000000000000          23.585845442325677     
  0.13590000000000002          12.771906484557276     
  0.13619999999999999          2.3774583444322763     
  0.13650000000000001         -7.1328936536393179     
  0.13680000000000003         -15.387532196861343     
  0.13710000000000000         -22.112609710703939     
  0.13740000000000002         -27.142175424027030     
  0.13769999999999999         -30.420636801262997     
  0.13800000000000001         -31.987159341504803     
  0.13829999999999998         -31.970124774229998     
  0.13860000000000000         -30.570680176912614     
  0.13890000000000002         -28.034671344112247     
  0.13919999999999999         -24.643174703930928     
  0.13950000000000001         -20.685502615734450     
  0.13979999999999998         -16.437457690256089     
  0.14010000000000000         -12.156207738908723     
  0.14040000000000002         -8.0574901020506662     
  0.14069999999999999         -4.3115523323681844     
  0.14100000000000001         -1.0454391036508868     
  0.14130000000000004          1.6667916483608236     
  0.14160000000000000          3.7928925010863770     
  0.14189999999999997          5.3355770177559441     
  0.14219999999999999          6.3323430759230135     
  0.14250000000000002          6.8389677491348930     
  0.14279999999999998          6.9249257349698672     
  0.14310000000000000          6.6707209725780716     
  0.14339999999999997          6.1540440633356148     
  0.14369999999999999          5.4507125917808796     
  0.14400000000000002          4.6337331858574009     
  0.14429999999999998          3.7636188652790161     
  0.14460000000000001          2.8948287240097601     
  0.14490000000000003          2.0738036000350051     
  0.14520000000000000          1.3328942725166220     
  0.14550000000000002         0.69924272822621247     
  0.14579999999999999         0.18957237567062735     
  0.14610000000000001        -0.19150430879851357     
  0.14640000000000003        -0.44287751798808989     
  0.14670000000000000        -0.57396508356060238     
  0.14699999999999996        -0.60146088010453203     
  0.14729999999999999        -0.54219997246793350     
  0.14760000000000001        -0.42032206206059891     
  0.14789999999999998        -0.25944411801842754     
  0.14820000000000000         -7.8900554350104207E-002