  -1.4999999999999999E-002     0.0000000000000000     
  -1.4700000000000000E-002     0.0000000000000000     
  -1.4400000000000000E-002     0.0000000000000000     
  -1.4100000000000000E-002     0.0000000000000000     
  -1.3800000000000000E-002     0.0000000000000000     
  -1.3500000000000000E-002     0.0000000000000000     
  -1.3200000000000000E-002     0.0000000000000000     
  -1.2899999999999998E-002     0.0000000000000000     
  -1.2600000000000000E-002     0.0000000000000000     
  -1.2299999999999998E-002     0.0000000000000000     
  -1.2000000000000000E-002     0.0000000000000000     
  -1.1699999999999999E-002     0.0000000000000000     
  -1.1399999999999999E-002     0.0000000000000000     
  -1.1099999999999999E-002     0.0000000000000000     
  -1.0799999999999999E-002     0.0000000000000000     
  -1.0499999999999999E-002     0.0000000000000000     
  -1.0199999999999999E-002     0.0000000000000000     
  -9.8999999999999991E-003     0.0000000000000000     
  -9.5999999999999992E-003     0.0000000000000000     
  -9.2999999999999992E-003     0.0000000000000000     
  -8.9999999999999993E-003     0.0000000000000000     
  -8.6999999999999994E-003     0.0000000000000000     
  -8.3999999999999995E-003     0.0000000000000000     
  -8.0999999999999996E-003     0.0000000000000000     
  -7.7999999999999988E-003     0.0000000000000000     
  -7.4999999999999997E-003     0.0000000000000000     
  -7.1999999999999998E-003     0.0000000000000000     
  -6.8999999999999981E-003     0.0000000000000000     
  -6.5999999999999982E-003     0.0000000000000000     
  -6.3000000000000000E-003     0.0000000000000000     
  -6.0000000000000001E-003     0.0000000000000000     
  -5.6999999999999985E-003     0.0000000000000000     
  -5.3999999999999986E-003     0.0000000000000000     
  -5.1000000000000004E-003     0.0000000000000000     
  -4.7999999999999987E-003     0.0000000000000000     
  -4.5000000000000005E-003     0.0000000000000000     
  -4.1999999999999989E-003     0.0000000000000000     
  -3.8999999999999990E-003     0.0000000000000000     
  -3.5999999999999990E-003     0.0000000000000000     
  -3.2999999999999991E-003     0.0000000000000000     
  -2.9999999999999992E-003     0.0000000000000000     
  -2.6999999999999993E-003     0.0000000000000000     
  -2.3999999999999994E-003     0.0000000000000000     
  -2.0999999999999977E-003     0.0000000000000000     
  -1.7999999999999995E-003     0.0000000000000000     
  -1.4999999999999979E-003     0.0000000000000000     
  -1.1999999999999997E-003     0.0000000000000000     
  -8.9999999999999976E-004     0.0000000000000000     
  -5.9999999999999810E-004     0.0000000000000000     
  -2.9999999999999992E-004     0.0000000000000000     
   0.0000000000000000          0.0000000000000000     
   3.0000000000000165E-004     0.0000000000000000     
   5.9999999999999984E-004     0.0000000000000000     
   9.0000000000000149E-004     0.0000000000000000     
   1.2000000000000031E-003     0.0000000000000000     
   1.5000000000000013E-003     0.0000000000000000     
   1.8000000000000030E-003     0.0000000000000000     
   2.1000000000000012E-003     0.0000000000000000     
   2.3999999999999994E-003     0.0000000000000000     
   2.7000000000000010E-003     0.0000000000000000     
   2.9999999999999992E-003     0.0000000000000000     
   3.3000000000000008E-003     0.0000000000000000     
   3.6000000000000025E-003     0.0000000000000000     
   3.9000000000000007E-003     0.0000000000000000     
   4.2000000000000023E-003     0.0000000000000000     
   4.5000000000000005E-003     0.0000000000000000     
   4.7999999999999987E-003     0.0000000000000000     
   5.1000000000000004E-003     0.0000000000000000     
   5.4000000000000020E-003     0.0000000000000000     
   5.7000000000000037E-003     0.0000000000000000     
   5.9999999999999984E-003     0.0000000000000000     
   6.3000000000000000E-003     0.0000000000000000     
   6.6000000000000017E-003     0.0000000000000000     
   6.9000000000000034E-003     0.0000000000000000     
   7.2000000000000015E-003     0.0000000000000000     
   7.5000000000000032E-003     0.0000000000000000     
   7.8000000000000014E-003     0.0000000000000000     
   8.0999999999999996E-003     0.0000000000000000     
   8.4000000000000012E-003     0.0000000000000000     
   8.7000000000000029E-003     0.0000000000000000     
   9.0000000000000011E-003     0.0000000000000000     
   9.2999999999999992E-003     0.0000000000000000     
   9.6000000000000009E-003     0.0000000000000000     
   9.8999999999999991E-003     0.0000000000000000     
   1.0200000000000001E-002     0.0000000000000000     
   1.0500000000000002E-002     0.0000000000000000     
   1.0800000000000004E-002     1.0788343216654934E-073
   1.1099999999999999E-002     1.2865055451906473E-044
   1.1400000000000000E-002     6.5363132937814482E-043
   1.1700000000000002E-002     1.5010463657506285E-037
   1.2000000000000004E-002    -2.8086928664603331E-035
   1.2300000000000002E-002     6.4281853276823207E-035
   1.2600000000000000E-002     1.7130096625302518E-033
   1.2900000000000002E-002    -8.4935020980552904E-033
   1.3200000000000000E-002    -4.4670326562142136E-032
   1.3500000000000002E-002     4.8710392779071239E-031
   1.3800000000000003E-002    -3.6319670243958810E-031
   1.4100000000000001E-002    -1.2936531422825559E-029
   1.4400000000000000E-002     6.1043919565549541E-029
   1.4700000000000001E-002     5.3412537041410275E-029
   1.4999999999999999E-002    -1.4722949761379788E-027
   1.5300000000000001E-002     4.9923950316450569E-027
   1.5600000000000003E-002     3.7823260875808192E-027
   1.5899999999999997E-002    -8.6658918643487937E-026
   1.6199999999999999E-002     2.8656031535653776E-025
   1.6500000000000001E-002    -9.5329199964639926E-026
   1.6800000000000002E-002    -2.4982927460261517E-024
   1.7100000000000004E-002     9.0263141963608146E-024
   1.7400000000000006E-002    -6.1759460916644457E-024
   1.7700000000000000E-002    -6.3596326684631518E-023
   1.8000000000000002E-002     2.8547297820461529E-022
   1.8300000000000004E-002    -4.7708239106449602E-022
   1.8600000000000005E-002    -9.3828045806477882E-022
   1.8900000000000000E-002     1.0378805730880747E-020
   1.9200000000000002E-002    -5.1364313967602200E-020
   1.9500000000000003E-002     2.1733913600501909E-019
   1.9799999999999998E-002    -9.0515185539707864E-019
   2.0100000000000000E-002     3.7945927409327217E-018
   2.0400000000000001E-002    -1.5774281508305007E-017
   2.0700000000000003E-002     6.4342717072198579E-017
   2.0999999999999998E-002    -2.5730676411076860E-016
   2.1299999999999999E-002     1.0077959695304965E-015
   2.1600000000000001E-002    -3.8256969286474408E-015
   2.1900000000000003E-002     1.3734255805415125E-014
   2.2200000000000004E-002    -4.4712053202525468E-014
   2.2500000000000006E-002     1.2254310458227371E-013
   2.2800000000000001E-002    -2.3356755121168488E-013
   2.3100000000000002E-002     6.1209221795247559E-015
   2.3400000000000004E-002     2.3510928294914092E-012
   2.3699999999999999E-002    -1.1698860722363499E-011
   2.4000000000000000E-002     3.2622574392078588E-011
   2.4300000000000002E-002    -4.1758243320483257E-011
   2.4599999999999997E-002    -7.7397290687394170E-011
   2.4900000000000005E-002     5.0708548291500565E-010
   2.5200000000000000E-002    -9.3427230108759447E-010
   2.5499999999999995E-002    -5.0629185200756961E-010
   2.5800000000000003E-002     5.5636092752702335E-009
   2.6099999999999998E-002    -6.5271796659360511E-009
   2.6400000000000007E-002    -1.5120771984923032E-008
   2.6700000000000002E-002     3.8579288328910348E-008
   2.6999999999999996E-002     3.2587474307976678E-008
   2.7300000000000005E-002    -1.4493427160417748E-007
   2.7600000000000000E-002    -1.2899244315417234E-007
   2.7900000000000008E-002     3.7646359811721803E-007
   2.8200000000000003E-002     5.4440324319011828E-007
   2.8499999999999998E-002    -6.4087911292583508E-007
   2.8800000000000006E-002    -1.8041692425162368E-006
   2.9100000000000001E-002     4.4818349785618600E-007
   2.9400000000000003E-002     6.8663596697825104E-006
   2.9700000000000004E-002     1.3383234808289351E-005
   3.0000000000000006E-002     1.6729831762907534E-005
   3.0300000000000001E-002     2.1173670423274830E-005
   3.0600000000000002E-002     3.5823109953587758E-005
   3.0900000000000004E-002     6.4900486344514742E-005
   3.1199999999999999E-002     1.0525918146681676E-004
   3.1500000000000007E-002     1.5661384020906346E-004
   3.1800000000000002E-002     2.3122541379812006E-004
   3.2099999999999997E-002     3.4937626530986472E-004
   3.2400000000000005E-002     5.2753596342910612E-004
   3.2700000000000000E-002     7.7780256036957709E-004
   3.3000000000000002E-002     1.1212278452219033E-003
   3.3300000000000003E-002     1.5967642150238920E-003
   3.3599999999999998E-002     2.2538087347184024E-003
   3.3900000000000000E-002     3.1407273158944806E-003
   3.4200000000000001E-002     4.3070790074696361E-003
   3.4500000000000003E-002     5.8152163233067657E-003
   3.4799999999999998E-002     7.7415342632923588E-003
   3.5099999999999999E-002     1.0162381259406203E-002
   3.5400000000000001E-002     1.3140324491808250E-002
   3.5699999999999996E-002     1.6721810409428866E-002
   3.6000000000000004E-002     2.0937771956509418E-002
   3.6299999999999999E-002     2.5791959564758774E-002
   3.6600000000000008E-002     3.1238641560389597E-002
   3.6900000000000002E-002     3.7165245241284929E-002
   3.7199999999999997E-002     4.3387579195768328E-002
   3.7500000000000006E-002     4.9647717340333797E-002
   3.7800000000000000E-002     5.5609794929575553E-002
   3.8100000000000009E-002     6.0855428310839260E-002
   3.8400000000000004E-002     6.4890245358717624E-002
   3.8699999999999998E-002     6.7170323863709150E-002
   3.9000000000000007E-002     6.7145095708084288E-002
   3.9300000000000002E-002     6.4298548580095080E-002
   3.9600000000000003E-002     5.8183137288278911E-002
   3.9900000000000005E-002     4.8471207668609850E-002
   4.0200000000000000E-002     3.5019291374618115E-002
   4.0500000000000001E-002     1.7921338416473559E-002
   4.0800000000000003E-002    -2.4602674712833920E-003
   4.1100000000000005E-002    -2.5488307393289812E-002
   4.1399999999999999E-002    -5.0262930420962700E-002
   4.1700000000000008E-002    -7.5641869813223225E-002
   4.2000000000000003E-002   -0.10028745943854564     
   4.2299999999999997E-002   -0.12275860421797628     
   4.2600000000000006E-002   -0.14162666274371893     
   4.2900000000000001E-002   -0.15559292431400146     
   4.3200000000000002E-002   -0.16358587625686655     
   4.3500000000000004E-002   -0.16485965589859039     
   4.3799999999999999E-002   -0.15908511156088237     
   4.4100000000000000E-002   -0.14641459281124619     
   4.4400000000000002E-002   -0.12750272267636775     
   4.4700000000000004E-002   -0.10346239449678905     
   4.4999999999999998E-002    -7.5786414156792131E-002
   4.5300000000000000E-002    -4.6266780493392022E-002
   4.5600000000000002E-002    -1.6890578335559601E-002
   4.5899999999999996E-002     1.0315063432507132E-002
   4.6200000000000005E-002     3.3437393544954244E-002
   4.6500000000000000E-002     5.0814262909580583E-002
   4.6799999999999994E-002     6.1138237152696027E-002
   4.7100000000000003E-002     6.3528899840782693E-002
   4.7399999999999998E-002     5.7588207492836378E-002
   4.7700000000000006E-002     4.3434028372743801E-002
   4.8000000000000001E-002     2.1700017692646744E-002
   4.8300000000000010E-002    -6.5160680090573918E-003
   4.8600000000000004E-002    -3.9746498723197035E-002
   4.8899999999999999E-002    -7.6213717643732887E-002
   4.9200000000000008E-002   -0.11390176614851093     
   4.9500000000000002E-002   -0.15066751445341506     
   4.9800000000000011E-002   -0.18436625327005407     
   5.0100000000000006E-002   -0.21296924161859429     
   5.0400000000000000E-002   -0.23463791460163094     
   5.0700000000000009E-002   -0.24780027419576037     
   5.1000000000000004E-002   -0.25126905547268313     
   5.1299999999999998E-002   -0.24432848116976461     
   5.1600000000000007E-002   -0.22677607434247249     
   5.1900000000000002E-002   -0.19892341831077726     
   5.2200000000000010E-002   -0.16158670932062352     
   5.2500000000000005E-002   -0.11608037140596597     
   5.2800000000000000E-002    -6.4148637710890744E-002
   5.3099999999999994E-002    -7.8466690128650204E-003
   5.3400000000000003E-002     5.0601055749916225E-002
   5.3699999999999998E-002    0.10891457316514358     
   5.4000000000000006E-002    0.16488314316184952     
   5.4300000000000001E-002    0.21652618901350024     
   5.4599999999999996E-002    0.26220394219133997     
   5.4900000000000004E-002    0.30068601378176096     
   5.5199999999999999E-002    0.33119003319180029     
   5.5499999999999994E-002    0.35338927754539856     
   5.5800000000000002E-002    0.36739651882784080     
   5.6099999999999997E-002    0.37369217048740844     
   5.6400000000000006E-002    0.37303350955475939     
   5.6700000000000000E-002    0.36635334873784720     
   5.6999999999999995E-002    0.35465817208462935     
   5.7300000000000004E-002    0.33894748990021450     
   5.7599999999999998E-002    0.32012285225477877     
   5.7900000000000007E-002    0.29892419121594149     
   5.8200000000000002E-002    0.27589703829282392     
   5.8499999999999996E-002    0.25136969586154284     
   5.8800000000000005E-002    0.22548360573856277     
   5.9100000000000000E-002    0.19822812849352195     
   5.9400000000000008E-002    0.16947818378285934     
   5.9700000000000003E-002    0.13905810183076409     
   6.0000000000000012E-002    0.10681882635565558     
   6.0300000000000006E-002     7.2731210744174810E-002
   6.0600000000000001E-002     3.6944661564842343E-002
   6.0900000000000010E-002    -1.4822088654884653E-004
   6.1200000000000004E-002    -3.7851185083679462E-002
   6.1500000000000013E-002    -7.5161854225410635E-002
   6.1800000000000008E-002   -0.11078671728502591     
   6.2100000000000002E-002   -0.14318504623124931     
   6.2399999999999997E-002   -0.17063708304266700     
   6.2700000000000006E-002   -0.19136783112332068     
   6.3000000000000000E-002   -0.20372814913614457     
   6.3300000000000009E-002   -0.20635583256421530     
   6.3600000000000004E-002   -0.19833317858259969     
   6.3899999999999998E-002   -0.17933121439029676     
   6.4199999999999993E-002   -0.14970950518840892     
   6.4500000000000002E-002   -0.11060773671250554     
   6.4800000000000010E-002    -6.3956287591549588E-002
   6.5100000000000005E-002    -1.2361034031481236E-002
   6.5400000000000000E-002     4.1054373416003986E-002
   6.5700000000000008E-002     9.2826556377672273E-002
   6.5999999999999989E-002    0.13936931369570771     
   6.6299999999999998E-002    0.17726631937415474     
   6.6600000000000006E-002    0.20358227560581510     
   6.6900000000000001E-002    0.21603454805473588     
   6.7199999999999996E-002    0.21316231637858241     
   6.7500000000000004E-002    0.19447645011204248     
   6.7800000000000013E-002    0.16049929475956690     
   6.8099999999999994E-002    0.11272671106495631     
   6.8400000000000002E-002     5.3494802727038535E-002
   6.8700000000000011E-002    -1.4159495141664568E-002
   6.8999999999999992E-002    -8.6670911870952244E-002
   6.9300000000000000E-002   -0.16016766737797217     
   6.9600000000000009E-002   -0.23067939924945369     
   6.9900000000000004E-002   -0.29437851313964492     
   7.0199999999999999E-002   -0.34779461794275301     
   7.0500000000000007E-002   -0.38792597900998027     
   7.0800000000000016E-002   -0.41236844297553527     
   7.1099999999999997E-002   -0.41948180924692452     
   7.1400000000000005E-002   -0.40849023403169188     
   7.1700000000000000E-002   -0.37952019848392177     
   7.1999999999999995E-002   -0.33359010767953201     
   7.2300000000000003E-002   -0.27256707722724643     
   7.2600000000000012E-002   -0.19916372955108383     
   7.2900000000000006E-002   -0.11684552357514871     
   7.3200000000000001E-002    -2.9576648906206170E-002
   7.3499999999999996E-002     5.8413285387452413E-002
   7.3800000000000004E-002    0.14280084507084137     
   7.4099999999999999E-002    0.21944060517639796     
   7.4400000000000008E-002    0.28465373709082964     
   7.4700000000000003E-002    0.33544545003241116     
   7.5000000000000011E-002    0.36965669976829002     
   7.5299999999999992E-002    0.38607283298506684     
   7.5600000000000001E-002    0.38446896133816827     
   7.5900000000000009E-002    0.36548511950834917     
   7.6200000000000004E-002    0.33050392667396578     
   7.6499999999999999E-002    0.28149719396750839     
   7.6800000000000007E-002    0.22074481404476134     
   7.7099999999999988E-002    0.15062401395685623     
   7.7399999999999997E-002     7.3468010214021273E-002
   7.7700000000000005E-002    -8.6032889204609095E-003
   7.8000000000000014E-002    -9.3778242969390233E-002
   7.8299999999999995E-002   -0.18054517555880992     
   7.8600000000000003E-002   -0.26759196666222029     
   7.8900000000000012E-002   -0.35368992599136750     
   7.9199999999999993E-002   -0.43759118548559994     
   7.9500000000000001E-002   -0.51784225597577183     
   7.9800000000000010E-002   -0.59268947931122606     
   8.0100000000000018E-002   -0.66002186751327963     
   8.0399999999999999E-002   -0.71735486051059227     
   8.0700000000000008E-002   -0.76195945961226730     
   8.1000000000000003E-002   -0.79102757079877062     
   8.1299999999999997E-002   -0.80186536218281657     
   8.1600000000000006E-002   -0.79213162297041884     
   8.1900000000000014E-002   -0.76016207237583855     
   8.2199999999999995E-002   -0.70519746657528515     
   8.2500000000000004E-002   -0.62751508653180965     
   8.2799999999999999E-002   -0.52855915297118661     
   8.3100000000000007E-002   -0.41095256848548228     
   8.3400000000000002E-002   -0.27835610153575568     
   8.3700000000000011E-002   -0.13526041091520830     
   8.4000000000000005E-002     1.3225872954475856E-002
   8.4300000000000000E-002    0.16168674596620872     
   8.4599999999999995E-002    0.30479697822149937     
   8.4900000000000003E-002    0.43761931396322468     
   8.5199999999999998E-002    0.55584926971201898     
   8.5500000000000007E-002    0.65600295406396947     
   8.5800000000000001E-002    0.73553617267874860     
   8.6100000000000010E-002    0.79282642764632894     
   8.6399999999999991E-002    0.82714827096325061     
   8.6699999999999999E-002    0.83861524961335132     
   8.7000000000000008E-002    0.82802672160151891     
   8.7300000000000003E-002    0.79672629492602576     
   8.7599999999999997E-002    0.74649191658877179     
   8.7900000000000006E-002    0.67952699151510521     
   8.8200000000000014E-002    0.59843326245152972     
   8.8499999999999995E-002    0.50625169876764731     
   8.8800000000000004E-002    0.40643081657290980     
   8.9100000000000013E-002    0.30282697674799974     
   8.9399999999999993E-002    0.19973464922330739     
   8.9700000000000002E-002    0.10175312954949976     
   9.0000000000000011E-002     1.3599313259137148E-002
   9.0299999999999991E-002    -6.0175511906318875E-002
   9.0600000000000000E-002   -0.11546457472797074     
   9.0900000000000009E-002   -0.14895956780578370     
   9.1200000000000017E-002   -0.15860513301406132     
   9.1499999999999998E-002   -0.14387995327224981     
   9.1800000000000007E-002   -0.10597047400135666     
   9.2100000000000001E-002    -4.7913589202315657E-002
   9.2399999999999996E-002     2.5475889945409787E-002
   9.2700000000000005E-002    0.10785248260847136     
   9.3000000000000013E-002    0.19172650737290006     
   9.3300000000000008E-002    0.26904280611949866     
   9.3600000000000003E-002    0.33185480554267804     
   9.3899999999999997E-002    0.37298746237902891     
   9.4200000000000006E-002    0.38665173512882467     
   9.4500000000000001E-002    0.36900699857878150     
   9.4800000000000009E-002    0.31868145201000042     
   9.5100000000000004E-002    0.23697726346645681     
   9.5399999999999999E-002    0.12781439231177394     
   9.5699999999999993E-002    -2.4780209963892641E-003
   9.6000000000000002E-002   -0.14554780407288867     
   9.6300000000000011E-002   -0.29164786545535820     
   9.6600000000000005E-002   -0.43038629023168662     
   9.6900000000000000E-002   -0.55149598457574966     
   9.7200000000000009E-002   -0.64562155251295750     
   9.7499999999999989E-002   -0.70499850572742218     
   9.7799999999999998E-002   -0.72407508903164031     
   9.8100000000000007E-002   -0.69997210037241009     
   9.8400000000000015E-002   -0.63265771120188896     
   9.8699999999999996E-002   -0.52495110231203579     
   9.9000000000000005E-002   -0.38238131999662212     
   9.9300000000000013E-002   -0.21292772764122420     
   9.9599999999999994E-002    -2.6570104258586111E-002
   9.9900000000000003E-002    0.16537372894046964     
  0.10020000000000001         0.35087260619567129     
  0.10049999999999999         0.51775556653101507     
  0.10080000000000000         0.65448623543347562     
  0.10110000000000001         0.75087761307970735     
  0.10140000000000000         0.79869692732328468     
  0.10170000000000000         0.79214726895457699     
  0.10200000000000001         0.72831480534098669     
  0.10230000000000002         0.60759984127909528     
  0.10260000000000000         0.43380968302696832     
  0.10290000000000001         0.21400430694113926     
  0.10320000000000000         -4.1794064139337429E-002
  0.10350000000000001        -0.32100166792842089     
  0.10380000000000000        -0.60908128924895810     
  0.10410000000000001        -0.89043905661345313     
  0.10440000000000001         -1.1493931071157930     
  0.10470000000000000         -1.3710582534556455     
  0.10500000000000000         -1.5421899856557593     
  0.10530000000000000         -1.6520076112704851     
  0.10560000000000000         -1.6928801857039084     
  0.10590000000000001         -1.6607172802708963     
  0.10620000000000000         -1.5550723366797659     
  0.10650000000000001         -1.3790120136577457     
  0.10679999999999999         -1.1389143657004765     
  0.10710000000000000        -0.84406835951891579     
  0.10740000000000001        -0.50599932825222760     
  0.10770000000000000        -0.13764162914814482     
  0.10800000000000000         0.24736957883296448     
  0.10830000000000001         0.63531974324570584     
  0.10859999999999999          1.0130080440005917     
  0.10890000000000000          1.3683505626327213     
  0.10920000000000001          1.6908274364263036     
  0.10950000000000001          1.9716149124998266     
  0.10979999999999999          2.2036808344715393     
  0.11009999999999999          2.3817842848745006     
  0.11040000000000001          2.5023296730061140     
  0.11070000000000001          2.5631266473959911     
  0.11100000000000000          2.5630391436196969     
  0.11130000000000000          2.5018163455348659     
  0.11160000000000002          2.3799420047433526     
  0.11190000000000001          2.1984384604773832     
  0.11220000000000001          1.9588169292442656     
  0.11250000000000000          1.6631692959706423     
  0.11280000000000000          1.3145218079934227     
  0.11309999999999999         0.91714424433448827     
  0.11340000000000001         0.47669755635418970     
  0.11369999999999998          5.7759096587461152E-004
  0.11400000000000000        -0.50174716517385776     
  0.11430000000000000         -1.0186264979580866     
  0.11460000000000002         -1.5363143077107890     
  0.11489999999999999         -2.0393603551342898     
  0.11520000000000001         -2.5109458782138692     
  0.11550000000000001         -2.9335499721588687     
  0.11580000000000000         -3.2898825213449059     
  0.11609999999999999         -3.5636061307109346     
  0.11640000000000002         -3.7401510404327794     
  0.11670000000000001         -3.8078094673200482     
  0.11700000000000001         -3.7585242935211460     
  0.11730000000000000         -3.5883051068839391     
  0.11760000000000000         -3.2976103859740573     
  0.11789999999999999         -2.8917838062135517     
  0.11820000000000001         -2.3810902411213326     
  0.11850000000000001         -1.7803369151410702     
  0.11880000000000000         -1.1085139876935264     
  0.11910000000000000        -0.38825432652016884     
  0.11940000000000002         0.35508264557181862     
  0.11970000000000001          1.0944159446621191     
  0.12000000000000001          1.8017848220624728     
  0.12030000000000000          2.4496384599251977     
  0.12060000000000000          3.0122860630099657     
  0.12089999999999999          3.4669314761117729     
  0.12119999999999999          3.7948035266303490     
  0.12150000000000001          3.9821778866784694     
  0.12180000000000001          4.0210787390206884     
  0.12210000000000000          3.9097777872219730     
  0.12239999999999999          3.6529129881138949     
  0.12270000000000002          3.2613130757335806     
  0.12300000000000001          2.7514496753900901     
  0.12330000000000001          2.1444757614468903     
  0.12360000000000000          1.4652406309123513     
  0.12390000000000000         0.74112701675010506     
  0.12419999999999999          6.2006958853426863E-004
  0.12450000000000001        -0.72774892601959740     
  0.12480000000000001         -1.4164508185296183     
  0.12509999999999999         -2.0400904221748335     
  0.12540000000000001         -2.5761030866544412     
  0.12570000000000003         -3.0053011227121766     
  0.12600000000000000         -3.3123523082450905     
  0.12630000000000002         -3.4861029454330370     
  0.12659999999999999         -3.5198837517562813     
  0.12690000000000001         -3.4118202809348124     
  0.12719999999999998         -3.1651071042758998     
  0.12750000000000000         -2.7880883960821747     
  0.12780000000000002         -2.2942209786443337     
  0.12809999999999999         -1.7020509572169724     
  0.12840000000000001         -1.0351826065166769     
  0.12869999999999998        -0.32147039985448445     
  0.12900000000000000         0.40829247201933838     
  0.12930000000000003          1.1215568060292940     
  0.12959999999999999          1.7854878332967095     
  0.12990000000000002          2.3688050059215082     
  0.13019999999999998          2.8437250488616161     
  0.13050000000000000          3.1879945678464710     
  0.13080000000000003          3.3862553533055131     
  0.13109999999999999          3.4308749114059638     
  0.13140000000000002          3.3225828033049867     
  0.13169999999999998          3.0704706451818389     
  0.13200000000000001          2.6912334602663210     
  0.13229999999999997          2.2078018713627880     
  0.13260000000000000          1.6476449181592390     
  0.13290000000000002          1.0408777289404139     
  0.13319999999999999         0.41813777716190975     
  0.13350000000000001        -0.19129868497090888     
  0.13380000000000003        -0.76095366460775760     
  0.13410000000000000         -1.2685233419474600     
  0.13440000000000002         -1.6970342514796062     
  0.13469999999999999         -2.0349898496553971     
  0.13500000000000001         -2.2761159135129172     
  0.13529999999999998         -2.4192741139924165     
  0.13560000000000000         -2.4680266635863743     
  0.13590000000000002         -2.4298456010368015     
  0.13619999999999999         -2.3151083337054295     
  0.13650000000000001         -2.1364081310486718     
  0.13680000000000003         -1.9080294845867696     
  0.13710000000000000         -1.6451011258440189     
  0.13740000000000002         -1.3626897972891141     
  0.13769999999999999         -1.0752262596809634     
  0.13800000000000001        -0.79583205764572129     
  0.13829999999999998        -0.53565874265738833     
  0.13860000000000000        -0.30337536259783915     
  0.13890000000000002        -0.10442128767851501     
  0.13919999999999999          5.9383007820261895E-002
  0.13950000000000001         0.18979931838104494     
  0.13979999999999998         0.29200827128774598     
  0.14010000000000000         0.37421459486447001     
  0.14040000000000002         0.44692256442233580     
  0.14069999999999999         0.52185081030172664     
  0.14100000000000001         0.61054832777906576     
  0.14130000000000004         0.72307310174441441     
  0.14160000000000000         0.86663806800222598     
  0.14189999999999997          1.0444262922004268     
  0.14219999999999999          1.2548241561648299     
  0.14250000000000002          1.4909423749941138     
  0.14279999999999998          1.7404293152883348     
  0.14310000000000000          1.9861882179915928     
  0.14339999999999997          2.2076691888189752     
  0.14369999999999999          2.3822347406989763     
  0.14400000000000002          2.4867607744937086     
  0.14429999999999998          2.4996766075846986     
  0.14460000000000001          2.4034129369002484     
  0.14490000000000003          2.1862238336626056     
  0.14520000000000000          1.8433399738510921     
  0.14550000000000002          1.3780868212918647     
  0.14579999999999999         0.80282566590486903     
  0.14610000000000001         0.13880924624034782     
  0.14640000000000003        -0.58491114667266131     
  0.14670000000000000         -1.3328952894761033     
  0.14699999999999996         -2.0651420711773318     
  0.14729999999999999         -2.7396165663561525     
  0.14760000000000001         -3.3151235007336246     
  0.14789999999999998         -3.7539526840736106     
  0.14820000000000000         -4.0246221351909899     