  -1.4999999999999999E-002     0.0000000000000000     
  -1.4700000000000000E-002     0.0000000000000000     
  -1.4400000000000000E-002     0.0000000000000000     
  -1.4100000000000000E-002     0.0000000000000000     
  -1.3800000000000000E-002     0.0000000000000000     
  -1.3500000000000000E-002     0.0000000000000000     
  -1.3200000000000000E-002     0.0000000000000000     
  -1.2899999999999998E-002     0.0000000000000000     
  -1.2600000000000000E-002     0.0000000000000000     
  -1.2299999999999998E-002     0.0000000000000000     
  -1.2000000000000000E-002     0.0000000000000000     
  -1.1699999999999999E-002     0.0000000000000000     
  -1.1399999999999999E-002     0.0000000000000000     
  -1.1099999999999999E-002     0.0000000000000000     
  -1.0799999999999999E-002     0.0000000000000000     
  -1.0499999999999999E-002     0.0000000000000000     
  -1.0199999999999999E-002     0.0000000000000000     
  -9.8999999999999991E-003     0.0000000000000000     
  -9.5999999999999992E-003     0.0000000000000000     
  -9.2999999999999992E-003     0.0000000000000000     
  -8.9999999999999993E-003     0.0000000000000000     
  -8.6999999999999994E-003     0.0000000000000000     
  -8.3999999999999995E-003     0.0000000000000000     
  -8.0999999999999996E-003     0.0000000000000000     
  -7.7999999999999988E-003     0.0000000000000000     
  -7.4999999999999997E-003     0.0000000000000000     
  -7.1999999999999998E-003     0.0000000000000000     
  -6.8999999999999981E-003     0.0000000000000000     
  -6.5999999999999982E-003     0.0000000000000000     
  -6.3000000000000000E-003     0.0000000000000000     
  -6.0000000000000001E-003     0.0000000000000000     
  -5.6999999999999985E-003     0.0000000000000000     
  -5.3999999999999986E-003     0.0000000000000000     
  -5.1000000000000004E-003     0.0000000000000000     
  -4.7999999999999987E-003     0.0000000000000000     
  -4.5000000000000005E-003     0.0000000000000000     
  -4.1999999999999989E-003     0.0000000000000000     
  -3.8999999999999990E-003     0.0000000000000000     
  -3.5999999999999990E-003     0.0000000000000000     
  -3.2999999999999991E-003     0.0000000000000000     
  -2.9999999999999992E-003     0.0000000000000000     
  -2.6999999999999993E-003     0.0000000000000000     
  -2.3999999999999994E-003     0.0000000000000000     
  -2.0999999999999977E-003     0.0000000000000000     
  -1.7999999999999995E-003     0.0000000000000000     
  -1.4999999999999979E-003     0.0000000000000000     
  -1.1999999999999997E-003     0.0000000000000000     
  -8.9999999999999976E-004    -1.2039748340682845E-036
  -5.9999999999999810E-004     2.4032027774359401E-035
  -2.9999999999999992E-004     5.4405988194508536E-035
   0.0000000000000000         -3.1371214413323557E-034
   3.0000000000000165E-004    -4.0324856160378551E-034
   5.9999999999999984E-004     4.4301487427653116E-033
   9.0000000000000149E-004    -5.2354769837777837E-033
   1.2000000000000031E-003    -2.0951482336598583E-032
   1.5000000000000013E-003     8.4167170515345527E-032
   1.8000000000000030E-003    -3.3014684544645217E-032
   2.1000000000000012E-003    -4.2209354924750293E-031
   2.3999999999999994E-003     8.1690171170281505E-031
   2.7000000000000010E-003     9.3102679068177637E-033
   2.9999999999999992E-003    -2.9677661206424961E-031
   3.3000000000000008E-003     2.4422856803305675E-030
   3.6000000000000025E-003    -8.5425019906346876E-029
   3.9000000000000007E-003     5.7105171002042614E-028
   4.2000000000000023E-003    -1.0857047764389081E-027
   4.5000000000000005E-003    -9.8555613044128020E-027
   4.7999999999999987E-003     9.5905838507954375E-026
   5.1000000000000004E-003    -3.9522705421335940E-025
   5.4000000000000020E-003     5.2155016128337487E-025
   5.7000000000000037E-003     3.8258495670075245E-024
   5.9999999999999984E-003    -2.9351753545733396E-023
   6.3000000000000000E-003     1.0503240559822124E-022
   6.6000000000000017E-003    -1.8586918505586570E-022
   6.9000000000000034E-003    -1.9687257037157391E-022
   7.2000000000000015E-003     2.5805541049016517E-021
   7.5000000000000032E-003    -9.2845304580623377E-021
   7.8000000000000014E-003     1.7535734616461216E-020
   8.0999999999999996E-003     7.2801748986183180E-022
   8.4000000000000012E-003    -1.3720649030630794E-019
   8.7000000000000029E-003     5.7526234340969682E-019
   9.0000000000000011E-003    -1.5244383444366124E-018
   9.2999999999999992E-003     3.0720522216854292E-018
   9.6000000000000009E-003    -6.0370610682519025E-018
   9.8999999999999991E-003     2.0202859103286910E-017
   1.0200000000000001E-002    -1.0770308474469147E-016
   1.0500000000000002E-002     5.6832432631723890E-016
   1.0800000000000004E-002    -2.6371328962237518E-015
   1.1099999999999999E-002     1.0783515465122295E-014
   1.1400000000000000E-002    -3.8720440834758355E-014
   1.1700000000000002E-002     1.1689088553427235E-013
   1.2000000000000004E-002    -2.5342697233289579E-013
   1.2300000000000002E-002     7.1605942746424955E-014
   1.2600000000000000E-002     2.8734367316096687E-012
   1.2900000000000002E-002    -1.8019802663915563E-011
   1.3200000000000000E-002     6.7597455410961516E-011
   1.3500000000000002E-002    -1.6119616752519050E-010
   1.3800000000000003E-002     1.3475902338466739E-010
   1.4100000000000001E-002     7.0146016772909547E-010
   1.4400000000000000E-002    -3.3113600750311889E-009
   1.4700000000000001E-002     5.4493458634397030E-009
   1.4999999999999999E-002     4.8137973607254025E-009
   1.5300000000000001E-002    -3.7946712438952090E-008
   1.5600000000000003E-002     4.3214001266278501E-008
   1.5899999999999997E-002     1.0106390391229070E-007
   1.6199999999999999E-002    -2.6618965875968570E-007
   1.6500000000000001E-002    -2.1401902472462098E-007
   1.6800000000000002E-002     9.0067527480641729E-007
   1.7100000000000004E-002     7.6168652185515384E-007
   1.7400000000000006E-002    -2.4274406769109191E-006
   1.7700000000000000E-002    -3.9027045204420574E-006
   1.8000000000000002E-002     6.1197756622277666E-006
   1.8300000000000004E-002     3.3275118767051026E-005
   1.8600000000000005E-002     7.4647898145485669E-005
   1.8900000000000000E-002     1.2648907431866974E-004
   1.9200000000000002E-002     1.9361285376362503E-004
   1.9500000000000003E-002     2.9227120103314519E-004
   1.9799999999999998E-002     4.4910353608429432E-004
   2.0100000000000000E-002     6.9752580020576715E-004
   2.0400000000000001E-002     1.0772506939247251E-003
   2.0700000000000003E-002     1.6409717500209808E-003
   2.0999999999999998E-002     2.4622634518891573E-003
   2.1299999999999999E-002     3.6425152793526649E-003
   2.1600000000000001E-002     5.3174556232988834E-003
   2.1900000000000003E-002     7.6614366844296455E-003
   2.2200000000000004E-002     1.0888705961406231E-002
   2.2500000000000006E-002     1.5253674238920212E-002
   2.2800000000000001E-002     2.1052639931440353E-002
   2.3100000000000002E-002     2.8620326891541481E-002
   2.3400000000000004E-002     3.8310214877128601E-002
   2.3699999999999999E-002     5.0464008003473282E-002
   2.4000000000000000E-002     6.5379709005355835E-002
   2.4300000000000002E-002     8.3262383937835693E-002
   2.4599999999999997E-002    0.10415580123662949     
   2.4900000000000005E-002    0.12785248458385468     
   2.5200000000000000E-002    0.15380813181400299     
   2.5499999999999995E-002    0.18105734884738922     
   2.5800000000000003E-002    0.20812475681304932     
   2.6099999999999998E-002    0.23296418786048889     
   2.6400000000000007E-002    0.25292599201202393     
   2.6700000000000002E-002    0.26479107141494751     
   2.6999999999999996E-002    0.26486045122146606     
   2.7300000000000005E-002    0.24912908673286438     
   2.7600000000000000E-002    0.21353803575038910     
   2.7900000000000008E-002    0.15435394644737244     
   2.8200000000000003E-002     6.8535223603248596E-002
   2.8499999999999998E-002    -4.5714881271123886E-002
   2.8800000000000006E-002   -0.18856784701347351     
   2.9100000000000001E-002   -0.35806760191917419     
   2.9400000000000003E-002   -0.54981225728988647     
   2.9700000000000004E-002   -0.75679612159729004     
   3.0000000000000006E-002   -0.96939814090728760     
   3.0300000000000001E-002    -1.1757587194442749     
   3.0600000000000002E-002    -1.3621838092803955     
   3.0900000000000004E-002    -1.5140650272369385     
   3.1199999999999999E-002    -1.6168465614318848     
   3.1500000000000007E-002    -1.6571664810180664     
   3.1800000000000002E-002    -1.6241859197616577     
   3.2099999999999997E-002    -1.5105640888214111     
   3.2400000000000005E-002    -1.3135505914688110     
   3.2700000000000000E-002    -1.0356110334396362     
   3.3000000000000002E-002   -0.68460077047348022     
   3.3300000000000003E-002   -0.27370846271514893     
   3.3599999999999998E-002    0.17929099500179291     
   3.3900000000000000E-002    0.65302687883377075     
   3.4200000000000001E-002     1.1240651607513428     
   3.4500000000000003E-002     1.5682731866836548     
   3.4799999999999998E-002     1.9629421234130859     
   3.5099999999999999E-002     2.2879564762115479     
   3.5400000000000001E-002     2.5274732112884521     
   3.5699999999999996E-002     2.6708924770355225     
   3.6000000000000004E-002     2.7132177352905273     
   3.6299999999999999E-002     2.6556057929992676     
   3.6600000000000008E-002     2.5045886039733887     
   3.6900000000000002E-002     2.2716300487518311     
   3.7199999999999997E-002     1.9718459844589233     
   3.7500000000000006E-002     1.6227520704269409     
   3.7800000000000000E-002     1.2430478334426880     
   3.8100000000000009E-002    0.85100156068801880     
   3.8400000000000004E-002    0.46376821398735046     
   3.8699999999999998E-002     9.6104227006435394E-002
   3.9000000000000007E-002   -0.24004468321800232     
   3.9300000000000002E-002   -0.53576028347015381     
   3.9600000000000003E-002   -0.78556066751480103     
   3.9900000000000005E-002   -0.98668950796127319     
   4.0200000000000000E-002    -1.1390947103500366     
   4.0500000000000001E-002    -1.2447302341461182     
   4.0800000000000003E-002    -1.3068872690200806     
   4.1100000000000005E-002    -1.3301548957824707     
   4.1399999999999999E-002    -1.3193495273590088     
   4.1700000000000008E-002    -1.2796493768692017     
   4.2000000000000003E-002    -1.2161451578140259     
   4.2299999999999997E-002    -1.1336259841918945     
   4.2600000000000006E-002    -1.0371493101119995     
   4.2900000000000001E-002   -0.93128687143325806     
   4.3200000000000002E-002   -0.82102251052856445     
   4.3500000000000004E-002   -0.71150428056716919     
   4.3799999999999999E-002   -0.60792469978332520     
   4.4100000000000000E-002   -0.51610183715820312     
   4.4400000000000002E-002   -0.44167804718017578     
   4.4700000000000004E-002   -0.39046293497085571     
   4.4999999999999998E-002   -0.36765730381011963     
   4.5300000000000000E-002   -0.37729176878929138     
   4.5600000000000002E-002   -0.42195886373519897     
   4.5899999999999996E-002   -0.50173324346542358     
   4.6200000000000005E-002   -0.61384809017181396     
   4.6500000000000000E-002   -0.75220018625259399     
   4.6799999999999994E-002   -0.90698242187500000     
   4.7100000000000003E-002    -1.0648443698883057     
   4.7399999999999998E-002    -1.2093875408172607     
   4.7700000000000006E-002    -1.3218525648117065     
   4.8000000000000001E-002    -1.3825521469116211     
   4.8300000000000010E-002    -1.3724708557128906     
   4.8600000000000004E-002    -1.2748808860778809     
   4.8899999999999999E-002    -1.0777791738510132     
   4.9200000000000008E-002   -0.77484011650085449     
   4.9500000000000002E-002   -0.36757040023803711     
   4.9800000000000011E-002    0.13415187597274780     
   5.0100000000000006E-002    0.71206253767013550     
   5.0400000000000000E-002     1.3393319845199585     
   5.0700000000000009E-002     1.9831088781356812     
   5.1000000000000004E-002     2.6054913997650146     
   5.1299999999999998E-002     3.1669707298278809     
   5.1600000000000007E-002     3.6295449733734131     
   5.1900000000000002E-002     3.9588630199432373     
   5.2200000000000010E-002     4.1285486221313477     
   5.2500000000000005E-002     4.1210851669311523     
   5.2800000000000000E-002     3.9302289485931396     
   5.3099999999999994E-002     3.5616700649261475     
   5.3400000000000003E-002     3.0319163799285889     
   5.3699999999999998E-002     2.3681473731994629     
   5.4000000000000006E-002     1.6051514148712158     
   5.4300000000000001E-002    0.78301745653152466     
   5.4599999999999996E-002    -5.5740654468536377E-002
   5.4900000000000004E-002   -0.86978107690811157     
   5.5199999999999999E-002    -1.6212941408157349     
   5.5499999999999994E-002    -2.2786469459533691     
   5.5800000000000002E-002    -2.8181519508361816     
   5.6099999999999997E-002    -3.2250881195068359     
   5.6400000000000006E-002    -3.4938275814056396     
   5.6700000000000000E-002    -3.6276891231536865     
   5.6999999999999995E-002    -3.6373345851898193     
   5.7300000000000004E-002    -3.5397114753723145     
   5.7599999999999998E-002    -3.3556575775146484     
   5.7900000000000007E-002    -3.1079206466674805     
   5.8200000000000002E-002    -2.8196892738342285     
   5.8499999999999996E-002    -2.5114490985870361     
   5.8800000000000005E-002    -2.2009668350219727     
   5.9100000000000000E-002    -1.9008911848068237     
   5.9400000000000008E-002    -1.6183997392654419     
   5.9700000000000003E-002    -1.3557528257369995     
   6.0000000000000012E-002    -1.1086508035659790     
   6.0300000000000006E-002   -0.86949568986892700     
   6.0600000000000001E-002   -0.62667137384414673     
   6.0900000000000010E-002   -0.36655184626579285     
   6.1200000000000004E-002    -7.6352000236511230E-002
   6.1500000000000013E-002    0.25603091716766357     
   6.1800000000000008E-002    0.63766795396804810     
   6.2100000000000002E-002     1.0708042383193970     
   6.2399999999999997E-002     1.5510351657867432     
   6.2700000000000006E-002     2.0661001205444336     
   6.3000000000000000E-002     2.5971820354461670     
   6.3300000000000009E-002     3.1180903911590576     
   6.3600000000000004E-002     3.5981695652008057     
   6.3899999999999998E-002     4.0038571357727051     
   6.4199999999999993E-002     4.3013195991516113     
   6.4500000000000002E-002     4.4598703384399414     
   6.4800000000000010E-002     4.4546771049499512     
   6.5100000000000005E-002     4.2695546150207520     
   6.5400000000000000E-002     3.8988466262817383     
   6.5700000000000008E-002     3.3490862846374512     
   6.5999999999999989E-002     2.6382982730865479     
   6.6299999999999998E-002     1.7961063385009766     
   6.6600000000000006E-002    0.86130869388580322     
   6.6900000000000001E-002   -0.12062570452690125     
   6.7199999999999996E-002    -1.1005802154541016     
   6.7500000000000004E-002    -2.0301659107208252     
   6.7800000000000013E-002    -2.8638491630554199     
   6.8099999999999994E-002    -3.5630080699920654     
   6.8400000000000002E-002    -4.0978341102600098     
   6.8700000000000011E-002    -4.4483375549316406     
   6.8999999999999992E-002    -4.6058049201965332     
   6.9300000000000000E-002    -4.5713920593261719     
   6.9600000000000009E-002    -4.3555874824523926     
   6.9900000000000004E-002    -3.9762766361236572     
   7.0199999999999999E-002    -3.4565277099609375     
   7.0500000000000007E-002    -2.8231487274169922     
   7.0800000000000016E-002    -2.1043112277984619     
   7.1099999999999997E-002    -1.3285640478134155     
   7.1400000000000005E-002   -0.52370166778564453     
   7.1700000000000000E-002    0.28368544578552246     
   7.1999999999999995E-002     1.0680649280548096     
   7.2300000000000003E-002     1.8049417734146118     
   7.2600000000000012E-002     2.4709506034851074     
   7.2900000000000006E-002     3.0433814525604248     
   7.3200000000000001E-002     3.5005815029144287     
   7.3499999999999996E-002     3.8232445716857910     
   7.3800000000000004E-002     3.9944636821746826     
   7.4099999999999999E-002     4.0022759437561035     
   7.4400000000000008E-002     3.8406698703765869     
   7.4700000000000003E-002     3.5108287334442139     
   7.5000000000000011E-002     3.0236101150512695     
   7.5299999999999992E-002     2.3983182907104492     
   7.5600000000000001E-002     1.6642768383026123     
   7.5900000000000009E-002    0.85923629999160767     
   7.6200000000000004E-002     2.6747304946184158E-002
   7.6499999999999999E-002   -0.78492546081542969     
   7.6800000000000007E-002    -1.5279561281204224     
   7.7099999999999988E-002    -2.1573932170867920     
   7.7399999999999997E-002    -2.6351594924926758     
   7.7700000000000005E-002    -2.9335722923278809     
   7.8000000000000014E-002    -3.0372312068939209     
   7.8299999999999995E-002    -2.9451665878295898     
   7.8600000000000003E-002    -2.6708638668060303     
   7.8900000000000012E-002    -2.2413022518157959     
   7.9199999999999993E-002    -1.6954045295715332     
   7.9500000000000001E-002    -1.0807391405105591     
   7.9800000000000010E-002   -0.44899079203605652     
   8.0100000000000018E-002    0.14664296805858612     
   8.0399999999999999E-002    0.65725249052047729     
   8.0700000000000008E-002     1.0412176847457886     
   8.1000000000000003E-002     1.2668778896331787     
   8.1299999999999997E-002     1.3167651891708374     
   8.1600000000000006E-002     1.1864352226257324     
   8.1900000000000014E-002    0.88715481758117676     
   8.2199999999999995E-002    0.44369989633560181     
   8.2500000000000004E-002   -0.10798311978578568     
   8.2799999999999999E-002   -0.72087895870208740     
   8.3100000000000007E-002    -1.3436456918716431     
   8.3400000000000002E-002    -1.9218205213546753     
   8.3700000000000011E-002    -2.4025545120239258     
   8.4000000000000005E-002    -2.7397556304931641     
   8.4300000000000000E-002    -2.8957369327545166     
   8.4599999999999995E-002    -2.8465113639831543     
   8.4900000000000003E-002    -2.5828678607940674     
   8.5199999999999998E-002    -2.1121213436126709     
   8.5500000000000007E-002    -1.4589699506759644     
   8.5800000000000001E-002   -0.66301578283309937     
   8.6100000000000010E-002    0.22259004414081573     
   8.6399999999999991E-002     1.1348900794982910     
   8.6699999999999999E-002     2.0062813758850098     
   8.7000000000000008E-002     2.7696986198425293     
   8.7300000000000003E-002     3.3635759353637695     
   8.7599999999999997E-002     3.7383716106414795     
   8.7900000000000006E-002     3.8595225811004639     
   8.8200000000000014E-002     3.7119758129119873     
   8.8499999999999995E-002     3.3019587993621826     
   8.8800000000000004E-002     2.6556150913238525     
   8.9100000000000013E-002     1.8194495439529419     
   8.9399999999999993E-002    0.85409438610076904     
   8.9700000000000002E-002   -0.16856729984283447     
   9.0000000000000011E-002    -1.1718447208404541     
   9.0299999999999991E-002    -2.0820763111114502     
   9.0600000000000000E-002    -2.8320333957672119     
   9.0900000000000009E-002    -3.3693692684173584     
   9.1200000000000017E-002    -3.6586763858795166     
   9.1499999999999998E-002    -3.6843590736389160     
   9.1800000000000007E-002    -3.4530010223388672     
   9.2100000000000001E-002    -2.9894666671752930     
   9.2399999999999996E-002    -2.3366482257843018     
   9.2700000000000005E-002    -1.5496797561645508     
   9.3000000000000013E-002   -0.69112300872802734     
   9.3300000000000008E-002    0.17398986220359802     
   9.3600000000000003E-002    0.98505163192749023     
   9.3899999999999997E-002     1.6891440153121948     
   9.4200000000000006E-002     2.2455756664276123     
   9.4500000000000001E-002     2.6284165382385254     
   9.4800000000000009E-002     2.8271768093109131     
   9.5100000000000004E-002     2.8461086750030518     
   9.5399999999999999E-002     2.7031893730163574     
   9.5699999999999993E-002     2.4262783527374268     
   9.6000000000000002E-002     2.0497510433197021     
   9.6300000000000011E-002     1.6121116876602173     
   9.6600000000000005E-002     1.1498006582260132     
   9.6900000000000000E-002    0.69707840681076050     
   9.7200000000000009E-002    0.28191772103309631     
   9.7499999999999989E-002    -7.5565561652183533E-002
   9.7799999999999998E-002   -0.36110657453536987     
   9.8100000000000007E-002   -0.56922054290771484     
   9.8400000000000015E-002   -0.69869935512542725     
   9.8699999999999996E-002   -0.75299292802810669     
   9.9000000000000005E-002   -0.73799049854278564     
   9.9300000000000013E-002   -0.65881210565567017     
   9.9599999999999994E-002   -0.52172899246215820     
   9.9900000000000003E-002   -0.32987165451049805     
  0.10020000000000001         -8.5673078894615173E-002
  0.10049999999999999         0.20876684784889221     
  0.10080000000000000         0.55226325988769531     
  0.10110000000000001         0.94062691926956177     
  0.10140000000000000          1.3672623634338379     
  0.10170000000000000          1.8210675716400146     
  0.10200000000000001          2.2854475975036621     
  0.10230000000000002          2.7395205497741699     
  0.10260000000000000          3.1581959724426270     
  0.10290000000000001          3.5137984752655029     
  0.10320000000000000          3.7789797782897949     
  0.10350000000000001          3.9278767108917236     
  0.10380000000000000          3.9396655559539795     
  0.10410000000000001          3.8016214370727539     
  0.10440000000000001          3.5076682567596436     
  0.10470000000000000          3.0622227191925049     
  0.10500000000000000          2.4783470630645752     
  0.10530000000000000          1.7752228975296021     
  0.10560000000000000         0.97941547632217407     
  0.10590000000000001         0.11781016737222672     
  0.10620000000000000        -0.78092992305755615     
  0.10650000000000001         -1.6908245086669922     
  0.10679999999999999         -2.5915799140930176     
  0.10710000000000000         -3.4653875827789307     
  0.10740000000000001         -4.3028573989868164     
  0.10770000000000000         -5.0977845191955566     
  0.10800000000000000         -5.8463988304138184     
  0.10830000000000001         -6.5481314659118652     
  0.10859999999999999         -7.1994814872741699     
  0.10890000000000000         -7.7961759567260742     
  0.10920000000000001         -8.3283061981201172     
  0.10950000000000001         -8.7817926406860352     
  0.10979999999999999         -9.1383209228515625     
  0.11009999999999999         -9.3739490509033203     
  0.11040000000000001         -9.4635992050170898     
  0.11070000000000001         -9.3806982040405273     
  0.11100000000000000         -9.0998592376708984     
  0.11130000000000000         -8.5993146896362305     
  0.11160000000000002         -7.8626585006713867     
  0.11190000000000001         -6.8811898231506348     
  0.11220000000000001         -5.6545948982238770     
  0.11250000000000000         -4.1927156448364258     
  0.11280000000000000         -2.5154507160186768     
  0.11309999999999999        -0.65335673093795776     
  0.11340000000000001          1.3523147106170654     
  0.11369999999999998          3.4509890079498291     
  0.11400000000000000          5.5833253860473633     
  0.11430000000000000          7.6838555335998535     
  0.11460000000000002          9.6809377670288086     
  0.11489999999999999          11.501772880554199     
  0.11520000000000001          13.074660301208496     
  0.11550000000000001          14.331302642822266     
  0.11580000000000000          15.212738990783691     
  0.11609999999999999          15.669395446777344     
  0.11640000000000002          15.668581962585449     
  0.11670000000000001          15.194427490234375     
  0.11700000000000001          14.250543594360352     
  0.11730000000000000          12.863044738769531     
  0.11760000000000000          11.075554847717285     
  0.11789999999999999          8.9531898498535156     
  0.11820000000000001          6.5767722129821777     
  0.11850000000000001          4.0390801429748535     
  0.11880000000000000          1.4423686265945435     
  0.11910000000000000         -1.1104036569595337     
  0.11940000000000002         -3.5166087150573730     
  0.11970000000000001         -5.6822185516357422     
  0.12000000000000001         -7.5252513885498047     
  0.12030000000000000         -8.9791402816772461     
  0.12060000000000000         -9.9968709945678711     
  0.12089999999999999         -10.551190376281738     
  0.12119999999999999         -10.636353492736816     
  0.12150000000000001         -10.266880035400391     
  0.12180000000000001         -9.4775743484497070     
  0.12210000000000000         -8.3210010528564453     
  0.12239999999999999         -6.8649826049804688     
  0.12270000000000002         -5.1894764900207520     
  0.12300000000000001         -3.3824791908264160     
  0.12330000000000001         -1.5383013486862183     
  0.12360000000000000         0.24940603971481323     
  0.12390000000000000          1.8893394470214844     
  0.12419999999999999          3.2977771759033203     
  0.12450000000000001          4.4034070968627930     
  0.12480000000000001          5.1501698493957520     
  0.12509999999999999          5.5011854171752930     
  0.12540000000000001          5.4406113624572754     
  0.12570000000000003          4.9765224456787109     
  0.12600000000000000          4.1399970054626465     
  0.12630000000000002          2.9833242893218994     
  0.12659999999999999          1.5794091224670410     
  0.12690000000000001          1.6391493380069733E-002
  0.12719999999999998         -1.6069709062576294     
  0.12750000000000000         -3.1878428459167480     
  0.12780000000000002         -4.6248230934143066     
  0.12809999999999999         -5.8252792358398438     
  0.12840000000000001         -6.7114300727844238     
  0.12869999999999998         -7.2252540588378906     
  0.12900000000000000         -7.3332428932189941     
  0.12930000000000003         -7.0280642509460449     
  0.12959999999999999         -6.3301553726196289     
  0.12990000000000002         -5.2853016853332520     
  0.13019999999999998         -3.9629244804382324     
  0.13050000000000000         -2.4512557983398438     
  0.13080000000000003        -0.84937405586242676     
  0.13109999999999999         0.73597371578216553     
  0.13140000000000002          2.2017493247985840     
  0.13169999999999998          3.4538724422454834     
  0.13200000000000001          4.4142656326293945     
  0.13229999999999997          5.0273194313049316     
  0.13260000000000000          5.2613244056701660     
  0.13290000000000002          5.1151609420776367     
  0.13319999999999999          4.6138157844543457     
  0.13350000000000001          3.8085119724273682     
  0.13380000000000003          2.7731087207794189     
  0.13410000000000000          1.5961678028106689     
  0.13440000000000002         0.37692517042160034     
  0.13469999999999999        -0.78577607870101929     
  0.13500000000000001         -1.7982658147811890     
  0.13529999999999998         -2.5816226005554199     
  0.13560000000000000         -3.0775263309478760     
  0.13590000000000002         -3.2507390975952148     
  0.13619999999999999         -3.0954382419586182     
  0.13650000000000001         -2.6322855949401855     
  0.13680000000000003         -1.9079091548919678     
  0.13710000000000000        -0.99038428068161011     
  0.13740000000000002          3.7481434643268585E-002
  0.13769999999999999          1.0831233263015747     
  0.13800000000000001          2.0558111667633057     
  0.13829999999999998          2.8720891475677490     
  0.13860000000000000          3.4634811878204346     
  0.13890000000000002          3.7840194702148438     
  0.13919999999999999          3.8117756843566895     
  0.13950000000000001          3.5531461238861084     
  0.13979999999999998          3.0396609306335449     
  0.14010000000000000          2.3258361816406250     
  0.14040000000000002          1.4841316938400269     
  0.14069999999999999         0.59632050991058350     
  0.14100000000000001        -0.25243949890136719     
  0.14130000000000004        -0.98364651203155518     
  0.14160000000000000         -1.5329660177230835     
  0.14189999999999997         -1.8550924062728882     
  0.14219999999999999         -1.9287450313568115     
  0.14250000000000002         -1.7578926086425781     
  0.14279999999999998         -1.3716478347778320     
  0.14310000000000000        -0.81981742382049561     
  0.14339999999999997        -0.16704168915748596     
  0.14369999999999999         0.51319420337677002     
  0.14400000000000002          1.1474318504333496     
  0.14429999999999998          1.6704658269882202     
  0.14460000000000001          2.0310881137847900     
  0.14490000000000003          2.1981360912322998     
  0.14520000000000000          2.1626126766204834     
  0.14550000000000002          1.9382166862487793     
  0.14579999999999999          1.5587924718856812     
  0.14610000000000001          1.0728552341461182     
  0.14640000000000003         0.53933417797088623     
  0.14670000000000000          1.8373984843492508E-002
  0.14699999999999996        -0.43563857674598694     
  0.14729999999999999        -0.77852296829223633     
  0.14760000000000001        -0.98398077487945557     
  0.14789999999999998         -1.0421185493469238     
  0.14820000000000000        -0.96224576234817505     