  -1.4999999999999999E-002     0.0000000000000000     
  -1.4700000000000000E-002     0.0000000000000000     
  -1.4400000000000000E-002     0.0000000000000000     
  -1.4100000000000000E-002     0.0000000000000000     
  -1.3800000000000000E-002     0.0000000000000000     
  -1.3500000000000000E-002     0.0000000000000000     
  -1.3200000000000000E-002     0.0000000000000000     
  -1.2899999999999998E-002     0.0000000000000000     
  -1.2600000000000000E-002     0.0000000000000000     
  -1.2299999999999998E-002     0.0000000000000000     
  -1.2000000000000000E-002     0.0000000000000000     
  -1.1699999999999999E-002     0.0000000000000000     
  -1.1399999999999999E-002     0.0000000000000000     
  -1.1099999999999999E-002     0.0000000000000000     
  -1.0799999999999999E-002     0.0000000000000000     
  -1.0499999999999999E-002     0.0000000000000000     
  -1.0199999999999999E-002     0.0000000000000000     
  -9.8999999999999991E-003     0.0000000000000000     
  -9.5999999999999992E-003     0.0000000000000000     
  -9.2999999999999992E-003     0.0000000000000000     
  -8.9999999999999993E-003     0.0000000000000000     
  -8.6999999999999994E-003     0.0000000000000000     
  -8.3999999999999995E-003     0.0000000000000000     
  -8.0999999999999996E-003     0.0000000000000000     
  -7.7999999999999988E-003     0.0000000000000000     
  -7.4999999999999997E-003     0.0000000000000000     
  -7.1999999999999998E-003     0.0000000000000000     
  -6.8999999999999981E-003     0.0000000000000000     
  -6.5999999999999982E-003     0.0000000000000000     
  -6.3000000000000000E-003     0.0000000000000000     
  -6.0000000000000001E-003     0.0000000000000000     
  -5.6999999999999985E-003     0.0000000000000000     
  -5.3999999999999986E-003     0.0000000000000000     
  -5.1000000000000004E-003     0.0000000000000000     
  -4.7999999999999987E-003     0.0000000000000000     
  -4.5000000000000005E-003     0.0000000000000000     
  -4.1999999999999989E-003     0.0000000000000000     
  -3.8999999999999990E-003     0.0000000000000000     
  -3.5999999999999990E-003     0.0000000000000000     
  -3.2999999999999991E-003     0.0000000000000000     
  -2.9999999999999992E-003     0.0000000000000000     
  -2.6999999999999993E-003     0.0000000000000000     
  -2.3999999999999994E-003     0.0000000000000000     
  -2.0999999999999977E-003     0.0000000000000000     
  -1.7999999999999995E-003     0.0000000000000000     
  -1.4999999999999979E-003     0.0000000000000000     
  -1.1999999999999997E-003     0.0000000000000000     
  -8.9999999999999976E-004     0.0000000000000000     
  -5.9999999999999810E-004     0.0000000000000000     
  -2.9999999999999992E-004    -4.2666831981031453E-039
   0.0000000000000000          1.3748064264022939E-037
   3.0000000000000165E-004     6.6774043837697237E-037
   5.9999999999999984E-004    -1.8784427837871733E-036
   9.0000000000000149E-004    -9.0529926698515825E-036
   1.2000000000000031E-003     6.6061904863251821E-035
   1.5000000000000013E-003    -4.2878680550464939E-035
   1.8000000000000030E-003    -7.3361192109663759E-034
   2.1000000000000012E-003     1.4986552397701752E-033
   2.3999999999999994E-003     3.2894760898504876E-033
   2.7000000000000010E-003    -6.7665824877563172E-033
   2.9999999999999992E-003    -1.6630955854999768E-032
   3.3000000000000008E-003     4.9339761744549546E-032
   3.6000000000000025E-003     1.3750726770775390E-031
   3.9000000000000007E-003    -1.7187652237089039E-030
   4.2000000000000023E-003     8.3181622683924993E-030
   4.5000000000000005E-003    -6.9185325996913741E-030
   4.7999999999999987E-003    -2.3683774517656226E-028
   5.1000000000000004E-003     1.9798335572288317E-027
   5.4000000000000020E-003    -7.2663220005934957E-027
   5.7000000000000037E-003     6.1067704543995609E-028
   5.9999999999999984E-003     1.4692554566299687E-025
   6.3000000000000000E-003    -8.9233734826256605E-025
   6.6000000000000017E-003     2.7733885949195014E-024
   6.9000000000000034E-003    -2.5611846712942290E-024
   7.2000000000000015E-003    -2.1909795177314956E-023
   7.5000000000000032E-003     1.4064884822421979E-022
   7.8000000000000014E-003    -4.5470804805670767E-022
   8.0999999999999996E-003     7.7843427264047849E-022
   8.4000000000000012E-003     4.9068347593505413E-022
   8.7000000000000029E-003    -8.3449758753321653E-021
   9.0000000000000011E-003     3.0615862426605726E-020
   9.2999999999999992E-003    -6.3333307126406138E-020
   9.6000000000000009E-003     4.6966251442610632E-020
   9.8999999999999991E-003     1.6199292824458029E-019
   1.0200000000000001E-002    -4.2122582780887309E-019
   1.0500000000000002E-002    -2.1934595902620599E-018
   1.0800000000000004E-002     2.4683806732236902E-017
   1.1099999999999999E-002    -1.4351270360471563E-016
   1.1400000000000000E-002     6.7211185167350279E-016
   1.1700000000000002E-002    -2.8512633865840073E-015
   1.2000000000000004E-002     1.1449658639602682E-014
   1.2300000000000002E-002    -4.3706494314451604E-014
   1.2600000000000000E-002     1.5467089277114372E-013
   1.2900000000000002E-002    -4.8153270859825793E-013
   1.3200000000000000E-002     1.1885417226111172E-012
   1.3500000000000002E-002    -1.6264843685137431E-012
   1.3800000000000003E-002    -3.3424930122351996E-012
   1.4100000000000001E-002     3.1516564773629371E-011
   1.4400000000000000E-002    -1.1136511822934615E-010
   1.4700000000000001E-002     1.9929157625449770E-010
   1.4999999999999999E-002     7.4012116011037476E-011
   1.5300000000000001E-002    -1.4533821238574713E-009
   1.5600000000000003E-002     3.2714997420388825E-009
   1.5899999999999997E-002     7.1845956058494421E-010
   1.6199999999999999E-002    -1.7137070615683387E-008
   1.6500000000000001E-002     1.9436671991264409E-008
   1.6800000000000002E-002     5.3088766085566929E-008
   1.7100000000000004E-002    -1.1226733251029272E-007
   1.7400000000000006E-002    -1.7967071613146144E-007
   1.7700000000000000E-002     3.4322926092686644E-007
   1.8000000000000002E-002     6.2821351604886754E-007
   1.8300000000000004E-002    -6.9418398311381082E-007
   1.8600000000000005E-002    -2.0071993063993225E-006
   1.8900000000000000E-002     1.1668355748702832E-006
   1.9200000000000002E-002     9.8567112457599419E-006
   1.9500000000000003E-002     1.8863950412570461E-005
   1.9799999999999998E-002     2.5104221906356431E-005
   2.0100000000000000E-002     3.5582828924999861E-005
   2.0400000000000001E-002     6.0901797037659321E-005
   2.0700000000000003E-002     1.0362443411517271E-004
   2.0999999999999998E-002     1.6122156033992986E-004
   2.1299999999999999E-002     2.4100447582432651E-004
   2.1600000000000001E-002     3.6427087899163282E-004
   2.1900000000000003E-002     5.5374440225056457E-004
   2.2200000000000004E-002     8.2700044864826572E-004
   2.2500000000000006E-002     1.2092849473651981E-003
   2.2800000000000001E-002     1.7462195236643621E-003
   2.3100000000000002E-002     2.4972994442122518E-003
   2.3400000000000004E-002     3.5236900588320741E-003
   2.3699999999999999E-002     4.8932891232096598E-003
   2.4000000000000000E-002     6.6951282113098809E-003
   2.4300000000000002E-002     9.0365698978262798E-003
   2.4599999999999997E-002     1.2023821610914309E-002
   2.4900000000000005E-002     1.5751958041559155E-002
   2.5200000000000000E-002     2.0311196319443892E-002
   2.5499999999999995E-002     2.5782018905075588E-002
   2.5800000000000003E-002     3.2204106305209312E-002
   2.6099999999999998E-002     3.9546105372254337E-002
   2.6400000000000007E-002     4.7695687978096979E-002
   2.6700000000000002E-002     5.6456150029484675E-002
   2.6999999999999996E-002     6.5521221568255461E-002
   2.7300000000000005E-002     7.4442842567609357E-002
   2.7600000000000000E-002     8.2628894491891813E-002
   2.7900000000000008E-002     8.9366124406845771E-002
   2.8200000000000003E-002     9.3848061091577062E-002
   2.8499999999999998E-002     9.5197012847801243E-002
   2.8800000000000006E-002     9.2512284121005095E-002
   2.9100000000000001E-002     8.4943299014427431E-002
   2.9400000000000003E-002     7.1795892899331637E-002
   2.9700000000000004E-002     5.2612861468471550E-002
   3.0000000000000006E-002     2.7234668738812529E-002
   3.0300000000000001E-002    -4.1049325689904992E-003
   3.0600000000000002E-002    -4.0707745389411298E-002
   3.0900000000000004E-002    -8.1395189047859473E-002
   3.1199999999999999E-002   -0.12455865370108254     
   3.1500000000000007E-002   -0.16819625547624995     
   3.1800000000000002E-002   -0.21000056319858462     
   3.2099999999999997E-002   -0.24753352752404645     
   3.2400000000000005E-002   -0.27840474890124867     
   3.2700000000000000E-002   -0.30047331688326295     
   3.3000000000000002E-002   -0.31204853014924083     
   3.3300000000000003E-002   -0.31203257722633992     
   3.3599999999999998E-002   -0.30007469483714821     
   3.3900000000000000E-002   -0.27667558360098354     
   3.4200000000000001E-002   -0.24320370713524930     
   3.4500000000000003E-002   -0.20178461386723345     
   3.4799999999999998E-002   -0.15517778445464447     
   3.5099999999999999E-002   -0.10661791401297727     
   3.5400000000000001E-002    -5.9582619483353527E-002
   3.5699999999999996E-002    -1.7498373696166303E-002
   3.6000000000000004E-002     1.6544572334696195E-002
   3.6299999999999999E-002     4.0004485899910791E-002
   3.6600000000000008E-002     5.1082558310273418E-002
   3.6900000000000002E-002     4.8857766738686026E-002
   3.7199999999999997E-002     3.3395275928306267E-002
   3.7500000000000006E-002     5.7893880540275944E-003
   3.7800000000000000E-002    -3.1924081825800976E-002
   3.8100000000000009E-002    -7.6917021952615183E-002
   3.8400000000000004E-002   -0.12576068804613616     
   3.8699999999999998E-002   -0.17457683903685162     
   3.9000000000000007E-002   -0.21923460418763074     
   3.9300000000000002E-002   -0.25570707122081071     
   3.9600000000000003E-002   -0.28029525824853074     
   3.9900000000000005E-002   -0.28980483392802547     
   4.0200000000000000E-002   -0.28174111631588694     
   4.0500000000000001E-002   -0.25452304386561586     
   4.0800000000000003E-002   -0.20758164502666254     
   4.1100000000000005E-002   -0.14137970349056594     
   4.1399999999999999E-002    -5.7343851465392781E-002
   4.1700000000000008E-002     4.2095159419176298E-002
   4.2000000000000003E-002    0.15368686197684234     
   4.2299999999999997E-002    0.27359743905064526     
   4.2600000000000006E-002    0.39759310984394070     
   4.2900000000000001E-002    0.52124669568690862     
   4.3200000000000002E-002    0.64023044785909988     
   4.3500000000000004E-002    0.75045967587617568     
   4.3799999999999999E-002    0.84825754552656463     
   4.4100000000000000E-002    0.93058038917403607     
   4.4400000000000002E-002    0.99492863291999711     
   4.4700000000000004E-002     1.0393370650405487     
   4.4999999999999998E-002     1.0624420864461186     
   4.5300000000000000E-002     1.0633490673317496     
   4.5600000000000002E-002     1.0415763754406129     
   4.5899999999999996E-002    0.99689497100854751     
   4.6200000000000005E-002    0.92936217501481622     
   4.6500000000000000E-002    0.83944249639574409     
   4.6799999999999994E-002    0.72791339839155711     
   4.7100000000000003E-002    0.59602038785087430     
   4.7399999999999998E-002    0.44568381559555093     
   4.7700000000000006E-002    0.27957381518833380     
   4.8000000000000001E-002    0.10133307663778490     
   4.8300000000000010E-002    -8.4459966935861441E-002
   4.8600000000000004E-002   -0.27228782277809183     
   4.8899999999999999E-002   -0.45576634156567764     
   4.9200000000000008E-002   -0.62792776733085987     
   4.9500000000000002E-002   -0.78155214466675105     
   4.9800000000000011E-002   -0.90959674907079346     
   5.0100000000000006E-002    -1.0057059244124424     
   5.0400000000000000E-002    -1.0647440607843315     
   5.0700000000000009E-002    -1.0831328608324213     
   5.1000000000000004E-002    -1.0592924469680227     
   5.1299999999999998E-002   -0.99389083963145097     
   5.1600000000000007E-002   -0.88990172546737867     
   5.1900000000000002E-002   -0.75252443374080258     
   5.2200000000000010E-002   -0.58885486955825073     
   5.2500000000000005E-002   -0.40748724984300644     
   5.2800000000000000E-002   -0.21798301974882328     
   5.3099999999999994E-002    -3.0266501772453713E-002
   5.3400000000000003E-002    0.14586965184489253     
   5.3699999999999998E-002    0.30145959382257459     
   5.4000000000000006E-002    0.42884147390034855     
   5.4300000000000001E-002    0.52198590019641955     
   5.4599999999999996E-002    0.57674755383766829     
   5.4900000000000004E-002    0.59108854714364512     
   5.5199999999999999E-002    0.56505579589608601     
   5.5499999999999994E-002    0.50072814741910499     
   5.5800000000000002E-002    0.40207408787907362     
   5.6099999999999997E-002    0.27467112264958793     
   5.6400000000000006E-002    0.12563395801518773     
   5.6700000000000000E-002    -3.6933312287218634E-002
   5.6999999999999995E-002   -0.20438760160589597     
   5.7300000000000004E-002   -0.36784055100192781     
   5.7599999999999998E-002   -0.51867835108592608     
   5.7900000000000007E-002   -0.64907242426159684     
   5.8200000000000002E-002   -0.75254539658854114     
   5.8499999999999996E-002   -0.82464060593502708     
   5.8800000000000005E-002   -0.86303890351597445     
   5.9100000000000000E-002   -0.86778507075574396     
   5.9400000000000008E-002   -0.84152101213875241     
   5.9700000000000003E-002   -0.78933322124913019     
   6.0000000000000012E-002   -0.71830268096455896     
   6.0300000000000006E-002   -0.63680770347010096     
   6.0600000000000001E-002   -0.55376038875174061     
   6.0900000000000010E-002   -0.47789455018231664     
   6.1200000000000004E-002   -0.41670130812363659     
   6.1500000000000013E-002   -0.37544811428157487     
   6.1800000000000008E-002   -0.35673742176334677     
   6.2100000000000002E-002   -0.36013061555867409     
   6.2399999999999997E-002   -0.38186984061956686     
   6.2700000000000006E-002   -0.41510727085862698     
   6.3000000000000000E-002   -0.45052841449195569     
   6.3300000000000009E-002   -0.47724247829770761     
   6.3600000000000004E-002   -0.48387329280047986     
   6.3899999999999998E-002   -0.45952689652331813     
   6.4199999999999993E-002   -0.39493425750531586     
   6.4500000000000002E-002   -0.28358186305634447     
   6.4800000000000010E-002   -0.12268207879870507     
   6.5100000000000005E-002     8.6418712176840273E-002
   6.5400000000000000E-002    0.33822505394457147     
   6.5700000000000008E-002    0.62299536326182459     
   6.5999999999999989E-002    0.92705569320481196     
   6.6299999999999998E-002     1.2339195845226456     
   6.6600000000000006E-002     1.5251218887246552     
   6.6900000000000001E-002     1.7812963444844527     
   6.7199999999999996E-002     1.9837118081044949     
   6.7500000000000004E-002     2.1155073731144469     
   6.7800000000000013E-002     2.1627841195567754     
   6.8099999999999994E-002     2.1157971729226972     
   6.8400000000000002E-002     1.9698547830190378     
   6.8700000000000011E-002     1.7259018187998336     
   6.8999999999999992E-002     1.3906138090620956     
   6.9300000000000000E-002    0.97636602271339257     
   6.9600000000000009E-002    0.50071828055932777     
   6.9900000000000004E-002    -1.4580469017584363E-002
   7.0199999999999999E-002   -0.54472610034313718     
   7.0500000000000007E-002    -1.0631361301075017     
   7.0800000000000016E-002    -1.5431843430745147     
   7.1099999999999997E-002    -1.9598448171318665     
   7.1400000000000005E-002    -2.2909548223871639     
   7.1700000000000000E-002    -2.5186522788261385     
   7.1999999999999995E-002    -2.6303491321730093     
   7.2300000000000003E-002    -2.6193358530699129     
   7.2600000000000012E-002    -2.4850193943623822     
   7.2900000000000006E-002    -2.2327479798585870     
   7.3200000000000001E-002    -1.8735292172986675     
   7.3499999999999996E-002    -1.4231025033196616     
   7.3800000000000004E-002   -0.90083084931436730     
   7.4099999999999999E-002   -0.32901597928849657     
   7.4400000000000008E-002    0.26832920624343970     
   7.4700000000000003E-002    0.86680662133969988     
   7.5000000000000011E-002     1.4425395522912652     
   7.5299999999999992E-002     1.9727428157684344     
   7.5600000000000001E-002     2.4364125583440881     
   7.5900000000000009E-002     2.8154353410852622     
   7.6200000000000004E-002     3.0947722095416879     
   7.6499999999999999E-002     3.2625563669858622     
   7.6800000000000007E-002     3.3106401403047698     
   7.7099999999999988E-002     3.2348167313240594     
   7.7399999999999997E-002     3.0349941055619354     
   7.7700000000000005E-002     2.7150781435671405     
   7.8000000000000014E-002     2.2829209442827363     
   7.8299999999999995E-002     1.7507392555253176     
   7.8600000000000003E-002     1.1348691584114370     
   7.8900000000000012E-002    0.45523881828652080     
   7.9199999999999993E-002   -0.26483925181841173     
   7.9500000000000001E-002   -0.99900034975569607     
   7.9800000000000010E-002    -1.7185356520626609     
   8.0100000000000018E-002    -2.3935579265844353     
   8.0399999999999999E-002    -2.9942605049585680     
   8.0700000000000008E-002    -3.4918267523328694     
   8.1000000000000003E-002    -3.8598808909285509     
   8.1299999999999997E-002    -4.0764053297002789     
   8.1600000000000006E-002    -4.1250763597554538     
   8.1900000000000014E-002    -3.9964239599509597     
   8.2199999999999995E-002    -3.6889431448132513     
   8.2500000000000004E-002    -3.2098217881255380     
   8.2799999999999999E-002    -2.5752508618066514     
   8.3100000000000007E-002    -1.8099817345583702     
   8.3400000000000002E-002   -0.94633470006239762     
   8.3700000000000011E-002    -2.2990202190374731E-002
   8.4000000000000005E-002    0.91699897417115039     
   8.4300000000000000E-002     1.8285996436538250     
   8.4599999999999995E-002     2.6671331123663862     
   8.4900000000000003E-002     3.3911029966651824     
   8.5199999999999998E-002     3.9643332965029003     
   8.5500000000000007E-002     4.3582236448804252     
   8.5800000000000001E-002     4.5536884562474995     
   8.6100000000000010E-002     4.5422089725534818     
   8.6399999999999991E-002     4.3264193269103828     
   8.6699999999999999E-002     3.9195433525818970     
   8.7000000000000008E-002     3.3445605055444219     
   8.7300000000000003E-002     2.6331106473680705     
   8.7599999999999997E-002     1.8231566019822338     
   8.7900000000000006E-002    0.95637710801845444     
   8.8200000000000014E-002     7.5535276299503629E-002
   8.8499999999999995E-002   -0.77809253128780043     
   8.8800000000000004E-002    -1.5666479421848893     
   8.9100000000000013E-002    -2.2582715029767364     
   8.9399999999999993E-002    -2.8286207443230893     
   8.9700000000000002E-002    -3.2612193305861581     
   9.0000000000000011E-002    -3.5476950421849551     
   9.0299999999999991E-002    -3.6877445967191989     
   9.0600000000000000E-002    -3.6880319823579129     
   9.0900000000000009E-002    -3.5605208243323574     
   9.1200000000000017E-002    -3.3208802841422624     
   9.1499999999999998E-002    -2.9871454348621995     
   9.1800000000000007E-002    -2.5783686954963940     
   9.2100000000000001E-002    -2.1128628389086686     
   9.2399999999999996E-002    -1.6076346064216125     
   9.2700000000000005E-002    -1.0783176692735630     
   9.3000000000000013E-002   -0.53876121444343283     
   9.3300000000000008E-002    -1.5622489199871303E-003
   9.3600000000000003E-002    0.52138554687600092     
   9.3899999999999997E-002     1.0185064181029615     
   9.4200000000000006E-002     1.4779536693262116     
   9.4500000000000001E-002     1.8872950354746010     
   9.4800000000000009E-002     2.2336289071284909     
   9.5100000000000004E-002     2.5044775748427597     
   9.5399999999999999E-002     2.6884275673761238     
   9.5699999999999993E-002     2.7755139870933903     
   9.6000000000000002E-002     2.7589242306057002     
   9.6300000000000011E-002     2.6364416902159178     
   9.6600000000000005E-002     2.4107115559953343     
   9.6900000000000000E-002     2.0895208865073300     
   9.7200000000000009E-002     1.6859694304578454     
   9.7499999999999989E-002     1.2179944276448040     
   9.7799999999999998E-002    0.70742455716558084     
   9.8100000000000007E-002    0.17826806831287190     
   9.8400000000000015E-002   -0.34505819585246122     
   9.8699999999999996E-002   -0.83911170501923316     
   9.9000000000000005E-002    -1.2828321903191071     
   9.9300000000000013E-002    -1.6589288295830755     
   9.9599999999999994E-002    -1.9549925014124980     
   9.9900000000000003E-002    -2.1636386744191896     
  0.10020000000000001         -2.2822037558877000     
  0.10049999999999999         -2.3125698688018730     
  0.10080000000000000         -2.2606951145930907     
  0.10110000000000001         -2.1356833648595739     
  0.10140000000000000         -1.9491062147509837     
  0.10170000000000000         -1.7143158424646145     
  0.10200000000000001         -1.4459397459525718     
  0.10230000000000002         -1.1599645498429751     
  0.10260000000000000        -0.87309549222737459     
  0.10290000000000001        -0.60215833110343908     
  0.10320000000000000        -0.36413690755610340     
  0.10350000000000001        -0.17532188181144104     
  0.10380000000000000         -5.0240122477095417E-002
  0.10410000000000001         -2.9110577870605781E-004
  0.10440000000000001         -3.2275289718300293E-002
  0.10470000000000000        -0.14757682253793902     
  0.10500000000000000        -0.34047827156359567     
  0.10530000000000000        -0.59734696806443432     
  0.10560000000000000        -0.89672510221481083     
  0.10590000000000001         -1.2097547071347261     
  0.10620000000000000         -1.5018859731857717     
  0.10650000000000001         -1.7350609843499072     
  0.10679999999999999         -1.8701115821734859     
  0.10710000000000000         -1.8706774028822579     
  0.10740000000000001         -1.7064744961975293     
  0.10770000000000000         -1.3563162375448670     
  0.10800000000000000        -0.81087041736926579     
  0.10830000000000001         -7.4517709012427602E-002
  0.10859999999999999         0.83406019941809006     
  0.10890000000000000          1.8821824480166782     
  0.10920000000000001          3.0251155064396986     
  0.10950000000000001          4.2080613383150016     
  0.10979999999999999          5.3696556811502276     
  0.11009999999999999          6.4466756713106150     
  0.11040000000000001          7.3773355179930888     
  0.11070000000000001          8.1052710122436622     
  0.11100000000000000          8.5837076063762083     
  0.11130000000000000          8.7778331650083317     
  0.11160000000000002          8.6667340452930546     
  0.11190000000000001          8.2448129314695393     
  0.11220000000000001          7.5213934406157250     
  0.11250000000000000          6.5197384973428143     
  0.11280000000000000          5.2757600764428219     
  0.11309999999999999          3.8360765444548122     
  0.11340000000000001          2.2547049263604251     
  0.11369999999999998         0.58916075484352337     
  0.11400000000000000         -1.1013215776535716     
  0.11430000000000000         -2.7591560595661520     
  0.11460000000000002         -4.3322559384398254     
  0.11489999999999999         -5.7759878847897390     
  0.11520000000000001         -7.0545553178101557     
  0.11550000000000001         -8.1427480313577973     
  0.11580000000000000         -9.0265842201565931     
  0.11609999999999999         -9.7025162521348705     
  0.11640000000000002         -10.175296854988062     
  0.11670000000000001         -10.456969476599767     
  0.11700000000000001         -10.563895148216375     
  0.11730000000000000         -10.512536252694360     
  0.11760000000000000         -10.317224203123885     
  0.11789999999999999         -9.9874856230863429     
  0.11820000000000001         -9.5251336790967116     
  0.11850000000000001         -8.9238631002837110     
  0.11880000000000000         -8.1701215992148661     
  0.11910000000000000         -7.2442864955867208     
  0.11940000000000002         -6.1245484601116686     
  0.11970000000000001         -4.7914946987323788     
  0.12000000000000001         -3.2327697634065515     
  0.12030000000000000         -1.4489368584218241     
  0.12060000000000000         0.54309902158806267     
  0.12089999999999999          2.7057824529550629     
  0.12119999999999999          4.9798433085619962     
  0.12150000000000001          7.2863872250760551     
  0.12180000000000001          9.5289222058358156     
  0.12210000000000000          11.599738594204197     
  0.12239999999999999          13.387837299715841     
  0.12270000000000002          14.786722433402417     
  0.12300000000000001          15.704702377000558     
  0.12330000000000001          16.072206407471867     
  0.12360000000000000          15.848980363718908     
  0.12390000000000000          15.028420189739734     
  0.12419999999999999          13.638551260570523     
  0.12450000000000001          11.741976458573731     
  0.12480000000000001          9.4309472884886532     
  0.12509999999999999          6.8192541679531189     
  0.12540000000000001          4.0362220613014159     
  0.12570000000000003          1.2167057856223016     
  0.12600000000000000         -1.5095259110280210     
  0.12630000000000002         -4.0240791951643473     
  0.12659999999999999         -6.2268938893882506     
  0.12690000000000001         -8.0413230150885795     
  0.12719999999999998         -9.4164288369927931     
  0.12750000000000000         -10.327024539671896     
  0.12780000000000002         -10.771399182001176     
  0.12809999999999999         -10.769424369353203     
  0.12840000000000001         -10.359350561862698     
  0.12869999999999998         -9.5918978983696661     
  0.12900000000000000         -8.5272023751500683     
  0.12930000000000003         -7.2324755554913338     
  0.12959999999999999         -5.7772016575810881     
  0.12990000000000002         -4.2315291085343318     
  0.13019999999999998         -2.6653203594557482     
  0.13050000000000000         -1.1452808501319822     
  0.13080000000000003         0.26581605661607455     
  0.13109999999999999          1.5109743606328578     
  0.13140000000000002          2.5409356945907575     
  0.13169999999999998          3.3145614704512667     
  0.13200000000000001          3.8025388169140228     
  0.13229999999999997          3.9886424010775201     
  0.13260000000000000          3.8706137958097173     
  0.13290000000000002          3.4626067836688179     
  0.13319999999999999          2.7936549128186812     
  0.13350000000000001          1.9079058023389308     
  0.13380000000000003         0.86336691248798836     
  0.13410000000000000        -0.27268771479483433     
  0.13440000000000002         -1.4259885855698826     
  0.13469999999999999         -2.5201247329605252     
  0.13500000000000001         -3.4821405659759250     
  0.13529999999999998         -4.2462348150737661     
  0.13560000000000000         -4.7591751592352942     
  0.13590000000000002         -4.9844660514871748     
  0.13619999999999999         -4.9041158230828472     
  0.13650000000000001         -4.5207155031684465     
  0.13680000000000003         -3.8570451846326250     
  0.13710000000000000         -2.9544167814448343     
  0.13740000000000002         -1.8708324782500370     
  0.13769999999999999        -0.67534811186253707     
  0.13800000000000001         0.55642914358538320     
  0.13829999999999998          1.7469847323114180     
  0.13860000000000000          2.8237371104256397     
  0.13890000000000002          3.7234130764562323     
  0.13919999999999999          4.3965709396662120     
  0.13950000000000001          4.8114663493723455     
  0.13979999999999998          4.9548182755591341     
  0.14010000000000000          4.8334564161842763     
  0.14040000000000002          4.4728590340551762     
  0.14069999999999999          3.9139192790536725     
  0.14100000000000001          3.2110319747714868     
  0.14130000000000004          2.4266094769988342     
  0.14160000000000000          1.6252059636248788     
  0.14189999999999997         0.87018094397462065     
  0.14219999999999999         0.21822084508421735     
  0.14250000000000002        -0.28536482591574064     
  0.14279999999999998        -0.60929259989082141     
  0.14310000000000000        -0.73884682847574368     
  0.14339999999999997        -0.67547017532785958     
  0.14369999999999999        -0.43684992775941112     
  0.14400000000000002         -5.5803067817530305E-002
  0.14429999999999998         0.42486161092090313     
  0.14460000000000001         0.95488644847289095     
  0.14490000000000003          1.4809846671173297     
  0.14520000000000000          1.9524355162450497     
  0.14550000000000002          2.3241099841054322     
  0.14579999999999999          2.5610141204683430     
  0.14610000000000001          2.6410325930374619     
  0.14640000000000003          2.5553123353586784     
  0.14670000000000000          2.3104739249064536     
  0.14699999999999996          1.9266301897981037     
  0.14729999999999999          1.4342400175829582     
  0.14760000000000001         0.87275894981714330     
  0.14789999999999998         0.28588253236939787     
  0.14820000000000000        -0.28261874180947899     