  -1.4999999999999999E-002     0.0000000000000000     
  -1.4700000000000000E-002     0.0000000000000000     
  -1.4400000000000000E-002     0.0000000000000000     
  -1.4100000000000000E-002     0.0000000000000000     
  -1.3800000000000000E-002     0.0000000000000000     
  -1.3500000000000000E-002     0.0000000000000000     
  -1.3200000000000000E-002     0.0000000000000000     
  -1.2899999999999998E-002     0.0000000000000000     
  -1.2600000000000000E-002     0.0000000000000000     
  -1.2299999999999998E-002     0.0000000000000000     
  -1.2000000000000000E-002     0.0000000000000000     
  -1.1699999999999999E-002     0.0000000000000000     
  -1.1399999999999999E-002     0.0000000000000000     
  -1.1099999999999999E-002     0.0000000000000000     
  -1.0799999999999999E-002     0.0000000000000000     
  -1.0499999999999999E-002     0.0000000000000000     
  -1.0199999999999999E-002     0.0000000000000000     
  -9.8999999999999991E-003     0.0000000000000000     
  -9.5999999999999992E-003     0.0000000000000000     
  -9.2999999999999992E-003     0.0000000000000000     
  -8.9999999999999993E-003     0.0000000000000000     
  -8.6999999999999994E-003     0.0000000000000000     
  -8.3999999999999995E-003     0.0000000000000000     
  -8.0999999999999996E-003     0.0000000000000000     
  -7.7999999999999988E-003     0.0000000000000000     
  -7.4999999999999997E-003     0.0000000000000000     
  -7.1999999999999998E-003     0.0000000000000000     
  -6.8999999999999981E-003     0.0000000000000000     
  -6.5999999999999982E-003     0.0000000000000000     
  -6.3000000000000000E-003     0.0000000000000000     
  -6.0000000000000001E-003     0.0000000000000000     
  -5.6999999999999985E-003     0.0000000000000000     
  -5.3999999999999986E-003     0.0000000000000000     
  -5.1000000000000004E-003     0.0000000000000000     
  -4.7999999999999987E-003     0.0000000000000000     
  -4.5000000000000005E-003     0.0000000000000000     
  -4.1999999999999989E-003     0.0000000000000000     
  -3.8999999999999990E-003     0.0000000000000000     
  -3.5999999999999990E-003     0.0000000000000000     
  -3.2999999999999991E-003     0.0000000000000000     
  -2.9999999999999992E-003     0.0000000000000000     
  -2.6999999999999993E-003     0.0000000000000000     
  -2.3999999999999994E-003     0.0000000000000000     
  -2.0999999999999977E-003     0.0000000000000000     
  -1.7999999999999995E-003     0.0000000000000000     
  -1.4999999999999979E-003     0.0000000000000000     
  -1.1999999999999997E-003     0.0000000000000000     
  -8.9999999999999976E-004     0.0000000000000000     
  -5.9999999999999810E-004     0.0000000000000000     
  -2.9999999999999992E-004     0.0000000000000000     
   0.0000000000000000          0.0000000000000000     
   3.0000000000000165E-004     0.0000000000000000     
   5.9999999999999984E-004     0.0000000000000000     
   9.0000000000000149E-004     0.0000000000000000     
   1.2000000000000031E-003     0.0000000000000000     
   1.5000000000000013E-003     0.0000000000000000     
   1.8000000000000030E-003     0.0000000000000000     
   2.1000000000000012E-003     0.0000000000000000     
   2.3999999999999994E-003     0.0000000000000000     
   2.7000000000000010E-003     0.0000000000000000     
   2.9999999999999992E-003     0.0000000000000000     
   3.3000000000000008E-003     0.0000000000000000     
   3.6000000000000025E-003     0.0000000000000000     
   3.9000000000000007E-003     0.0000000000000000     
   4.2000000000000023E-003     0.0000000000000000     
   4.5000000000000005E-003     0.0000000000000000     
   4.7999999999999987E-003     0.0000000000000000     
   5.1000000000000004E-003     0.0000000000000000     
   5.4000000000000020E-003     0.0000000000000000     
   5.7000000000000037E-003     0.0000000000000000     
   5.9999999999999984E-003     0.0000000000000000     
   6.3000000000000000E-003     0.0000000000000000     
   6.6000000000000017E-003     0.0000000000000000     
   6.9000000000000034E-003     0.0000000000000000     
   7.2000000000000015E-003     0.0000000000000000     
   7.5000000000000032E-003     0.0000000000000000     
   7.8000000000000014E-003     0.0000000000000000     
   8.0999999999999996E-003     0.0000000000000000     
   8.4000000000000012E-003     0.0000000000000000     
   8.7000000000000029E-003     0.0000000000000000     
   9.0000000000000011E-003     0.0000000000000000     
   9.2999999999999992E-003     0.0000000000000000     
   9.6000000000000009E-003     0.0000000000000000     
   9.8999999999999991E-003    -5.0541181722450425E-038
   1.0200000000000001E-002     2.3803021899043645E-036
   1.0500000000000002E-002    -1.6048577568183886E-035
   1.0800000000000004E-002    -1.3625927307749804E-034
   1.1099999999999999E-002     1.7449607170840271E-033
   1.1400000000000000E-002    -5.2062067948474580E-033
   1.1700000000000002E-002    -5.1775131187073473E-032
   1.2000000000000004E-002     5.6598142301506473E-031
   1.2300000000000002E-002    -1.4850573549747167E-030
   1.2600000000000000E-002    -1.0000637268913628E-029
   1.2900000000000002E-002     9.7839860834273270E-029
   1.3200000000000000E-002    -2.8448196194378344E-028
   1.3500000000000002E-002    -6.0886984935343252E-028
   1.3800000000000003E-002     8.9067184537628397E-027
   1.4100000000000001E-002    -3.7611517618074593E-026
   1.4400000000000000E-002     5.5794026674462275E-026
   1.4700000000000001E-002     3.0150124325793570E-025
   1.4999999999999999E-002    -2.5336458454364811E-024
   1.5300000000000001E-002     9.4126705876474528E-024
   1.5600000000000003E-002    -1.5905603977302772E-023
   1.5899999999999997E-002    -3.3101793300750205E-023
   1.6199999999999999E-002     3.4131177745572908E-022
   1.6500000000000001E-002    -1.3642529369793932E-021
   1.6800000000000002E-002     3.8151237035325131E-021
   1.7100000000000004E-002    -9.1263368569415553E-021
   1.7400000000000006E-002     2.2363248427474929E-020
   1.7700000000000000E-002    -4.9018867805867342E-020
   1.8000000000000002E-002    -2.8570684917493138E-020
   1.8300000000000004E-002     1.3836143080439113E-018
   1.8600000000000005E-002    -1.1189350873152649E-017
   1.8900000000000000E-002     6.4786123462468603E-017
   1.9200000000000002E-002    -3.1618842152955318E-016
   1.9500000000000003E-002     1.3850486169203621E-015
   1.9799999999999998E-002    -5.6033555863247850E-015
   2.0100000000000000E-002     2.1066888748247756E-014
   2.0400000000000001E-002    -7.2463082773887052E-014
   2.0700000000000003E-002     2.1773011735563076E-013
   2.0999999999999998E-002    -5.0639571465961176E-013
   2.1299999999999999E-002     4.9163818828936686E-013
   2.1600000000000001E-002     3.1228188006906667E-012
   2.1900000000000003E-002    -2.3557794576265326E-011
   2.2200000000000004E-002     9.3472430734706740E-011
   2.2500000000000006E-002    -2.3619860633405452E-010
   2.2800000000000001E-002     2.5987653274464833E-010
   2.3100000000000002E-002     7.2988103528959523E-010
   2.3400000000000004E-002    -4.1830001943795213E-009
   2.3699999999999999E-002     7.9702731541693888E-009
   2.4000000000000000E-002     2.4584638362233443E-009
   2.4300000000000002E-002    -4.4258695930506805E-008
   2.4599999999999997E-002     6.6188434818143694E-008
   2.4900000000000005E-002     8.7139756820317726E-008
   2.5200000000000000E-002    -3.3008057165740891E-007
   2.5499999999999995E-002    -9.8458402918740715E-008
   2.5800000000000003E-002     1.0263776296726018E-006
   2.6099999999999998E-002     3.7827773333972274E-007
   2.6400000000000007E-002    -2.7825121964669903E-006
   2.6700000000000002E-002    -2.9658994615426240E-006
   2.6999999999999996E-002     7.2382417234317042E-006
   2.7300000000000005E-002     2.8888060505029940E-005
   2.7600000000000000E-002     5.6723413878279148E-005
   2.7900000000000008E-002     8.9038187385759738E-005
   2.8200000000000003E-002     1.3313719803266337E-004
   2.8499999999999998E-002     2.0332756699270593E-004
   2.8800000000000006E-002     3.1848067019045294E-004
   2.9100000000000001E-002     4.9948028204719469E-004
   2.9400000000000003E-002     7.7171770121477884E-004
   2.9700000000000004E-002     1.1723368984772956E-003
   3.0000000000000006E-002     1.7542616503338979E-003
   3.0300000000000001E-002     2.5901733500735546E-003
   3.0600000000000002E-002     3.7766326508812398E-003
   3.0900000000000004E-002     5.4356845627054340E-003
   3.1199999999999999E-002     7.7164634781406727E-003
   3.1500000000000007E-002     1.0796945212115217E-002
   3.1800000000000002E-002     1.4886897530730192E-002
   3.2099999999999997E-002     2.0224680075238366E-002
   3.2400000000000005E-002     2.7061672799643555E-002
   3.2700000000000000E-002     3.5645257109076178E-002
   3.3000000000000002E-002     4.6199316257944822E-002
   3.3300000000000003E-002     5.8892585230006844E-002
   3.3599999999999998E-002     7.3789144221797720E-002
   3.3900000000000000E-002     9.0793086060129369E-002
   3.4200000000000001E-002    0.10959702325851950     
   3.4500000000000003E-002    0.12962156403214475     
   3.4799999999999998E-002    0.14996122080493990     
   3.5099999999999999E-002    0.16933793610601544     
   3.5400000000000001E-002    0.18608694637532253     
   3.5699999999999996E-002    0.19816719487908507     
   3.6000000000000004E-002    0.20322082847228540     
   3.6299999999999999E-002    0.19865940263132842     
   3.6600000000000008E-002    0.18183479502616695     
   3.6900000000000002E-002    0.15025920326949560     
   3.7199999999999997E-002    0.10184934224528597     
   3.7500000000000006E-002     3.5212671742582469E-002
   3.7800000000000000E-002    -5.0063529053974154E-002
   3.8100000000000009E-002   -0.15314273848327176     
   3.8400000000000004E-002   -0.27172919118471661     
   3.8699999999999998E-002   -0.40196468442306532     
   3.9000000000000007E-002   -0.53840319689629723     
   3.9300000000000002E-002   -0.67419083325640372     
   3.9600000000000003E-002   -0.80134777335800678     
   3.9900000000000005E-002   -0.91121300042751940     
   4.0200000000000000E-002   -0.99504929268782405     
   4.0500000000000001E-002    -1.0446713502648421     
   4.0800000000000003E-002    -1.0531686098437376     
   4.1100000000000005E-002    -1.0155394098313479     
   4.1399999999999999E-002   -0.92925752111413473     
   4.1700000000000008E-002   -0.79467446237124761     
   4.2000000000000003E-002   -0.61517906430401581     
   4.2299999999999997E-002   -0.39716232340011892     
   4.2600000000000006E-002   -0.14970396684649501     
   4.2900000000000001E-002    0.11602151713551834     
   4.3200000000000002E-002    0.38736176153598301     
   4.3500000000000004E-002    0.65118473943714861     
   4.3799999999999999E-002    0.89466199950506464     
   4.4100000000000000E-002     1.1062354236589158     
   4.4400000000000002E-002     1.2763358409403054     
   4.4700000000000004E-002     1.3979347372504378     
   4.4999999999999998E-002     1.4670009101106913     
   4.5300000000000000E-002     1.4825288844401427     
   4.5600000000000002E-002     1.4465300341307596     
   4.5899999999999996E-002     1.3635981952452454     
   4.6200000000000005E-002     1.2404906318068925     
   4.6500000000000000E-002     1.0854568943637446     
   4.6799999999999994E-002    0.90757581775303109     
   4.7100000000000003E-002    0.71619341646593426     
   4.7399999999999998E-002    0.52018294845871793     
   4.7700000000000006E-002    0.32758969136615423     
   4.8000000000000001E-002    0.14518528112721785     
   4.8300000000000010E-002    -2.1755762455545280E-002
   4.8600000000000004E-002   -0.16944539888687693     
   4.8899999999999999E-002   -0.29566424317435569     
   4.9200000000000008E-002   -0.39949460123097325     
   4.9500000000000002E-002   -0.48120402837022525     
   4.9800000000000011E-002   -0.54191083348617752     
   5.0100000000000006E-002   -0.58340337891888083     
   5.0400000000000000E-002   -0.60780866857106020     
   5.0700000000000009E-002   -0.61735653843710381     
   5.1000000000000004E-002   -0.61431755903469565     
   5.1299999999999998E-002   -0.60068290460038654     
   5.1600000000000007E-002   -0.57825276206783727     
   5.1900000000000002E-002   -0.54843518657143520     
   5.2200000000000010E-002   -0.51235493826319534     
   5.2500000000000005E-002   -0.47090672753318330     
   5.2800000000000000E-002   -0.42469862279240722     
   5.3099999999999994E-002   -0.37434469724874830     
   5.3400000000000003E-002   -0.32039819443880191     
   5.3699999999999998E-002   -0.26360449195201685     
   5.4000000000000006E-002   -0.20501241542337034     
   5.4300000000000001E-002   -0.14603273823706964     
   5.4599999999999996E-002    -8.8643444106980329E-002
   5.4900000000000004E-002    -3.5314698304234005E-002
   5.5199999999999999E-002     1.0864268179605896E-002
   5.5499999999999994E-002     4.6351893744443373E-002
   5.5800000000000002E-002     6.7327561931307400E-002
   5.6099999999999997E-002     6.9899128741381933E-002
   5.6400000000000006E-002     5.0553258853467842E-002
   5.6700000000000000E-002     6.5042103033732257E-003
   5.6999999999999995E-002    -6.3767869890228868E-002
   5.7300000000000004E-002   -0.16010671345555583     
   5.7599999999999998E-002   -0.28026285597100653     
   5.7900000000000007E-002   -0.41962613324069942     
   5.8200000000000002E-002   -0.57110582155509704     
   5.8499999999999996E-002   -0.72524469595278518     
   5.8800000000000005E-002   -0.87068944619678135     
   5.9100000000000000E-002   -0.99473755017940491     
   5.9400000000000008E-002    -1.0843225991639542     
   5.9700000000000003E-002    -1.1269664196712341     
   6.0000000000000012E-002    -1.1119809605578865     
   6.0300000000000006E-002    -1.0316290483772868     
   6.0600000000000001E-002   -0.88186395481197266     
   6.0900000000000010E-002   -0.66337621357012999     
   6.1200000000000004E-002   -0.38160435074923704     
   6.1500000000000013E-002    -4.6963561095489492E-002
   6.1800000000000008E-002    0.32575461514019644     
   6.2100000000000002E-002    0.71839203046770095     
   6.2399999999999997E-002     1.1103301129505851     
   6.2700000000000006E-002     1.4804064777250616     
   6.3000000000000000E-002     1.8080185386846637     
   6.3300000000000009E-002     2.0748993925612638     
   6.3600000000000004E-002     2.2665037364670155     
   6.3899999999999998E-002     2.3726218325106316     
   6.4199999999999993E-002     2.3884979067369727     
   6.4500000000000002E-002     2.3145963771095381     
   6.4800000000000010E-002     2.1565348948477947     
   6.5100000000000005E-002     1.9244785313310615     
   6.5400000000000000E-002     1.6318227053535566     
   6.5700000000000008E-002     1.2945593125330106     
   6.5999999999999989E-002    0.92958547356155563     
   6.6299999999999998E-002    0.55370789892994132     
   6.6600000000000006E-002    0.18272193111078838     
   6.6900000000000001E-002   -0.16983428611317120     
   6.7199999999999996E-002   -0.49271306173844565     
   6.7500000000000004E-002   -0.77768330950910425     
   6.7800000000000013E-002    -1.0193743758959890     
   6.8099999999999994E-002    -1.2148755369661757     
   6.8400000000000002E-002    -1.3637421762470652     
   6.8700000000000011E-002    -1.4671788686506986     
   6.8999999999999992E-002    -1.5277451667001429     
   6.9300000000000000E-002    -1.5488311177642231     
   6.9600000000000009E-002    -1.5341895807966992     
   6.9900000000000004E-002    -1.4878186070221346     
   7.0199999999999999E-002    -1.4137630434083164     
   7.0500000000000007E-002    -1.3160053737438133     
   7.0800000000000016E-002    -1.1986686139043456     
   7.1099999999999997E-002    -1.0659712656080629     
   7.1400000000000005E-002   -0.92240651264957663     
   7.1700000000000000E-002   -0.77300478830158426     
   7.1999999999999995E-002   -0.62306784528644599     
   7.2300000000000003E-002   -0.47845673359128327     
   7.2600000000000012E-002   -0.34518837070639563     
   7.2900000000000006E-002   -0.22911617499796666     
   7.3200000000000001E-002   -0.13576994512319862     
   7.3499999999999996E-002    -6.9453353466827128E-002
   7.3800000000000004E-002    -3.3205334909780060E-002
   7.4099999999999999E-002    -2.7921509970662228E-002
   7.4400000000000008E-002    -5.2042192679868204E-002
   7.4700000000000003E-002   -0.10131608806532189     
   7.5000000000000011E-002   -0.16852178445660559     
   7.5299999999999992E-002   -0.24397990916097712     
   7.5600000000000001E-002   -0.31557771375387311     
   7.5900000000000009E-002   -0.37002357206931791     
   7.6200000000000004E-002   -0.39349022062782879     
   7.6499999999999999E-002   -0.37306226049947355     
   7.6800000000000007E-002   -0.29818480999484365     
   7.7099999999999988E-002   -0.16148278517871106     
   7.7399999999999997E-002     3.9362554771184000E-002
   7.7700000000000005E-002    0.30153740585675060     
   7.8000000000000014E-002    0.61615093507350238     
   7.8299999999999995E-002    0.96859088043783359     
   7.8600000000000003E-002     1.3394295676976142     
   7.8900000000000012E-002     1.7049753390452338     
   7.9199999999999993E-002     2.0398140421267357     
   7.9500000000000001E-002     2.3180339778039212     
   7.9800000000000010E-002     2.5158060567020897     
   8.0100000000000018E-002     2.6134999973856736     
   8.0399999999999999E-002     2.5968992002613476     
   8.0700000000000008E-002     2.4594443800658752     
   8.1000000000000003E-002     2.2021034481592636     
   8.1299999999999997E-002     1.8341327917364367     
   8.1600000000000006E-002     1.3722272794108967     
   8.1900000000000014E-002    0.83905343494924445     
   8.2199999999999995E-002    0.26240327516897288     
   8.2500000000000004E-002   -0.32800586065096660     
   8.2799999999999999E-002   -0.90177838119081244     
   8.3100000000000007E-002    -1.4303622188581926     
   8.3400000000000002E-002    -1.8891581523951615     
   8.3700000000000011E-002    -2.2584188459006214     
   8.4000000000000005E-002    -2.5250222388706476     
   8.4300000000000000E-002    -2.6823045015970877     
   8.4599999999999995E-002    -2.7302472538284093     
   8.4900000000000003E-002    -2.6749487377124836     
   8.5199999999999998E-002    -2.5274142335508145     
   8.5500000000000007E-002    -2.3026199318079392     
   8.5800000000000001E-002    -2.0179904726446480     
   8.6100000000000010E-002    -1.6920358316273507     
   8.6399999999999991E-002    -1.3431072029330444     
   8.6699999999999999E-002   -0.98833401345904193     
   8.7000000000000008E-002   -0.64273146267011150     
   8.7300000000000003E-002   -0.31872419200148316     
   8.7599999999999997E-002    -2.5630212713661393E-002
   8.7900000000000006E-002    0.23023346144240353     
   8.8200000000000014E-002    0.44573403132352496     
   8.8499999999999995E-002    0.62092856530641072     
   8.8800000000000004E-002    0.75839027359258182     
   8.9100000000000013E-002    0.86333717120519538     
   8.9399999999999993E-002    0.94302126118615348     
   8.9700000000000002E-002     1.0061029537482433     
   9.0000000000000011E-002     1.0624329110403536     
   9.0299999999999991E-002     1.1216333496130630     
   9.0600000000000000E-002     1.1928807469934881     
   9.0900000000000009E-002     1.2832943516097970     
   9.1200000000000017E-002     1.3971615508176001     
   9.1499999999999998E-002     1.5354144772324148     
   9.1800000000000007E-002     1.6940760402011108     
   9.2100000000000001E-002     1.8649023544293470     
   9.2399999999999996E-002     2.0346787459442766     
   9.2700000000000005E-002     2.1863007803136156     
   9.3000000000000013E-002     2.2999101316380433     
   9.3300000000000008E-002     2.3540052446641795     
   9.3600000000000003E-002     2.3284958632383166     
   9.3899999999999997E-002     2.2056964262358321     
   9.4200000000000006E-002     1.9732578197380803     
   9.4500000000000001E-002     1.6259244028540323     
   9.4800000000000009E-002     1.1662478402327263     
   9.5100000000000004E-002    0.60633844165153672     
   9.5399999999999999E-002    -3.3519928731342130E-002
   9.5699999999999993E-002   -0.72511880813753748     
   9.6000000000000002E-002    -1.4341289134791282     
   9.6300000000000011E-002    -2.1232763404156287     
   9.6600000000000005E-002    -2.7541016557569407     
   9.6900000000000000E-002    -3.2910302084692091     
   9.7200000000000009E-002    -3.7036277007398439     
   9.7499999999999989E-002    -3.9689962814381090     
   9.7799999999999998E-002    -4.0740959446490876     
   9.8100000000000007E-002    -4.0158355272895534     
   9.8400000000000015E-002    -3.8017120932020134     
   9.8699999999999996E-002    -3.4487374201563767     
   9.9000000000000005E-002    -2.9815546465508760     
   9.9300000000000013E-002    -2.4305855176788143     
   9.9599999999999994E-002    -1.8291870450968162     
   9.9900000000000003E-002    -1.2106295023395717     
  0.10020000000000001        -0.60597061724254475     
  0.10049999999999999         -4.1381739620540259E-002
  0.10080000000000000         0.46308279204008862     
  0.10110000000000001         0.89463116669239184     
  0.10140000000000000          1.2480640380361407     
  0.10170000000000000          1.5246068354794957     
  0.10200000000000001          1.7316276802312842     
  0.10230000000000002          1.8802126336565053     
  0.10260000000000000          1.9832776518030499     
  0.10290000000000001          2.0541098423278044     
  0.10320000000000000          2.1033992587723134     
  0.10350000000000001          2.1387520441015653     
  0.10380000000000000          2.1629881304265268     
  0.10410000000000001          2.1737096560668192     
  0.10440000000000001          2.1641555447501588     
  0.10470000000000000          2.1232644309792192     
  0.10500000000000000          2.0381798355841951     
  0.10530000000000000          1.8954820967397623     
  0.10560000000000000          1.6834150931329717     
  0.10590000000000001          1.3944182006427823     
  0.10620000000000000          1.0263205891929221     
  0.10650000000000001         0.58409200173590570     
  0.10679999999999999          7.9952918956201380E-002
  0.10710000000000000        -0.46634729759993832     
  0.10740000000000001         -1.0290823404321614     
  0.10770000000000000         -1.5781379671813767     
  0.10800000000000000         -2.0812931542025410     
  0.10830000000000001         -2.5073336595972933     
  0.10859999999999999         -2.8281263428105063     
  0.10890000000000000         -3.0220690907318755     
  0.10920000000000001         -3.0751707691682100     
  0.10950000000000001         -2.9828253805231526     
  0.10979999999999999         -2.7503199933816234     
  0.11009999999999999         -2.3915515394474127     
  0.11040000000000001         -1.9288503199900546     
  0.11070000000000001         -1.3898081289988582     
  0.11100000000000000        -0.80550176757194691     
  0.11130000000000000        -0.20808338422895112     
  0.11160000000000002         0.37245128127196026     
  0.11190000000000001         0.90929164396419893     
  0.11220000000000001          1.3811870703371198     
  0.11250000000000000          1.7729274849202952     
  0.11280000000000000          2.0750104456434997     
  0.11309999999999999          2.2841952884105154     
  0.11340000000000001          2.4015122013280461     
  0.11369999999999998          2.4316469718109204     
  0.11400000000000000          2.3818060362724793     
  0.11430000000000000          2.2599088276614552     
  0.11460000000000002          2.0745579827231850     
  0.11489999999999999          1.8339859811738464     
  0.11520000000000001          1.5460353726420379     
  0.11550000000000001          1.2190639784739687     
  0.11580000000000000         0.86170007554390615     
  0.11609999999999999         0.48413777720976725     
  0.11640000000000002          9.8580328263929928E-002
  0.11670000000000001        -0.28119594809651449     
  0.11700000000000001        -0.63872717239865651     
  0.11730000000000000        -0.95635983687522597     
  0.11760000000000000         -1.2160877945310915     
  0.11789999999999999         -1.4003532539696906     
  0.11820000000000001         -1.4949246709078423     
  0.11850000000000001         -1.4892012018459084     
  0.11880000000000000         -1.3788206430472592     
  0.11910000000000000         -1.1664781068694712     
  0.11940000000000002        -0.86190236086774075     
  0.11970000000000001        -0.48304803097217608     
  0.12000000000000001         -5.3824808420038117E-002
  0.12030000000000000         0.39653336617359791     
  0.12060000000000000         0.83561150240952742     
  0.12089999999999999          1.2308331510279586     
  0.12119999999999999          1.5510218020408928     
  0.12150000000000001          1.7696962387037658     
  0.12180000000000001          1.8667699747921773     
  0.12210000000000000          1.8298639486567723     
  0.12239999999999999          1.6558270429134083     
  0.12270000000000002          1.3505188178736773     
  0.12300000000000001         0.92840208284749171     
  0.12330000000000001         0.41196200683291551     
  0.12360000000000000        -0.17002586467110437     
  0.12390000000000000        -0.78410862354607502     
  0.12419999999999999         -1.3940206553504098     
  0.12450000000000001         -1.9630341853093967     
  0.12480000000000001         -2.4551884825906427     
  0.12509999999999999         -2.8378610443166110     
  0.12540000000000001         -3.0836342995597192     
  0.12570000000000003         -3.1711798601170358     
  0.12600000000000000         -3.0877830184693380     
  0.12630000000000002         -2.8292600568264135     
  0.12659999999999999         -2.4014685733920871     
  0.12690000000000001         -1.8208999437378708     
  0.12719999999999998         -1.1131714962536758     
  0.12750000000000000        -0.31393424448130602     
  0.12780000000000002         0.53393558966909715     
  0.12809999999999999          1.3820012171573453     
  0.12840000000000001          2.1784547236265368     
  0.12869999999999998          2.8727001538274664     
  0.12900000000000000          3.4168379130307329     
  0.12930000000000003          3.7705210824087203     
  0.12959999999999999          3.9036751341720901     
  0.12990000000000002          3.7985926817516713     
  0.13019999999999998          3.4528263070346696     
  0.13050000000000000          2.8787315548359516     
  0.13080000000000003          2.1042179230178473     
  0.13109999999999999          1.1711446176315441     
  0.13140000000000002         0.13258403403706964     
  0.13169999999999998        -0.94974642214247496     
  0.13200000000000001         -2.0103167021669179     
  0.13229999999999997         -2.9834440499234631     
  0.13260000000000000         -3.8080170600730696     
  0.13290000000000002         -4.4316832155591896     
  0.13319999999999999         -4.8143194464769863     
  0.13350000000000001         -4.9308837920861777     
  0.13380000000000003         -4.7732375916147873     
  0.13410000000000000         -4.3505710109231472     
  0.13440000000000002         -3.6889871152528215     
  0.13469999999999999         -2.8296402223493686     
  0.13500000000000001         -1.8259824627503676     
  0.13529999999999998        -0.74026138520004992     
  0.13560000000000000         0.36105260659196015     
  0.13590000000000002          1.4112141379508145     
  0.13619999999999999          2.3482474751508704     
  0.13650000000000001          3.1186876072980141     
  0.13680000000000003          3.6812170057749398     
  0.13710000000000000          4.0095063580925938     
  0.13740000000000002          4.0931590817743739     
  0.13769999999999999          3.9391901119135042     
  0.13800000000000001          3.5699869366906967     
  0.13829999999999998          3.0219291485577386     
  0.13860000000000000          2.3424979773906287     
  0.13890000000000002          1.5855636674743134     
  0.13919999999999999         0.80845563565438283     
  0.13950000000000001          6.5881196604582470E-002
  0.13979999999999998        -0.59308641771639437     
  0.14010000000000000         -1.1286768495524910     
  0.14040000000000002         -1.5144548086853149     
  0.14069999999999999         -1.7369921349141251     
  0.14100000000000001         -1.7980407520996948     
  0.14130000000000004         -1.7122239142434097     
  0.14160000000000000         -1.5052599000117013     
  0.14189999999999997         -1.2116838316934704     
  0.14219999999999999        -0.86933401133364718     
  0.14250000000000002        -0.51736465963220502     
  0.14279999999999998        -0.19082448383922834     
  0.14310000000000000          8.2399855019127166E-002
  0.14339999999999997         0.28320830672417419     
  0.14369999999999999         0.40427711165619584     
  0.14400000000000002         0.44871577322627232     
  0.14429999999999998         0.43002596702061346     
  0.14460000000000001         0.36960954291631176     
  0.14490000000000003         0.29340095886291095     
  0.14520000000000000         0.22924831551565195     
  0.14550000000000002         0.20223904137524062     
  0.14579999999999999         0.23185541191707415     
  0.14610000000000001         0.32912292034129464     
  0.14640000000000003         0.49477061842703662     
  0.14670000000000000         0.71895855896789129     
  0.14699999999999996         0.98172267173289285     
  0.14729999999999999          1.2550265968945382     
  0.14760000000000001          1.5056957640502731     
  0.14789999999999998          1.6993605262197420     
  0.14820000000000000          1.8041377465025619     