  -1.4999999999999999E-002     0.0000000000000000     
  -1.4700000000000000E-002     1.0574340435437513E-023
  -1.4400000000000000E-002     3.3123677317740553E-019
  -1.4100000000000000E-002     4.1974929459423667E-017
  -1.3800000000000000E-002    -1.3085062907368958E-016
  -1.3500000000000000E-002    -8.4964333339114864E-015
  -1.3200000000000000E-002    -2.4180395658451913E-015
  -1.2899999999999998E-002     1.9607915551639321E-013
  -1.2600000000000000E-002     3.9050476719447447E-013
  -1.2299999999999998E-002    -1.4685188828855722E-012
  -1.2000000000000000E-002    -4.2254776067007782E-012
  -1.1699999999999999E-002    -6.4206990418869125E-012
  -1.1399999999999999E-002     6.3195334382148971E-012
  -1.1099999999999999E-002     1.9441907805894942E-010
  -1.0799999999999999E-002     4.8816298225951016E-011
  -1.0499999999999999E-002    -1.4698190442530290E-009
  -1.0199999999999999E-002     2.5508464784884666E-010
  -9.8999999999999991E-003     5.1697868208577802E-009
  -9.5999999999999992E-003    -4.0437502235590728E-009
  -9.2999999999999992E-003    -5.9646296790560882E-009
  -8.9999999999999993E-003     1.3654266162177464E-008
  -8.6999999999999994E-003    -1.2006919014595496E-008
  -8.3999999999999995E-003    -1.6421878967776138E-008
  -8.0999999999999996E-003     3.9828542242048570E-008
  -7.7999999999999988E-003     1.0819340978684977E-009
  -7.4999999999999997E-003    -3.0061563904837385E-008
  -7.1999999999999998E-003     2.1458063770296576E-008
  -6.8999999999999981E-003     1.1510881137155593E-009
  -6.5999999999999982E-003    -1.0089578950100986E-007
  -6.3000000000000000E-003    -3.8981482930466882E-008
  -6.0000000000000001E-003     2.7705667093869124E-007
  -5.6999999999999985E-003     1.1379606235095707E-007
  -5.3999999999999986E-003    -2.8044988198416831E-007
  -5.1000000000000004E-003    -1.8506676724427962E-007
  -4.7999999999999987E-003    -1.1702218927212016E-007
  -4.5000000000000005E-003     3.6053853591511142E-007
  -4.1999999999999989E-003     6.7599125941342209E-007
  -3.8999999999999990E-003    -6.5186122810700908E-007
  -3.5999999999999990E-003    -2.0253291950211860E-006
  -3.2999999999999991E-003     4.6249138563325687E-007
  -2.9999999999999992E-003     6.0059487623220775E-006
  -2.6999999999999993E-003     2.5630301934143063E-006
  -2.3999999999999994E-003    -1.5252842786139809E-005
  -2.0999999999999977E-003    -2.1216214008745737E-005
  -1.7999999999999995E-003     3.9941442082636058E-005
  -1.4999999999999979E-003     2.1646858658641577E-004
  -1.1999999999999997E-003     4.9402384320273995E-004
  -8.9999999999999976E-004     8.0243870615959167E-004
  -5.9999999999999810E-004     1.1253674747422338E-003
  -2.9999999999999992E-004     1.5778806991875172E-003
   0.0000000000000000          2.3521687835454941E-003
   3.0000000000000165E-004     3.6408049054443836E-003
   5.9999999999999984E-004     5.6205289438366890E-003
   9.0000000000000149E-004     8.4923226386308670E-003
   1.2000000000000031E-003     1.2566237710416317E-002
   1.5000000000000013E-003     1.8319340422749519E-002
   1.8000000000000030E-003     2.6399349793791771E-002
   2.1000000000000012E-003     3.7555325776338577E-002
   2.3999999999999994E-003     5.2571728825569153E-002
   2.7000000000000010E-003     7.2329215705394745E-002
   2.9999999999999992E-003     9.7828298807144165E-002
   3.3000000000000008E-003    0.13008104264736176     
   3.6000000000000025E-003    0.16994445025920868     
   3.9000000000000007E-003    0.21791800856590271     
   4.2000000000000023E-003    0.27390354871749878     
   4.5000000000000005E-003    0.33691823482513428     
   4.7999999999999987E-003    0.40478041768074036     
   5.1000000000000004E-003    0.47377383708953857     
   5.4000000000000020E-003    0.53826558589935303     
   5.7000000000000037E-003    0.59042644500732422     
   5.9999999999999984E-003    0.62012755870819092     
   6.3000000000000000E-003    0.61500030755996704     
   6.6000000000000017E-003    0.56084787845611572     
   6.9000000000000034E-003    0.44225418567657471     
   7.2000000000000015E-003    0.24374143779277802     
   7.5000000000000032E-003    -4.8801105469465256E-002
   7.8000000000000014E-003   -0.44615787267684937     
   8.0999999999999996E-003   -0.95344501733779907     
   8.4000000000000012E-003    -1.5680788755416870     
   8.7000000000000029E-003    -2.2775135040283203     
   9.0000000000000011E-003    -3.0575892925262451     
   9.2999999999999992E-003    -3.8716099262237549     
   9.6000000000000009E-003    -4.6703948974609375     
   9.8999999999999991E-003    -5.3936834335327148     
   1.0200000000000001E-002    -5.9728107452392578     
   1.0500000000000002E-002    -6.3349561691284180     
   1.0800000000000004E-002    -6.4087471961975098     
   1.1099999999999999E-002    -6.1305446624755859     
   1.1400000000000000E-002    -5.4513568878173828     
   1.1700000000000002E-002    -4.3436899185180664     
   1.2000000000000004E-002    -2.8068070411682129     
   1.2300000000000002E-002   -0.87113869190216064     
   1.2600000000000000E-002     1.4002776145935059     
   1.2900000000000002E-002     3.9124488830566406     
   1.3200000000000000E-002     6.5423440933227539     
   1.3500000000000002E-002     9.1452074050903320     
   1.3800000000000003E-002     11.563622474670410     
   1.4100000000000001E-002     13.638309478759766     
   1.4400000000000000E-002     15.219029426574707     
   1.4700000000000001E-002     16.176313400268555     
   1.4999999999999999E-002     16.411497116088867     
   1.5300000000000001E-002     15.864624023437500     
   1.5600000000000003E-002     14.520172119140625     
   1.5899999999999997E-002     12.409695625305176     
   1.6199999999999999E-002     9.6109457015991211     
   1.6500000000000001E-002     6.2440176010131836     
   1.6800000000000002E-002     2.4652822017669678     
   1.7100000000000004E-002    -1.5417685508728027     
   1.7400000000000006E-002    -5.5758376121520996     
   1.7700000000000000E-002    -9.4298210144042969     
   1.8000000000000002E-002    -12.901186943054199     
   1.8300000000000004E-002    -15.802870750427246     
   1.8600000000000005E-002    -17.973827362060547     
   1.8900000000000000E-002    -19.287569046020508     
   1.9200000000000002E-002    -19.659044265747070     
   1.9500000000000003E-002    -19.050157546997070     
   1.9799999999999998E-002    -17.472360610961914     
   2.0100000000000000E-002    -14.986840248107910     
   2.0400000000000001E-002    -11.702150344848633     
   2.0700000000000003E-002    -7.7682056427001953     
   2.0999999999999998E-002    -3.3694996833801270     
   2.1299999999999999E-002     1.2858709096908569     
   2.1600000000000001E-002     5.9778413772583008     
   2.1900000000000003E-002     10.485101699829102     
   2.2200000000000004E-002     14.598222732543945     
   2.2500000000000006E-002     18.127935409545898     
   2.2800000000000001E-002     20.913490295410156     
   2.3100000000000002E-002     22.827566146850586     
   2.3400000000000004E-002     23.775600433349609     
   2.3699999999999999E-002     23.697059631347656     
   2.4000000000000000E-002     22.560668945312500     
   2.4300000000000002E-002     20.360393524169922     
   2.4599999999999997E-002     17.114303588867188     
   2.4900000000000005E-002     12.861078262329102     
   2.5200000000000000E-002     7.6654329299926758     
   2.5499999999999995E-002     1.6202297210693359     
   2.5800000000000003E-002    -5.1435556411743164     
   2.6099999999999998E-002    -12.447246551513672     
   2.6400000000000007E-002    -20.059740066528320     
   2.6700000000000002E-002    -27.687616348266602     
   2.6999999999999996E-002    -34.980113983154297     
   2.7300000000000005E-002    -41.536426544189453     
   2.7600000000000000E-002    -46.923160552978516     
   2.7900000000000008E-002    -50.703414916992188     
   2.8200000000000003E-002    -52.467758178710938     
   2.8499999999999998E-002    -51.876281738281250     
   2.8800000000000006E-002    -48.696376800537109     
   2.9100000000000001E-002    -42.836471557617188     
   2.9400000000000003E-002    -34.378086090087891     
   2.9700000000000004E-002    -23.582780838012695     
   3.0000000000000006E-002    -10.893612861633301     
   3.0300000000000001E-002     3.0831060409545898     
   3.0600000000000002E-002     17.617202758789062     
   3.0900000000000004E-002     31.899208068847656     
   3.1199999999999999E-002     45.102912902832031     
   3.1500000000000007E-002     56.445968627929688     
   3.1800000000000002E-002     65.251869201660156     
   3.2099999999999997E-002     71.001197814941406     
   3.2400000000000005E-002     73.372711181640625     
   3.2700000000000000E-002     72.267013549804688     
   3.3000000000000002E-002     67.807945251464844     
   3.3300000000000003E-002     60.332351684570312     
   3.3599999999999998E-002     50.355964660644531     
   3.3900000000000000E-002     38.530162811279297     
   3.4200000000000001E-002     25.589485168457031     
   3.4500000000000003E-002     12.293119430541992     
   3.4799999999999998E-002   -0.62721991539001465     
   3.5099999999999999E-002    -12.520709037780762     
   3.5400000000000001E-002    -22.852563858032227     
   3.5699999999999996E-002    -31.230924606323242     
   3.6000000000000004E-002    -37.422039031982422     
   3.6299999999999999E-002    -41.346187591552734     
   3.6600000000000008E-002    -43.068988800048828     
   3.6900000000000002E-002    -42.775867462158203     
   3.7199999999999997E-002    -40.746856689453125     
   3.7500000000000006E-002    -37.323722839355469     
   3.7800000000000000E-002    -32.877544403076172     
   3.8100000000000009E-002    -27.783082962036133     
   3.8400000000000004E-002    -22.389411926269531     
   3.8699999999999998E-002    -17.005491256713867     
   3.9000000000000007E-002    -11.886385917663574     
   3.9300000000000002E-002    -7.2253289222717285     
   3.9600000000000003E-002    -3.1576640605926514     
   3.9900000000000005E-002    0.24199604988098145     
   4.0200000000000000E-002     2.9469249248504639     
   4.0500000000000001E-002     4.9721369743347168     
   4.0800000000000003E-002     6.3675961494445801     
   4.1100000000000005E-002     7.2017021179199219     
   4.1399999999999999E-002     7.5613632202148438     
   4.1700000000000008E-002     7.5375857353210449     
   4.2000000000000003E-002     7.2217340469360352     
   4.2299999999999997E-002     6.7037534713745117     
   4.2600000000000006E-002     6.0595245361328125     
   4.2900000000000001E-002     5.3599905967712402     
   4.3200000000000002E-002     4.6595225334167480     
   4.3500000000000004E-002     3.9984676837921143     
   4.3799999999999999E-002     3.4085099697113037     
   4.4100000000000000E-002     2.9016318321228027     
   4.4400000000000002E-002     2.4857854843139648     
   4.4700000000000004E-002     2.1565487384796143     
   4.4999999999999998E-002     1.9013478755950928     
   4.5300000000000000E-002     1.7111885547637939     
   4.5600000000000002E-002     1.5664379596710205     
   4.5899999999999996E-002     1.4553273916244507     
   4.6200000000000005E-002     1.3672317266464233     
   4.6500000000000000E-002     1.2897650003433228     
   4.6799999999999994E-002     1.2233140468597412     
   4.7100000000000003E-002     1.1608241796493530     
   4.7399999999999998E-002     1.1034176349639893     
   4.7700000000000006E-002     1.0533695220947266     
   4.8000000000000001E-002     1.0056306123733521     
   4.8300000000000010E-002    0.96500658988952637     
   4.8600000000000004E-002    0.92568558454513550     
   4.8899999999999999E-002    0.88448226451873779     
   4.9200000000000008E-002    0.84097832441329956     
   4.9500000000000002E-002    0.78692024946212769     
   4.9800000000000011E-002    0.72460401058197021     
   5.0100000000000006E-002    0.65178793668746948     
   5.0400000000000000E-002    0.56899052858352661     
   5.0700000000000009E-002    0.48392167687416077     
   5.1000000000000004E-002    0.39694043993949890     
   5.1299999999999998E-002    0.31687465310096741     
   5.1600000000000007E-002    0.24888183176517487     
   5.1900000000000002E-002    0.19385462999343872     
   5.2200000000000010E-002    0.15715426206588745     
   5.2500000000000005E-002    0.13411548733711243     
   5.2800000000000000E-002    0.12234880030155182     
   5.3099999999999994E-002    0.11810607463121414     
   5.3400000000000003E-002    0.11188015341758728     
   5.3699999999999998E-002    0.10129123181104660     
   5.4000000000000006E-002     8.0241382122039795E-002
   5.4300000000000001E-002     4.5409839600324631E-002
   5.4599999999999996E-002     7.2742346674203873E-005
   5.4900000000000004E-002    -5.6840904057025909E-002
   5.5199999999999999E-002   -0.11869498342275620     
   5.5499999999999994E-002   -0.17984531819820404     
   5.5800000000000002E-002   -0.23818340897560120     
   5.6099999999999997E-002   -0.28562396764755249     
   5.6400000000000006E-002   -0.32306802272796631     
   5.6700000000000000E-002   -0.34946498274803162     
   5.6999999999999995E-002   -0.36447280645370483     
   5.7300000000000004E-002   -0.37517043948173523     
   5.7599999999999998E-002   -0.38115891814231873     
   5.7900000000000007E-002   -0.38796338438987732     
   5.8200000000000002E-002   -0.39845877885818481     
   5.8499999999999996E-002   -0.40990975499153137     
   5.8800000000000005E-002   -0.42537286877632141     
   5.9100000000000000E-002   -0.43901598453521729     
   5.9400000000000008E-002   -0.44788071513175964     
   5.9700000000000003E-002   -0.45054849982261658     
   6.0000000000000012E-002   -0.44004154205322266     
   6.0300000000000006E-002   -0.41937297582626343     
   6.0600000000000001E-002   -0.38716724514961243     
   6.0900000000000010E-002   -0.34490430355072021     
   6.1200000000000004E-002   -0.30074298381805420     
   6.1500000000000013E-002   -0.25537550449371338     
   6.1800000000000008E-002   -0.21716478466987610     
   6.2100000000000002E-002   -0.18974849581718445     
   6.2399999999999997E-002   -0.17334231734275818     
   6.2700000000000006E-002   -0.17191344499588013     
   6.3000000000000000E-002   -0.17912946641445160     
   6.3300000000000009E-002   -0.19266153872013092     
   6.3600000000000004E-002   -0.20732070505619049     
   6.3899999999999998E-002   -0.21401451528072357     
   6.4199999999999993E-002   -0.21125966310501099     
   6.4500000000000002E-002   -0.19260731339454651     
   6.4800000000000010E-002   -0.15773972868919373     
   6.5100000000000005E-002   -0.11022160202264786     
   6.5400000000000000E-002    -5.1669061183929443E-002
   6.5700000000000008E-002     7.8415507450699806E-003
   6.5999999999999989E-002     6.2407113611698151E-002
   6.6299999999999998E-002    0.10398446768522263     
   6.6600000000000006E-002    0.12458915263414383     
   6.6900000000000001E-002    0.12333173304796219     
   6.7199999999999996E-002     9.7456313669681549E-002
   6.7500000000000004E-002     5.1796514540910721E-002
   6.7800000000000013E-002    -6.3423360697925091E-003
   6.8099999999999994E-002    -6.8344794213771820E-002
   6.8400000000000002E-002   -0.12209381163120270     
   6.8700000000000011E-002   -0.15839166939258575     
   6.8999999999999992E-002   -0.16863758862018585     
   6.9300000000000000E-002   -0.14844430983066559     
   6.9600000000000009E-002    -9.8657160997390747E-002
   6.9900000000000004E-002    -2.4366278201341629E-002
   7.0199999999999999E-002     6.4579255878925323E-002
   7.0500000000000007E-002    0.15535800158977509     
   7.0800000000000016E-002    0.23371116816997528     
   7.1099999999999997E-002    0.28745135664939880     
   7.1400000000000005E-002    0.30657362937927246     
   7.1700000000000000E-002    0.28773197531700134     
   7.1999999999999995E-002    0.23408971726894379     
   7.2300000000000003E-002    0.15407671034336090     
   7.2600000000000012E-002     6.4806960523128510E-002
   7.2900000000000006E-002    -1.6269829124212265E-002
   7.3200000000000001E-002    -6.8735435605049133E-002
   7.3499999999999996E-002    -7.5031504034996033E-002
   7.3800000000000004E-002    -2.5956660509109497E-002
   7.4099999999999999E-002     8.3380088210105896E-002
   7.4400000000000008E-002    0.24281568825244904     
   7.4700000000000003E-002    0.43513762950897217     
   7.5000000000000011E-002    0.63423180580139160     
   7.5299999999999992E-002    0.80462062358856201     
   7.5600000000000001E-002    0.91415107250213623     
   7.5900000000000009E-002    0.92955142259597778     
   7.6200000000000004E-002    0.82775086164474487     
   7.6499999999999999E-002    0.59886097908020020     
   7.6800000000000007E-002    0.24542763829231262     
   7.7099999999999988E-002   -0.20877188444137573     
   7.7399999999999997E-002   -0.72817790508270264     
   7.7700000000000005E-002    -1.2625684738159180     
   7.8000000000000014E-002    -1.7525329589843750     
   7.8299999999999995E-002    -2.1408627033233643     
   7.8600000000000003E-002    -2.3716514110565186     
   7.8900000000000012E-002    -2.4042100906372070     
   7.9199999999999993E-002    -2.2147541046142578     
   7.9500000000000001E-002    -1.8003852367401123     
   7.9800000000000010E-002    -1.1840853691101074     
   8.0100000000000018E-002   -0.40811163187026978     
   8.0399999999999999E-002    0.46412047743797302     
   8.0700000000000008E-002     1.3583928346633911     
   8.1000000000000003E-002     2.1957278251647949     
   8.1299999999999997E-002     2.8987998962402344     
   8.1600000000000006E-002     3.4041974544525146     
   8.1900000000000014E-002     3.6638069152832031     
   8.2199999999999995E-002     3.6544179916381836     
   8.2500000000000004E-002     3.3766751289367676     
   8.2799999999999999E-002     2.8545980453491211     
   8.3100000000000007E-002     2.1354849338531494     
   8.3400000000000002E-002     1.2785485982894897     
   8.3700000000000011E-002    0.35630464553833008     
   8.4000000000000005E-002   -0.56000673770904541     
   8.4300000000000000E-002    -1.4039124250411987     
   8.4599999999999995E-002    -2.1163980960845947     
   8.4900000000000003E-002    -2.6590034961700439     
   8.5199999999999998E-002    -3.0043046474456787     
   8.5500000000000007E-002    -3.1462285518646240     
   8.5800000000000001E-002    -3.0942349433898926     
   8.6100000000000010E-002    -2.8670620918273926     
   8.6399999999999991E-002    -2.5001163482666016     
   8.6699999999999999E-002    -2.0267767906188965     
   8.7000000000000008E-002    -1.4881069660186768     
   8.7300000000000003E-002   -0.92373770475387573     
   8.7599999999999997E-002   -0.36454308032989502     
   8.7900000000000006E-002    0.15419004857540131     
   8.8200000000000014E-002    0.61269450187683105     
   8.8499999999999995E-002    0.99183988571166992     
   8.8800000000000004E-002     1.2780747413635254     
   8.9100000000000013E-002     1.4705654382705688     
   8.9399999999999993E-002     1.5639177560806274     
   8.9700000000000002E-002     1.5673722028732300     
   9.0000000000000011E-002     1.4894188642501831     
   9.0299999999999991E-002     1.3408015966415405     
   9.0600000000000000E-002     1.1431502103805542     
   9.0900000000000009E-002    0.90839749574661255     
   9.1200000000000017E-002    0.65882831811904907     
   9.1499999999999998E-002    0.41254106163978577     
   9.1800000000000007E-002    0.18157416582107544     
   9.2100000000000001E-002    -1.5947870910167694E-002
   9.2399999999999996E-002   -0.17642655968666077     
   9.2700000000000005E-002   -0.29309892654418945     
   9.3000000000000013E-002   -0.36575064063072205     
   9.3300000000000008E-002   -0.40194585919380188     
   9.3600000000000003E-002   -0.40357351303100586     
   9.3899999999999997E-002   -0.38382509350776672     
   9.4200000000000006E-002   -0.35027152299880981     
   9.4500000000000001E-002   -0.30946931242942810     
   9.4800000000000009E-002   -0.27164152264595032     
   9.5100000000000004E-002   -0.23720325529575348     
   9.5399999999999999E-002   -0.21014389395713806     
   9.5699999999999993E-002   -0.18994110822677612     
   9.6000000000000002E-002   -0.17278997600078583     
   9.6300000000000011E-002   -0.15876144170761108     
   9.6600000000000005E-002   -0.14246651530265808     
   9.6900000000000000E-002   -0.12319761514663696     
   9.7200000000000009E-002   -0.10094733536243439     
   9.7499999999999989E-002    -7.4234172701835632E-002
   9.7799999999999998E-002    -4.6825323253870010E-002
   9.8100000000000007E-002    -1.9772036001086235E-002
   9.8400000000000015E-002     4.2609199881553650E-003
   9.8699999999999996E-002     2.2231403738260269E-002
   9.9000000000000005E-002     3.4029357135295868E-002
   9.9300000000000013E-002     3.8866687566041946E-002
   9.9599999999999994E-002     3.7806577980518341E-002
   9.9900000000000003E-002     3.3486083149909973E-002
  0.10020000000000001          2.7900490909814835E-002
  0.10049999999999999          2.3442164063453674E-002
  0.10080000000000000          2.2853011265397072E-002
  0.10110000000000001          2.5954483076930046E-002
  0.10140000000000000          3.3592071384191513E-002
  0.10170000000000000          4.4418931007385254E-002
  0.10200000000000001          5.4925285279750824E-002
  0.10230000000000002          6.4818866550922394E-002
  0.10260000000000000          6.9411575794219971E-002
  0.10290000000000001          6.8163901567459106E-002
  0.10320000000000000          6.1427220702171326E-002
  0.10350000000000001          4.6772889792919159E-002
  0.10380000000000000          2.9620166867971420E-002
  0.10410000000000001          9.7267087548971176E-003
  0.10440000000000001         -8.9473715052008629E-003
  0.10470000000000000         -2.1411659196019173E-002
  0.10500000000000000         -2.9765686020255089E-002
  0.10530000000000000         -2.7914168313145638E-002
  0.10560000000000000         -1.9357971847057343E-002
  0.10590000000000001         -5.1947557367384434E-003
  0.10620000000000000          1.5613297000527382E-002
  0.10650000000000001          3.4327022731304169E-002
  0.10679999999999999          5.3648814558982849E-002
  0.10710000000000000          6.7718252539634705E-002
  0.10740000000000001          7.4079327285289764E-002
  0.10770000000000000          7.6848037540912628E-002
  0.10800000000000000          6.9763854146003723E-002
  0.10830000000000001          6.0172606259584427E-002
  0.10859999999999999          4.7250866889953613E-002
  0.10890000000000000          3.1554583460092545E-002
  0.10920000000000001          2.0609650760889053E-002
  0.10950000000000001          8.3517637103796005E-003
  0.10979999999999999          1.4559255214408040E-003
  0.11009999999999999         -2.5543731171637774E-003
  0.11040000000000001         -7.3360884562134743E-003
  0.11070000000000001         -7.6877772808074951E-003
  0.11100000000000000         -1.2111638672649860E-002
  0.11130000000000000         -1.6584504395723343E-002
  0.11160000000000002         -2.2702297195792198E-002
  0.11190000000000001         -3.3296097069978714E-002
  0.11220000000000001         -4.1027393192052841E-002
  0.11250000000000000         -5.1109768450260162E-002
  0.11280000000000000         -5.7416949421167374E-002
  0.11309999999999999         -5.8403372764587402E-002
  0.11340000000000001         -5.7126276195049286E-002
  0.11369999999999998         -4.6724583953619003E-002
  0.11400000000000000         -3.3315587788820267E-002
  0.11430000000000000         -1.5488959848880768E-002
  0.11460000000000002          5.6757940910756588E-003
  0.11489999999999999          2.3234970867633820E-002
  0.11520000000000001          4.0592685341835022E-002
  0.11550000000000001          5.0684791058301926E-002
  0.11580000000000000          5.3848445415496826E-002
  0.11609999999999999          5.1759056746959686E-002
  0.11640000000000002          4.0115512907505035E-002
  0.11670000000000001          2.5914337486028671E-002
  0.11700000000000001          7.6844203285872936E-003
  0.11730000000000000         -1.1538024991750717E-002
  0.11760000000000000         -2.6843359693884850E-002
  0.11789999999999999         -4.0768504142761230E-002
  0.11820000000000001         -4.7814685851335526E-002
  0.11850000000000001         -5.0396654754877090E-002
  0.11880000000000000         -4.9273692071437836E-002
  0.11910000000000000         -4.3232202529907227E-002
  0.11940000000000002         -3.7442654371261597E-002
  0.11970000000000001         -3.0514637008309364E-002
  0.12000000000000001         -2.4893168359994888E-002
  0.12030000000000000         -2.2026428952813148E-002
  0.12060000000000000         -1.9639968872070312E-002
  0.12089999999999999         -1.9307939335703850E-002
  0.12119999999999999         -1.8361546099185944E-002
  0.12150000000000001         -1.5289703384041786E-002
  0.12180000000000001         -1.0225698351860046E-002
  0.12210000000000000         -1.2408751063048840E-003
  0.12239999999999999          1.0656446218490601E-002
  0.12270000000000002          2.4323869496583939E-002
  0.12300000000000001          3.8755148649215698E-002
  0.12330000000000001          5.0974875688552856E-002
  0.12360000000000000          5.9075143188238144E-002
  0.12390000000000000          6.1791371554136276E-002
  0.12419999999999999          5.6907255202531815E-002
  0.12450000000000001          4.5674640685319901E-002
  0.12480000000000001          2.9013488441705704E-002
  0.12509999999999999          7.7481609769165516E-003
  0.12540000000000001         -1.3066784478724003E-002
  0.12570000000000003         -3.3000033348798752E-002
  0.12600000000000000         -4.8477914184331894E-002
  0.12630000000000002         -5.6668948382139206E-002
  0.12659999999999999         -5.9338290244340897E-002
  0.12690000000000001         -5.3498696535825729E-002
  0.12719999999999998         -4.3308824300765991E-002
  0.12750000000000000         -2.9899962246417999E-002
  0.12780000000000002         -1.3864046894013882E-002
  0.12809999999999999         -1.1062338016927242E-003
  0.12840000000000001          1.0776800103485584E-002
  0.12869999999999998          1.8384249880909920E-002
  0.12900000000000000          2.1628988906741142E-002
  0.12930000000000003          2.3867532610893250E-002
  0.12959999999999999          2.2459609434008598E-002
  0.12990000000000002          2.2581672295928001E-002
  0.13019999999999998          2.3543389514088631E-002
  0.13050000000000000          2.5204710662364960E-002
  0.13080000000000003          3.0498066917061806E-002
  0.13109999999999999          3.4830663353204727E-002
  0.13140000000000002          3.9764139801263809E-002
  0.13169999999999998          4.2937632650136948E-002
  0.13200000000000001          4.0959678590297699E-002
  0.13229999999999997          3.6085247993469238E-002
  0.13260000000000000          2.4903554469347000E-002
  0.13290000000000002          9.5354709774255753E-003
  0.13319999999999999         -7.9637970775365829E-003
  0.13350000000000001         -2.7712922543287277E-002
  0.13380000000000003         -4.4207878410816193E-002
  0.13410000000000000         -5.7310797274112701E-002
  0.13440000000000002         -6.4559072256088257E-002
  0.13469999999999999         -6.3560768961906433E-002
  0.13500000000000001         -5.6613940745592117E-002
  0.13529999999999998         -4.2655345052480698E-002
  0.13560000000000000         -2.4554235860705376E-002
  0.13590000000000002         -5.3932061418890953E-003
  0.13619999999999999          1.3903157785534859E-002
  0.13650000000000001          2.9370600357651711E-002
  0.13680000000000003          4.0164712816476822E-002
  0.13710000000000000          4.5908469706773758E-002
  0.13740000000000002          4.5715466141700745E-002
  0.13769999999999999          4.1791018098592758E-002
  0.13800000000000001          3.5200029611587524E-002
  0.13829999999999998          2.7073249220848083E-002
  0.13860000000000000          2.0270140841603279E-002
  0.13890000000000002          1.4620053581893444E-002
  0.13919999999999999          1.0572152212262154E-002
  0.13950000000000001          9.0309614315629005E-003
  0.13979999999999998          6.9322497583925724E-003
  0.14010000000000000          4.8380824737250805E-003
  0.14040000000000002          1.1267965892329812E-003
  0.14069999999999999         -6.1194482259452343E-003
  0.14100000000000001         -1.4392962679266930E-002
  0.14130000000000004         -2.6145689189434052E-002
  0.14160000000000000         -3.8111288100481033E-002
  0.14189999999999997         -4.7841858118772507E-002
  0.14219999999999999         -5.6391634047031403E-002
  0.14250000000000002         -5.7889558374881744E-002
  0.14279999999999998         -5.4320033639669418E-002
  0.14310000000000000         -4.4762667268514633E-002
  0.14339999999999997         -2.7899364009499550E-002
  0.14369999999999999         -9.8102409392595291E-003
  0.14400000000000002          1.1973415501415730E-002
  0.14429999999999998          3.1663529574871063E-002
  0.14460000000000001          4.6584583818912506E-002
  0.14490000000000003          5.8325614780187607E-002
  0.14520000000000000          6.0423981398344040E-002
  0.14550000000000002          5.7638347148895264E-002
  0.14579999999999999          4.8848688602447510E-002
  0.14610000000000001          3.4557696431875229E-002
  0.14640000000000003          2.0984975621104240E-002
  0.14670000000000000          5.3665130399167538E-003
  0.14699999999999996         -6.7997020669281483E-003
  0.14729999999999999         -1.5340002253651619E-002
  0.14760000000000001         -2.2236654534935951E-002
  0.14789999999999998         -2.3761020973324776E-002
  0.14820000000000000         -2.4847161024808884E-002