  -1.4999999999999999E-002     0.0000000000000000     
  -1.4700000000000000E-002     0.0000000000000000     
  -1.4400000000000000E-002     0.0000000000000000     
  -1.4100000000000000E-002     0.0000000000000000     
  -1.3800000000000000E-002     0.0000000000000000     
  -1.3500000000000000E-002     0.0000000000000000     
  -1.3200000000000000E-002     0.0000000000000000     
  -1.2899999999999998E-002     0.0000000000000000     
  -1.2600000000000000E-002     0.0000000000000000     
  -1.2299999999999998E-002     0.0000000000000000     
  -1.2000000000000000E-002     0.0000000000000000     
  -1.1699999999999999E-002     0.0000000000000000     
  -1.1399999999999999E-002     0.0000000000000000     
  -1.1099999999999999E-002     0.0000000000000000     
  -1.0799999999999999E-002     0.0000000000000000     
  -1.0499999999999999E-002     0.0000000000000000     
  -1.0199999999999999E-002     0.0000000000000000     
  -9.8999999999999991E-003     0.0000000000000000     
  -9.5999999999999992E-003     0.0000000000000000     
  -9.2999999999999992E-003     0.0000000000000000     
  -8.9999999999999993E-003     0.0000000000000000     
  -8.6999999999999994E-003     0.0000000000000000     
  -8.3999999999999995E-003     0.0000000000000000     
  -8.0999999999999996E-003     0.0000000000000000     
  -7.7999999999999988E-003     0.0000000000000000     
  -7.4999999999999997E-003     0.0000000000000000     
  -7.1999999999999998E-003     0.0000000000000000     
  -6.8999999999999981E-003     0.0000000000000000     
  -6.5999999999999982E-003     0.0000000000000000     
  -6.3000000000000000E-003     0.0000000000000000     
  -6.0000000000000001E-003     0.0000000000000000     
  -5.6999999999999985E-003     0.0000000000000000     
  -5.3999999999999986E-003     0.0000000000000000     
  -5.1000000000000004E-003     0.0000000000000000     
  -4.7999999999999987E-003     0.0000000000000000     
  -4.5000000000000005E-003     0.0000000000000000     
  -4.1999999999999989E-003     0.0000000000000000     
  -3.8999999999999990E-003     0.0000000000000000     
  -3.5999999999999990E-003     0.0000000000000000     
  -3.2999999999999991E-003     0.0000000000000000     
  -2.9999999999999992E-003     0.0000000000000000     
  -2.6999999999999993E-003     0.0000000000000000     
  -2.3999999999999994E-003     0.0000000000000000     
  -2.0999999999999977E-003     0.0000000000000000     
  -1.7999999999999995E-003     0.0000000000000000     
  -1.4999999999999979E-003     0.0000000000000000     
  -1.1999999999999997E-003     0.0000000000000000     
  -8.9999999999999976E-004     0.0000000000000000     
  -5.9999999999999810E-004     0.0000000000000000     
  -2.9999999999999992E-004     0.0000000000000000     
   0.0000000000000000          0.0000000000000000     
   3.0000000000000165E-004     0.0000000000000000     
   5.9999999999999984E-004     0.0000000000000000     
   9.0000000000000149E-004     0.0000000000000000     
   1.2000000000000031E-003     0.0000000000000000     
   1.5000000000000013E-003     0.0000000000000000     
   1.8000000000000030E-003     0.0000000000000000     
   2.1000000000000012E-003     0.0000000000000000     
   2.3999999999999994E-003     0.0000000000000000     
   2.7000000000000010E-003     0.0000000000000000     
   2.9999999999999992E-003     0.0000000000000000     
   3.3000000000000008E-003     0.0000000000000000     
   3.6000000000000025E-003     0.0000000000000000     
   3.9000000000000007E-003     0.0000000000000000     
   4.2000000000000023E-003     0.0000000000000000     
   4.5000000000000005E-003     0.0000000000000000     
   4.7999999999999987E-003     0.0000000000000000     
   5.1000000000000004E-003    -5.0564779588589655E-038
   5.4000000000000020E-003    -8.5277510930433359E-037
   5.7000000000000037E-003     3.8777998210403645E-035
   5.9999999999999984E-003    -2.5791398063303350E-034
   6.3000000000000000E-003    -3.7173747472867660E-034
   6.6000000000000017E-003     2.1166141199832746E-032
   6.9000000000000034E-003    -1.7665239854141676E-031
   7.2000000000000015E-003     4.1957967673512943E-031
   7.5000000000000032E-003     4.5031149510684635E-030
   7.8000000000000014E-003    -4.7316555601897503E-029
   8.0999999999999996E-003     1.6156133992091136E-028
   8.4000000000000012E-003     3.3963201348684937E-028
   8.7000000000000029E-003    -5.9740619494861897E-027
   9.0000000000000011E-003     2.6519032674990532E-026
   9.2999999999999992E-003    -3.0593401445455882E-026
   9.6000000000000009E-003    -2.9421691369974951E-025
   9.8999999999999991E-003     1.9976187448299688E-024
   1.0200000000000001E-002    -5.8878236328270306E-024
   1.0500000000000002E-002     3.1242246409519010E-024
   1.0800000000000004E-002     5.3435815833758549E-023
   1.1099999999999999E-002    -2.7268805467911005E-022
   1.1400000000000000E-002     6.5926412632887116E-022
   1.1700000000000002E-002    -2.9658215516654384E-022
   1.2000000000000004E-002    -4.3458578713930586E-021
   1.2300000000000002E-002     1.9592300647255312E-020
   1.2600000000000000E-002    -4.4740809966537429E-020
   1.2900000000000002E-002     4.6478846930593549E-020
   1.3200000000000000E-002     8.5160372155646475E-021
   1.3500000000000002E-002     4.1688473718815068E-019
   1.3800000000000003E-002    -5.5849028541138068E-018
   1.4100000000000001E-002     3.6941462667040851E-017
   1.4400000000000000E-002    -1.8560037674719756E-016
   1.4700000000000001E-002     8.1280464219440797E-016
   1.4999999999999999E-002    -3.3103329559071220E-015
   1.5300000000000001E-002     1.2885485013457123E-014
   1.5600000000000003E-002    -4.7834165582398119E-014
   1.5899999999999997E-002     1.6473338095964383E-013
   1.6199999999999999E-002    -4.9846541369906512E-013
   1.6500000000000001E-002     1.1876889192486269E-012
   1.6800000000000002E-002    -1.4915546342307099E-012
   1.7100000000000004E-002    -3.8644221204489163E-012
   1.7400000000000006E-002     3.2368107123072726E-011
   1.7700000000000000E-002    -1.1031301483966830E-010
   1.8000000000000002E-002     1.9063348294340639E-010
   1.8300000000000004E-002     8.5761450731154424E-011
   1.8600000000000005E-002    -1.4101653481958459E-009
   1.8900000000000000E-002     3.0820816437345282E-009
   1.9200000000000002E-002     7.8905208060050339E-010
   1.9500000000000003E-002    -1.6060853011039351E-008
   1.9799999999999998E-002     1.7662007676564273E-008
   2.0100000000000000E-002     4.9376378993607101E-008
   2.0400000000000001E-002    -1.0138377923380293E-007
   2.0700000000000003E-002    -1.6418178863491859E-007
   2.0999999999999998E-002     3.0965182085016941E-007
   2.1299999999999999E-002     5.6978476489517516E-007
   2.1600000000000001E-002    -6.2702084452016029E-007
   2.1900000000000003E-002    -1.8254291349460879E-006
   2.2200000000000004E-002     9.7993106514811479E-007
   2.2500000000000006E-002     8.5550123473006470E-006
   2.2800000000000001E-002     1.5963125367398181E-005
   2.3100000000000002E-002     2.0392680259604225E-005
   2.3400000000000004E-002     2.8436112456356141E-005
   2.3699999999999999E-002     4.9708719874677751E-005
   2.4000000000000000E-002     8.5830463403690268E-005
   2.4300000000000002E-002     1.3339406608589306E-004
   2.4599999999999997E-002     1.9828809580746745E-004
   2.4900000000000005E-002     2.9952060797950545E-004
   2.5200000000000000E-002     4.5666671198775141E-004
   2.5499999999999995E-002     6.8306226877568044E-004
   2.5800000000000003E-002     9.9838064425715814E-004
   2.6099999999999998E-002     1.4412699713517996E-003
   2.6400000000000007E-002     2.0624430394402191E-003
   2.6700000000000002E-002     2.9122673539972582E-003
   2.6999999999999996E-002     4.0461083507056239E-003
   2.7300000000000005E-002     5.5390639536047059E-003
   2.7600000000000000E-002     7.4825521916663251E-003
   2.7900000000000008E-002     9.9660426857548501E-003
   2.8200000000000003E-002     1.3070672531426297E-002
   2.8499999999999998E-002     1.6876912602226624E-002
   2.8800000000000006E-002     2.1458661518970801E-002
   2.9100000000000001E-002     2.6856484283133475E-002
   2.9400000000000003E-002     3.3055513960184468E-002
   2.9700000000000004E-002     3.9980538297027746E-002
   3.0000000000000006E-002     4.7488992948082176E-002
   3.0300000000000001E-002     5.5347689255837551E-002
   3.0600000000000002E-002     6.3209267896022103E-002
   3.0900000000000004E-002     7.0615336382484628E-002
   3.1199999999999999E-002     7.7015000055152605E-002
   3.1500000000000007E-002     8.1769264767086458E-002
   3.1800000000000002E-002     8.4172004399576839E-002
   3.2099999999999997E-002     8.3498294973896048E-002
   3.2400000000000005E-002     7.9072725934606680E-002
   3.2700000000000000E-002     7.0323869714595588E-002
   3.3000000000000002E-002     5.6841394489332009E-002
   3.3300000000000003E-002     3.8451313457030123E-002
   3.3599999999999998E-002     1.5295187053623593E-002
   3.3900000000000000E-002    -1.2133281123466122E-002
   3.4200000000000001E-002    -4.2983669700377258E-002
   3.4500000000000003E-002    -7.6055543162551142E-002
   3.4799999999999998E-002   -0.10983276454072266     
   3.5099999999999999E-002   -0.14256847439309395     
   3.5400000000000001E-002   -0.17239624861938552     
   3.5699999999999996E-002   -0.19747701607260559     
   3.6000000000000004E-002   -0.21615645507669701     
   3.6299999999999999E-002   -0.22709477208330409     
   3.6600000000000008E-002   -0.22940869518167251     
   3.6900000000000002E-002   -0.22279723916917149     
   3.7199999999999997E-002   -0.20759263419329521     
   3.7500000000000006E-002   -0.18477029916139553     
   3.7800000000000000E-002   -0.15590723204076973     
   3.8100000000000009E-002   -0.12310339082919475     
   3.8400000000000004E-002    -8.8810871603452579E-002
   3.8699999999999998E-002    -5.5661315894251606E-002
   3.9000000000000007E-002    -2.6276489662121927E-002
   3.9300000000000002E-002    -3.0571644677505824E-003
   3.9600000000000003E-002     1.1984578791240416E-002
   3.9900000000000005E-002     1.7429963488797995E-002
   4.0200000000000000E-002     1.2538195904404192E-002
   4.0500000000000001E-002    -2.6744147283870034E-003
   4.0800000000000003E-002    -2.7437429502142507E-002
   4.1100000000000005E-002    -6.0266702766066160E-002
   4.1399999999999999E-002    -9.9021506186784958E-002
   4.1700000000000008E-002   -0.14102705060472065     
   4.2000000000000003E-002   -0.18328057426301214     
   4.2299999999999997E-002   -0.22263613734573173     
   4.2600000000000006E-002   -0.25595770622955172     
   4.2900000000000001E-002   -0.28034002670949043     
   4.3200000000000002E-002   -0.29328920252451418     
   4.3500000000000004E-002   -0.29287440036826595     
   4.3799999999999999E-002   -0.27786350836215412     
   4.4100000000000000E-002   -0.24780136374584938     
   4.4400000000000002E-002   -0.20305163997705300     
   4.4700000000000004E-002   -0.14476667506008933     
   4.4999999999999998E-002    -7.4824596781428276E-002
   4.5300000000000000E-002     4.2858690169311209E-003
   4.5600000000000002E-002     8.9655783331537675E-002
   4.5899999999999996E-002    0.17810823545499499     
   4.6200000000000005E-002    0.26640340069931945     
   4.6500000000000000E-002    0.35149326977073336     
   4.6799999999999994E-002    0.43065819539330974     
   4.7100000000000003E-002    0.50162583607841071     
   4.7399999999999998E-002    0.56268758258600116     
   4.7700000000000006E-002    0.61275180758580916     
   4.8000000000000001E-002    0.65130487262804948     
   4.8300000000000010E-002    0.67831928085536219     
   4.8600000000000004E-002    0.69416252144585044     
   4.8899999999999999E-002    0.69945546938215131     
   4.9200000000000008E-002    0.69492085332335307     
   4.9500000000000002E-002    0.68125017278588729     
   4.9800000000000011E-002    0.65897664023568936     
   5.0100000000000006E-002    0.62842743455438210     
   5.0400000000000000E-002    0.58972241898401734     
   5.0700000000000009E-002    0.54278190007612537     
   5.1000000000000004E-002    0.48738851536091410     
   5.1299999999999998E-002    0.42335050000012941     
   5.1600000000000007E-002    0.35069167295954173     
   5.1900000000000002E-002    0.26976591813963502     
   5.2200000000000010E-002    0.18134822854006671     
   5.2500000000000005E-002     8.6792362305200488E-002
   5.2800000000000000E-002    -1.1851254151284962E-002
   5.3099999999999994E-002   -0.11192701589649734     
   5.3400000000000003E-002   -0.21025393388449665     
   5.3699999999999998E-002   -0.30330666010466523     
   5.4000000000000006E-002   -0.38738812859639005     
   5.4300000000000001E-002   -0.45887374331214481     
   5.4599999999999996E-002   -0.51463202292366006     
   5.4900000000000004E-002   -0.55224764259855874     
   5.5199999999999999E-002   -0.57014343126251532     
   5.5499999999999994E-002   -0.56789628273762460     
   5.5800000000000002E-002   -0.54624631295195414     
   5.6099999999999997E-002   -0.50707755323123038     
   5.6400000000000006E-002   -0.45335173799225892     
   5.6700000000000000E-002   -0.38875337746211613     
   5.6999999999999995E-002   -0.31741998355085244     
   5.7300000000000004E-002   -0.24373956492782600     
   5.7599999999999998E-002   -0.17191472156324572     
   5.7900000000000007E-002   -0.10572622430792666     
   5.8200000000000002E-002    -4.8202182506948965E-002
   5.8499999999999996E-002    -1.4998885989660760E-003
   5.8800000000000005E-002     3.3047818717586941E-002
   5.9100000000000000E-002     5.5072551135280368E-002
   5.9400000000000008E-002     6.5006926629260997E-002
   5.9700000000000003E-002     6.3899576388806389E-002
   6.0000000000000012E-002     5.3367988764515095E-002
   6.0300000000000006E-002     3.5291182870879068E-002
   6.0600000000000001E-002     1.1678530225404576E-002
   6.0900000000000010E-002    -1.5365492070254338E-002
   6.1200000000000004E-002    -4.3810836867397507E-002
   6.1500000000000013E-002    -7.1804019374765771E-002
   6.1800000000000008E-002    -9.7569236809330828E-002
   6.2100000000000002E-002   -0.11947293580150609     
   6.2399999999999997E-002   -0.13621953705768064     
   6.2700000000000006E-002   -0.14671471773361899     
   6.3000000000000000E-002   -0.15019815366940659     
   6.3300000000000009E-002   -0.14627960295776887     
   6.3600000000000004E-002   -0.13515605656267748     
   6.3899999999999998E-002   -0.11768147366638138     
   6.4199999999999993E-002    -9.5249791002252060E-002
   6.4500000000000002E-002    -7.0096360139215719E-002
   6.4800000000000010E-002    -4.5190789731328174E-002
   6.5100000000000005E-002    -2.3930755190986974E-002
   6.5400000000000000E-002    -1.0150125605536964E-002
   6.5700000000000008E-002    -7.8157110431132382E-003
   6.5999999999999989E-002    -2.0596756195017440E-002
   6.6299999999999998E-002    -5.1584773868999650E-002
   6.6600000000000006E-002   -0.10284971765641893     
   6.6900000000000001E-002   -0.17509380050647216     
   6.7199999999999996E-002   -0.26733674099256621     
   6.7500000000000004E-002   -0.37680855276939518     
   6.7800000000000013E-002   -0.49889517272127293     
   6.8099999999999994E-002   -0.62715458987415218     
   6.8400000000000002E-002   -0.75359183020566434     
   6.8700000000000011E-002   -0.86929486900445951     
   6.8999999999999992E-002   -0.96482654114586452     
   6.9300000000000000E-002    -1.0307393440928898     
   6.9600000000000009E-002    -1.0585831655154720     
   6.9900000000000004E-002    -1.0414591001519184     
   7.0199999999999999E-002   -0.97444998405640959     
   7.0500000000000007E-002   -0.85536444551936341     
   7.0800000000000016E-002   -0.68498703024426888     
   7.1099999999999997E-002   -0.46718561677316650     
   7.1400000000000005E-002   -0.20892222047573750     
   7.1700000000000000E-002     8.0125379686306175E-002
   7.1999999999999995E-002    0.38783319795803983     
   7.2300000000000003E-002    0.70039936494608135     
   7.2600000000000012E-002     1.0030667010243342     
   7.2900000000000006E-002     1.2806828332096600     
   7.3200000000000001E-002     1.5188465061312542     
   7.3499999999999996E-002     1.7046685500192780     
   7.3800000000000004E-002     1.8273314049810523     
   7.4099999999999999E-002     1.8789893682091900     
   7.4400000000000008E-002     1.8552550994901509     
   7.4700000000000003E-002     1.7556000805144834     
   7.5000000000000011E-002     1.5834673772105603     
   7.5299999999999992E-002     1.3461846648618376     
   7.5600000000000001E-002     1.0548014644375954     
   7.5900000000000009E-002    0.72351108575073297     
   7.6200000000000004E-002    0.36875430026386624     
   7.6499999999999999E-002     8.2065767191301653E-003
   7.6800000000000007E-002   -0.34000142450717874     
   7.7099999999999988E-002   -0.65859560169261400     
   7.7399999999999997E-002   -0.93243071123480803     
   7.7700000000000005E-002    -1.1493351112912400     
   7.8000000000000014E-002    -1.3008490303339073     
   7.8299999999999995E-002    -1.3823834171913703     
   7.8600000000000003E-002    -1.3937238329078454     
   7.8900000000000012E-002    -1.3388543133354602     
   7.9199999999999993E-002    -1.2249434752928750     
   7.9500000000000001E-002    -1.0618907568143712     
   7.9800000000000010E-002   -0.86121747955719741     
   8.0100000000000018E-002   -0.63498778560281721     
   8.0399999999999999E-002   -0.39506513695500622     
   8.0700000000000008E-002   -0.15193239482441889     
   8.1000000000000003E-002     8.5627160622100185E-002
   8.1299999999999997E-002    0.31086095777333578     
   8.1600000000000006E-002    0.51931556521159372     
   8.1900000000000014E-002    0.70837264964021784     
   8.2199999999999995E-002    0.87690148126835155     
   8.2500000000000004E-002     1.0247159357405806     
   8.2799999999999999E-002     1.1518834701634475     
   8.3100000000000007E-002     1.2583213281229320     
   8.3400000000000002E-002     1.3432384558066914     
   8.3700000000000011E-002     1.4047411483300962     
   8.4000000000000005E-002     1.4398403532477460     
   8.4300000000000000E-002     1.4444547156887992     
   8.4599999999999995E-002     1.4137966857166830     
   8.4900000000000003E-002     1.3429389251297579     
   8.5199999999999998E-002     1.2270282145502520     
   8.5500000000000007E-002     1.0620399003948151     
   8.5800000000000001E-002    0.84573650742163409     
   8.6100000000000010E-002    0.57808296085201860     
   8.6399999999999991E-002    0.26168310032067588     
   8.6699999999999999E-002    -9.7902117533886113E-002
   8.7000000000000008E-002   -0.49186001776963639     
   8.7300000000000003E-002   -0.90793943974858315     
   8.7599999999999997E-002    -1.3311105864090287     
   8.7900000000000006E-002    -1.7440167730399168     
   8.8200000000000014E-002    -2.1274157166417496     
   8.8499999999999995E-002    -2.4613427335351048     
   8.8800000000000004E-002    -2.7261724087950796     
   8.9100000000000013E-002    -2.9036927115530915     
   8.9399999999999993E-002    -2.9783965142036095     
   8.9700000000000002E-002    -2.9382607434583718     
   9.0000000000000011E-002    -2.7759952984051495     
   9.0299999999999991E-002    -2.4899968533661934     
   9.0600000000000000E-002    -2.0844761985815836     
   9.0900000000000009E-002    -1.5696931179665512     
   9.1200000000000017E-002   -0.96193725439942313     
   9.1499999999999998E-002   -0.28310403237680237     
   9.1800000000000007E-002    0.44014625266286700     
   9.2100000000000001E-002     1.1777619548044245     
   9.2399999999999996E-002     1.8977180700812362     
   9.2700000000000005E-002     2.5671686936548568     
   9.3000000000000013E-002     3.1542540558035199     
   9.3300000000000008E-002     3.6301838942778204     
   9.3600000000000003E-002     3.9705066649800784     
   9.3899999999999997E-002     4.1565638974880130     
   9.4200000000000006E-002     4.1764060898438657     
   9.4500000000000001E-002     4.0256408880799768     
   9.4800000000000009E-002     3.7081703223609139     
   9.5100000000000004E-002     3.2354888122081036     
   9.5399999999999999E-002     2.6261991810860934     
   9.5699999999999993E-002     1.9054205563688811     
   9.6000000000000002E-002     1.1031912623058240     
   9.6300000000000011E-002    0.25316445519667607     
   9.6600000000000005E-002   -0.60906545573489268     
   9.6900000000000000E-002    -1.4480471790416272     
   9.7200000000000009E-002    -2.2297165734011095     
   9.7499999999999989E-002    -2.9228264092126537     
   9.7799999999999998E-002    -3.5005566656920024     
   9.8100000000000007E-002    -3.9414637803711230     
   9.8400000000000015E-002    -4.2302328478336904     
   9.8699999999999996E-002    -4.3580305256892871     
   9.9000000000000005E-002    -4.3224678475775988     
   9.9300000000000013E-002    -4.1279781528055253     
   9.9599999999999994E-002    -3.7851853132061564     
   9.9900000000000003E-002    -3.3101472407423245     
  0.10020000000000001         -2.7240300496511338     
  0.10049999999999999         -2.0518433705728256     
  0.10080000000000000         -1.3215305928430183     
  0.10110000000000001        -0.56316583461998704     
  0.10140000000000000         0.19267306597420664     
  0.10170000000000000         0.91597942486204253     
  0.10200000000000001          1.5784474514015709     
  0.10230000000000002          2.1547728738752170     
  0.10260000000000000          2.6234455935880092     
  0.10290000000000001          2.9680042861127305     
  0.10320000000000000          3.1779239232882048     
  0.10350000000000001          3.2487043362364716     
  0.10380000000000000          3.1822702011588717     
  0.10410000000000001          2.9869114685446050     
  0.10440000000000001          2.6766457037900722     
  0.10470000000000000          2.2707076818095544     
  0.10500000000000000          1.7922487247600714     
  0.10530000000000000          1.2671572905927633     
  0.10560000000000000         0.72264221898143077     
  0.10590000000000001         0.18540703733964348     
  0.10620000000000000        -0.31939293719889861     
  0.10650000000000001        -0.76940258364476799     
  0.10679999999999999         -1.1468909473048257     
  0.10710000000000000         -1.4390071739566359     
  0.10740000000000001         -1.6380845361564269     
  0.10770000000000000         -1.7422388300957721     
  0.10800000000000000         -1.7551087251422430     
  0.10830000000000001         -1.6850432543108980     
  0.10859999999999999         -1.5440089828347823     
  0.10890000000000000         -1.3467528307669951     
  0.10920000000000001         -1.1097891633011230     
  0.10950000000000001        -0.84968336414525680     
  0.10979999999999999        -0.58182464935495659     
  0.11009999999999999        -0.31983245310050101     
  0.11040000000000001         -7.4294986637048588E-002
  0.11070000000000001         0.14752256035888411     
  0.11100000000000000         0.34148968877795305     
  0.11130000000000000         0.50670616380530120     
  0.11160000000000002         0.64466668830603169     
  0.11190000000000001         0.75821148893484036     
  0.11220000000000001         0.85096642888054319     
  0.11250000000000000         0.92605636955493864     
  0.11280000000000000         0.98510089980312543     
  0.11309999999999999          1.0277527292297499     
  0.11340000000000001          1.0512660690138063     
  0.11369999999999998          1.0507896994821095     
  0.11400000000000000          1.0196792522105298     
  0.11430000000000000         0.95026586121862167     
  0.11460000000000002         0.83522339939169399     
  0.11489999999999999         0.66861532306451110     
  0.11520000000000001         0.44713651500404161     
  0.11550000000000001         0.17146980617943131     
  0.11580000000000000        -0.15327144079844590     
  0.11609999999999999        -0.51686095784774810     
  0.11640000000000002        -0.90402864970724472     
  0.11670000000000001         -1.2953228552540068     
  0.11700000000000001         -1.6676884900241902     
  0.11730000000000000         -1.9961258192914642     
  0.11760000000000000         -2.2556232459007290     
  0.11789999999999999         -2.4229836076402123     
  0.11820000000000001         -2.4788490211805225     
  0.11850000000000001         -2.4092813068451449     
  0.11880000000000000         -2.2074318282025729     
  0.11910000000000000         -1.8750082782588962     
  0.11940000000000002         -1.4223610769549921     
  0.11970000000000001        -0.86810836149393111     
  0.12000000000000001        -0.23869008546985238     
  0.12030000000000000         0.43305449244560634     
  0.12060000000000000          1.1101038035151678     
  0.12089999999999999          1.7537758399501975     
  0.12119999999999999          2.3263737460267748     
  0.12150000000000001          2.7934811692920007     
  0.12180000000000001          3.1267518388433189     
  0.12210000000000000          3.3063674652525918     
  0.12239999999999999          3.3216682041707628     
  0.12270000000000002          3.1722422279978701     
  0.12300000000000001          2.8681412451775969     
  0.12330000000000001          2.4288071953854313     
  0.12360000000000000          1.8820493975581911     
  0.12390000000000000          1.2616180274201412     
  0.12419999999999999         0.60504639072643762     
  0.12450000000000001         -4.8356765170331606E-002
  0.12480000000000001        -0.66055259478471129     
  0.12509999999999999         -1.1967973728441703     
  0.12540000000000001         -1.6275520129204146     
  0.12570000000000003         -1.9301418653256377     
  0.12600000000000000         -2.0894043819470625     
  0.12630000000000002         -2.0988833059653444     
  0.12659999999999999         -1.9609837054793573     
  0.12690000000000001         -1.6860578259722985     
  0.12719999999999998         -1.2920711516095622     
  0.12750000000000000        -0.80389839900839632     
  0.12780000000000002        -0.25180223092717968     
  0.12809999999999999         0.33024030839586871     
  0.12840000000000001         0.90626283521416440     
  0.12869999999999998          1.4398715308375318     
  0.12900000000000000          1.8963838054543523     
  0.12930000000000003          2.2450044745329905     
  0.12959999999999999          2.4602551372748067     
  0.12990000000000002          2.5234423794819634     
  0.13019999999999998          2.4241753527196863     
  0.13050000000000000          2.1607027614272312     
  0.13080000000000003          1.7401327497933821     
  0.13109999999999999          1.1785617375019690     
  0.13140000000000002         0.49968151229552937     
  0.13169999999999998        -0.26669450626321733     
  0.13200000000000001         -1.0859785874179266     
  0.13229999999999997         -1.9208684320339700     
  0.13260000000000000         -2.7333600922629255     
  0.13290000000000002         -3.4869601317773729     
  0.13319999999999999         -4.1485414424312097     
  0.13350000000000001         -4.6897537669051133     
  0.13380000000000003         -5.0885655350919592     
  0.13410000000000000         -5.3298227575587873     
  0.13440000000000002         -5.4061817668797971     
  0.13469999999999999         -5.3182161911914250     
  0.13500000000000001         -5.0732697257338941     
  0.13529999999999998         -4.6848201198604613     
  0.13560000000000000         -4.1714601138567104     
  0.13590000000000002         -3.5551723577552679     
  0.13619999999999999         -2.8593603296477994     
  0.13650000000000001         -2.1064057319073086     
  0.13680000000000003         -1.3162769968704637     
  0.13710000000000000        -0.50546047365213553     
  0.13740000000000002         0.31489516500877457     
  0.13769999999999999          1.1394742569942267     
  0.13800000000000001          1.9675994202515028     
  0.13829999999999998          2.8020992465196168     
  0.13860000000000000          3.6477338304740101     
  0.13890000000000002          4.5087373226518395     
  0.13919999999999999          5.3859009711583781     
  0.13950000000000001          6.2735256390727869     
  0.13979999999999998          7.1576302658078106     
  0.14010000000000000          8.0146462730557460     
  0.14040000000000002          8.8109593327894231     
  0.14069999999999999          9.5039308248150292     
  0.14100000000000001          10.043749860472474     
  0.14130000000000004          10.377508788748855     
  0.14160000000000000          10.453499128056194     
  0.14189999999999997          10.225285580918637     
  0.14219999999999999          9.6570908503275064     
  0.14250000000000002          8.7280596981810845     
  0.14279999999999998          7.4352480681645545     
  0.14310000000000000          5.7960426665607656     
  0.14339999999999997          3.8484102890679708     
  0.14369999999999999          1.6496501840396149     
  0.14400000000000002        -0.72610990091133232     
  0.14429999999999998         -3.1922785941014524     
  0.14460000000000001         -5.6546319119943149     
  0.14490000000000003         -8.0172408121131795     
  0.14520000000000000         -10.188327086709400     
  0.14550000000000002         -12.084407880693533     
  0.14579999999999999         -13.635203237561541     
  0.14610000000000001         -14.787388593807179     
  0.14640000000000003         -15.505319426377980     
  0.14670000000000000         -15.771796374305325     
  0.14699999999999996         -15.587355542338400     
  0.14729999999999999         -14.968497338545149     
  0.14760000000000001         -13.945528125759665     
  0.14789999999999998         -12.558881886518975     
  0.14820000000000000         -10.856928374870677     