  -1.4999999999999999E-002     0.0000000000000000     
  -1.4700000000000000E-002     0.0000000000000000     
  -1.4400000000000000E-002     0.0000000000000000     
  -1.4100000000000000E-002     0.0000000000000000     
  -1.3800000000000000E-002     0.0000000000000000     
  -1.3500000000000000E-002     0.0000000000000000     
  -1.3200000000000000E-002     0.0000000000000000     
  -1.2899999999999998E-002     0.0000000000000000     
  -1.2600000000000000E-002     0.0000000000000000     
  -1.2299999999999998E-002     0.0000000000000000     
  -1.2000000000000000E-002     0.0000000000000000     
  -1.1699999999999999E-002     0.0000000000000000     
  -1.1399999999999999E-002     0.0000000000000000     
  -1.1099999999999999E-002     0.0000000000000000     
  -1.0799999999999999E-002     0.0000000000000000     
  -1.0499999999999999E-002     0.0000000000000000     
  -1.0199999999999999E-002     0.0000000000000000     
  -9.8999999999999991E-003     0.0000000000000000     
  -9.5999999999999992E-003     0.0000000000000000     
  -9.2999999999999992E-003     0.0000000000000000     
  -8.9999999999999993E-003     0.0000000000000000     
  -8.6999999999999994E-003     0.0000000000000000     
  -8.3999999999999995E-003     0.0000000000000000     
  -8.0999999999999996E-003     0.0000000000000000     
  -7.7999999999999988E-003     0.0000000000000000     
  -7.4999999999999997E-003     0.0000000000000000     
  -7.1999999999999998E-003     0.0000000000000000     
  -6.8999999999999981E-003     0.0000000000000000     
  -6.5999999999999982E-003     0.0000000000000000     
  -6.3000000000000000E-003     0.0000000000000000     
  -6.0000000000000001E-003     0.0000000000000000     
  -5.6999999999999985E-003     0.0000000000000000     
  -5.3999999999999986E-003     0.0000000000000000     
  -5.1000000000000004E-003     0.0000000000000000     
  -4.7999999999999987E-003     0.0000000000000000     
  -4.5000000000000005E-003     0.0000000000000000     
  -4.1999999999999989E-003     0.0000000000000000     
  -3.8999999999999990E-003     0.0000000000000000     
  -3.5999999999999990E-003     0.0000000000000000     
  -3.2999999999999991E-003     0.0000000000000000     
  -2.9999999999999992E-003     0.0000000000000000     
  -2.6999999999999993E-003     0.0000000000000000     
  -2.3999999999999994E-003     0.0000000000000000     
  -2.0999999999999977E-003     0.0000000000000000     
  -1.7999999999999995E-003     0.0000000000000000     
  -1.4999999999999979E-003     0.0000000000000000     
  -1.1999999999999997E-003     0.0000000000000000     
  -8.9999999999999976E-004     0.0000000000000000     
  -5.9999999999999810E-004     0.0000000000000000     
  -2.9999999999999992E-004     0.0000000000000000     
   0.0000000000000000          0.0000000000000000     
   3.0000000000000165E-004     0.0000000000000000     
   5.9999999999999984E-004     0.0000000000000000     
   9.0000000000000149E-004     0.0000000000000000     
   1.2000000000000031E-003     0.0000000000000000     
   1.5000000000000013E-003     0.0000000000000000     
   1.8000000000000030E-003     0.0000000000000000     
   2.1000000000000012E-003     0.0000000000000000     
   2.3999999999999994E-003     0.0000000000000000     
   2.7000000000000010E-003     0.0000000000000000     
   2.9999999999999992E-003     0.0000000000000000     
   3.3000000000000008E-003     0.0000000000000000     
   3.6000000000000025E-003     0.0000000000000000     
   3.9000000000000007E-003     0.0000000000000000     
   4.2000000000000023E-003     0.0000000000000000     
   4.5000000000000005E-003     0.0000000000000000     
   4.7999999999999987E-003     0.0000000000000000     
   5.1000000000000004E-003     0.0000000000000000     
   5.4000000000000020E-003     0.0000000000000000     
   5.7000000000000037E-003     0.0000000000000000     
   5.9999999999999984E-003     0.0000000000000000     
   6.3000000000000000E-003     0.0000000000000000     
   6.6000000000000017E-003     0.0000000000000000     
   6.9000000000000034E-003     0.0000000000000000     
   7.2000000000000015E-003     0.0000000000000000     
   7.5000000000000032E-003     0.0000000000000000     
   7.8000000000000014E-003     0.0000000000000000     
   8.0999999999999996E-003     0.0000000000000000     
   8.4000000000000012E-003     0.0000000000000000     
   8.7000000000000029E-003    -1.4614795039852509E-038
   9.0000000000000011E-003    -5.4946873018569034E-037
   9.2999999999999992E-003     7.0004860563627913E-036
   9.6000000000000009E-003    -2.7928831937601359E-035
   9.8999999999999991E-003    -3.2386640893393926E-034
   1.0200000000000001E-002     5.2617758636036061E-033
   1.0500000000000002E-002    -2.7328719674825384E-032
   1.0800000000000004E-002    -4.7283914587228811E-032
   1.1099999999999999E-002     1.4940285971602718E-030
   1.1400000000000000E-002    -8.2148291749502021E-030
   1.1700000000000002E-002     1.3578995613425181E-030
   1.2000000000000004E-002     2.4055582216886686E-028
   1.2300000000000002E-002    -1.4081652816639705E-027
   1.2600000000000000E-002     1.9894752730900588E-027
   1.2900000000000002E-002     1.8401180550003751E-026
   1.3200000000000000E-002    -1.2399093905402881E-025
   1.3500000000000002E-002     2.8780794366194572E-025
   1.3800000000000003E-002     3.7248985230331850E-025
   1.4100000000000001E-002    -4.5966726471264966E-024
   1.4400000000000000E-002     1.2506889664524985E-023
   1.4700000000000001E-002     3.2776404905953158E-025
   1.4999999999999999E-002    -1.0095984907296680E-022
   1.5300000000000001E-002     2.1814843678859459E-022
   1.5600000000000003E-002     8.0823272430930805E-022
   1.5899999999999997E-002    -7.8352793596791353E-021
   1.6199999999999999E-002     3.4341926449320704E-020
   1.6500000000000001E-002    -1.1097505187705689E-019
   1.6800000000000002E-002     3.0905914542485403E-019
   1.7100000000000004E-002    -8.2605679154849470E-019
   1.7400000000000006E-002     2.2272407025114684E-018
   1.7700000000000000E-002    -5.8142234537720988E-018
   1.8000000000000002E-002     1.3405773450552470E-017
   1.8300000000000004E-002    -2.6968697766719749E-017
   1.8600000000000005E-002     8.3315397265076810E-017
   1.8900000000000000E-002    -6.4703550279473498E-016
   1.9200000000000002E-002     5.3644808375248540E-015
   1.9500000000000003E-002    -3.5859266337507541E-014
   1.9799999999999998E-002     1.9527344876398477E-013
   2.0100000000000000E-002    -8.7962932451593412E-013
   2.0400000000000001E-002     3.2431194247801122E-012
   2.0700000000000003E-002    -9.2942417261847290E-012
   2.0999999999999998E-002     1.7422709423137014E-011
   2.1299999999999999E-002    -1.6821133221515505E-012
   2.1600000000000001E-002    -1.2902956659844789E-010
   2.1900000000000003E-002     4.9455880622919282E-010
   2.2200000000000004E-002    -7.9568550342046130E-010
   2.2500000000000006E-002    -6.1552942741554737E-010
   2.2800000000000001E-002     5.7008739714838901E-009
   2.3100000000000002E-002    -8.2761445945509086E-009
   2.3400000000000004E-002    -1.2622118067956894E-008
   2.3699999999999999E-002     4.9666718361406618E-008
   2.4000000000000000E-002     7.3573525723922656E-009
   2.4300000000000002E-002    -1.9222155291576107E-007
   2.4599999999999997E-002    -8.4299908188597250E-009
   2.4900000000000005E-002     5.8823372762709469E-007
   2.5200000000000000E-002     1.9230816846300836E-007
   2.5499999999999995E-002    -1.5030169372002680E-006
   2.5800000000000003E-002    -1.2172789217604631E-006
   2.6099999999999998E-002     4.0575185901409823E-006
   2.6400000000000007E-002     1.1317003718224459E-005
   2.6700000000000002E-002     1.5170995656006920E-005
   2.6999999999999996E-002     1.8025638599892765E-005
   2.7300000000000005E-002     2.9859831622765145E-005
   2.7600000000000000E-002     5.5602864860313872E-005
   2.7900000000000008E-002     9.0717625171787310E-005
   2.8200000000000003E-002     1.3427750554875686E-004
   2.8499999999999998E-002     1.9982197893140315E-004
   2.8800000000000006E-002     3.0658757348563624E-004
   2.9100000000000001E-002     4.6586439391284144E-004
   2.9400000000000003E-002     6.8696439590165345E-004
   2.9700000000000004E-002     9.9496632483899589E-004
   3.0000000000000006E-002     1.4315673831041473E-003
   3.0300000000000001E-002     2.0391409563828983E-003
   3.0600000000000002E-002     2.8572911864281209E-003
   3.0900000000000004E-002     3.9391878463807956E-003
   3.1199999999999999E-002     5.3592222123657052E-003
   3.1500000000000007E-002     7.1969381117800713E-003
   3.1800000000000002E-002     9.5218293223287009E-003
   3.2099999999999997E-002     1.2400728598867317E-002
   3.2400000000000005E-002     1.5905458770336389E-002
   3.2700000000000000E-002     2.0094995173592922E-002
   3.3000000000000002E-002     2.4986631011905347E-002
   3.3300000000000003E-002     3.0547804510973720E-002
   3.3599999999999998E-002     3.6700735462711798E-002
   3.3900000000000000E-002     4.3310663613302269E-002
   3.4200000000000001E-002     5.0154522525576839E-002
   3.4500000000000003E-002     5.6909946949634138E-002
   3.4799999999999998E-002     6.3172431718883537E-002
   3.5099999999999999E-002     6.8471556357052599E-002
   3.5400000000000001E-002     7.2271086258530293E-002
   3.5699999999999996E-002     7.3983519573331158E-002
   3.6000000000000004E-002     7.3026240860811331E-002
   3.6299999999999999E-002     6.8880973247498645E-002
   3.6600000000000008E-002     6.1134386270174312E-002
   3.6900000000000002E-002     4.9520241141791654E-002
   3.7199999999999997E-002     3.3977874919130069E-002
   3.7500000000000006E-002     1.4714934471866122E-002
   3.7800000000000000E-002    -7.7668215077707492E-003
   3.8100000000000009E-002    -3.2695660754329725E-002
   3.8400000000000004E-002    -5.9032630018190702E-002
   3.8699999999999998E-002    -8.5513448642819512E-002
   3.9000000000000007E-002   -0.11072549051324199     
   3.9300000000000002E-002   -0.13320212296903211     
   3.9600000000000003E-002   -0.15155774536308897     
   3.9900000000000005E-002   -0.16459888490887664     
   4.0200000000000000E-002   -0.17141711728427556     
   4.0500000000000001E-002   -0.17148846087920422     
   4.0800000000000003E-002   -0.16477420028545353     
   4.1100000000000005E-002   -0.15174998570771692     
   4.1399999999999999E-002   -0.13337156112632353     
   4.1700000000000008E-002   -0.11101678603829779     
   4.2000000000000003E-002    -8.6425952900174963E-002
   4.2299999999999997E-002    -6.1584073510783099E-002
   4.2600000000000006E-002    -3.8546623053456464E-002
   4.2900000000000001E-002    -1.9277163042481393E-002
   4.3200000000000002E-002    -5.5107645660297591E-003
   4.3500000000000004E-002     1.3772459667468900E-003
   4.3799999999999999E-002     4.7664434761847396E-004
   4.4100000000000000E-002    -8.5604188882673626E-003
   4.4400000000000002E-002    -2.5456312383742907E-002
   4.4700000000000004E-002    -4.9363596687858724E-002
   4.4999999999999998E-002    -7.8902735898281673E-002
   4.5300000000000000E-002   -0.11222540084886701     
   4.5600000000000002E-002   -0.14713188524142051     
   4.5899999999999996E-002   -0.18117384362251698     
   4.6200000000000005E-002   -0.21183432740781338     
   4.6500000000000000E-002   -0.23671841112596770     
   4.6799999999999994E-002   -0.25365480840467391     
   4.7100000000000003E-002   -0.26081964341286223     
   4.7399999999999998E-002   -0.25688898421820117     
   4.7700000000000006E-002   -0.24113379098006060     
   4.8000000000000001E-002   -0.21348981141276546     
   4.8300000000000010E-002   -0.17449836878534697     
   4.8600000000000004E-002   -0.12533076149667410     
   4.8899999999999999E-002    -6.7734358789991900E-002
   4.9200000000000008E-002    -3.8821570641119907E-003
   4.9500000000000002E-002     6.3731370514546137E-002
   4.9800000000000011E-002    0.13247508348808790     
   5.0100000000000006E-002    0.19974895051177644     
   5.0400000000000000E-002    0.26309230441391840     
   5.0700000000000009E-002    0.32035810520352825     
   5.1000000000000004E-002    0.36983153371868660     
   5.1299999999999998E-002    0.41028005197478912     
   5.1600000000000007E-002    0.44098412161593181     
   5.1900000000000002E-002    0.46170821930380512     
   5.2200000000000010E-002    0.47268119265763531     
   5.2500000000000005E-002    0.47451815880133452     
   5.2800000000000000E-002    0.46811139469747509     
   5.3099999999999994E-002    0.45449329461905918     
   5.3400000000000003E-002    0.43476287992990237     
   5.3699999999999998E-002    0.41000781406314424     
   5.4000000000000006E-002    0.38121906194859356     
   5.4300000000000001E-002    0.34918111216601133     
   5.4599999999999996E-002    0.31451036416345879     
   5.4900000000000004E-002    0.27769567380110516     
   5.5199999999999999E-002    0.23906256017814886     
   5.5499999999999994E-002    0.19883330105403907     
   5.5800000000000002E-002    0.15721551881145412     
   5.6099999999999997E-002    0.11449669469658907     
   5.6400000000000006E-002     7.1122871391157805E-002
   5.6700000000000000E-002     2.7727991118568343E-002
   5.6999999999999995E-002    -1.4866676001613011E-002
   5.7300000000000004E-002    -5.5556682936729329E-002
   5.7599999999999998E-002    -9.3017156978640436E-002
   5.7900000000000007E-002   -0.12581255315897222     
   5.8200000000000002E-002   -0.15248025876257021     
   5.8499999999999996E-002   -0.17168871556534615     
   5.8800000000000005E-002   -0.18236526858666480     
   5.9100000000000000E-002   -0.18383094559711477     
   5.9400000000000008E-002   -0.17599317767731204     
   5.9700000000000003E-002   -0.15941169134276301     
   6.0000000000000012E-002   -0.13530080946823819     
   6.0300000000000006E-002   -0.10555589401487220     
   6.0600000000000001E-002    -7.2607559633114160E-002
   6.0900000000000010E-002    -3.9308931702569661E-002
   6.1200000000000004E-002    -8.7143088766941101E-003
   6.1500000000000013E-002     1.6223564611623387E-002
   6.1800000000000008E-002     3.2811701694712703E-002
   6.2100000000000002E-002     3.8917017399067833E-002
   6.2399999999999997E-002     3.3181149915197744E-002
   6.2700000000000006E-002     1.5119056830091515E-002
   6.3000000000000000E-002    -1.4728963171293907E-002
   6.3300000000000009E-002    -5.4867951641261126E-002
   6.3600000000000004E-002   -0.10293926636255968     
   6.3899999999999998E-002   -0.15579103748324385     
   6.4199999999999993E-002   -0.20973280469918176     
   6.4500000000000002E-002   -0.26074865007570480     
   6.4800000000000010E-002   -0.30482945844988230     
   6.5100000000000005E-002   -0.33823889413961439     
   6.5400000000000000E-002   -0.35772596139986135     
   6.5700000000000008E-002   -0.36080288638898672     
   6.5999999999999989E-002   -0.34596265438507423     
   6.6299999999999998E-002   -0.31274889663385608     
   6.6600000000000006E-002   -0.26191119005647501     
   6.6900000000000001E-002   -0.19537595616512338     
   6.7199999999999996E-002   -0.11608747796556296     
   6.7500000000000004E-002    -2.7925723024940785E-002
   6.7800000000000013E-002     6.4513724605550271E-002
   6.8099999999999994E-002    0.15628672613425199     
   6.8400000000000002E-002    0.24239351251693986     
   6.8700000000000011E-002    0.31810641981605237     
   6.8999999999999992E-002    0.37923507316875593     
   6.9300000000000000E-002    0.42240639892225218     
   6.9600000000000009E-002    0.44538537932796096     
   6.9900000000000004E-002    0.44698851229192904     
   7.0199999999999999E-002    0.42705177362208246     
   7.0500000000000007E-002    0.38650853619309267     
   7.0800000000000016E-002    0.32711457225334861     
   7.1099999999999997E-002    0.25122359716000542     
   7.1400000000000005E-002    0.16149495964083860     
   7.1700000000000000E-002     6.0670359737976520E-002
   7.1999999999999995E-002    -4.8479453479785217E-002
   7.2300000000000003E-002   -0.16336390989973637     
   7.2600000000000012E-002   -0.28161439312011893     
   7.2900000000000006E-002   -0.40095999961354245     
   7.3200000000000001E-002   -0.51919441465467386     
   7.3499999999999996E-002   -0.63396354882874562     
   7.3800000000000004E-002   -0.74259865334467534     
   7.4099999999999999E-002   -0.84212455854297730     
   7.4400000000000008E-002   -0.92924364500747814     
   7.4700000000000003E-002    -1.0003005918715893     
   7.5000000000000011E-002    -1.0514015626754372     
   7.5299999999999992E-002    -1.0788474286030123     
   7.5600000000000001E-002    -1.0793840825116234     
   7.5900000000000009E-002    -1.0504025062413582     
   7.6200000000000004E-002   -0.99027814849642937     
   7.6499999999999999E-002   -0.89867062740278314     
   7.6800000000000007E-002   -0.77670928449654753     
   7.7099999999999988E-002   -0.62692454441502399     
   7.7399999999999997E-002   -0.45319351886654324     
   7.7700000000000005E-002   -0.26068329448070671     
   7.8000000000000014E-002    -5.5394210691750878E-002
   7.8299999999999995E-002    0.15599368783140743     
   7.8600000000000003E-002    0.36647334365313888     
   7.8900000000000012E-002    0.56911166485109277     
   7.9199999999999993E-002    0.75713194768177416     
   7.9500000000000001E-002    0.92434500532014852     
   7.9800000000000010E-002     1.0652708929768195     
   8.0100000000000018E-002     1.1751778557468242     
   8.0399999999999999E-002     1.2503599793636724     
   8.0700000000000008E-002     1.2882357140180005     
   8.1000000000000003E-002     1.2874468931514258     
   8.1299999999999997E-002     1.2480250419684822     
   8.1600000000000006E-002     1.1714660753800388     
   8.1900000000000014E-002     1.0608980165587027     
   8.2199999999999995E-002    0.92109191699114845     
   8.2500000000000004E-002    0.75828424231622549     
   8.2799999999999999E-002    0.58004784083024141     
   8.3100000000000007E-002    0.39499683647026007     
   8.3400000000000002E-002    0.21219348373517011     
   8.3700000000000011E-002     4.0621095533781570E-002
   8.4000000000000005E-002   -0.11145307085688216     
   8.4300000000000000E-002   -0.23719036025934503     
   8.4599999999999995E-002   -0.33159242376659925     
   8.4900000000000003E-002   -0.39204439777440392     
   8.5199999999999998E-002   -0.41857369100660335     
   8.5500000000000007E-002   -0.41373471686809715     
   8.5800000000000001E-002   -0.38242616877143654     
   8.6100000000000010E-002   -0.33133871276333338     
   8.6399999999999991E-002   -0.26824773748216746     
   8.6699999999999999E-002   -0.20129957254571718     
   8.7000000000000008E-002   -0.13816572932021876     
   8.7300000000000003E-002    -8.5273821002821215E-002
   8.7599999999999997E-002    -4.7084874923294939E-002
   8.7900000000000006E-002    -2.5653234753095513E-002
   8.8200000000000014E-002    -2.0650401706630711E-002
   8.8499999999999995E-002    -2.9437627698649771E-002
   8.8800000000000004E-002    -4.7240086279078719E-002
   8.9100000000000013E-002    -6.7733437614529546E-002
   8.9399999999999993E-002    -8.3965218202028957E-002
   8.9700000000000002E-002    -8.9099792816393575E-002
   9.0000000000000011E-002    -7.7180897766075895E-002
   9.0299999999999991E-002    -4.3791181265758539E-002
   9.0600000000000000E-002     1.3304418543234775E-002
   9.0900000000000009E-002     9.3668701119065556E-002
   9.1200000000000017E-002    0.19436852765246826     
   9.1499999999999998E-002    0.30989025082057609     
   9.1800000000000007E-002    0.43237806037334536     
   9.2100000000000001E-002    0.55240051361149511     
   9.2399999999999996E-002    0.65949527128010388     
   9.2700000000000005E-002    0.74299417339634388     
   9.3000000000000013E-002    0.79283930948656689     
   9.3300000000000008E-002    0.80029605567085937     
   9.3600000000000003E-002    0.75889015738307108     
   9.3899999999999997E-002    0.66481955003778737     
   9.4200000000000006E-002    0.51746523339489325     
   9.4500000000000001E-002    0.31963475517548146     
   9.4800000000000009E-002     7.7525905748522916E-002
   9.5100000000000004E-002   -0.19935856773480864     
   9.5399999999999999E-002   -0.49873811241607946     
   9.5699999999999993E-002   -0.80619021338834784     
   9.6000000000000002E-002    -1.1059565147258965     
   9.6300000000000011E-002    -1.3817612911403714     
   9.6600000000000005E-002    -1.6178389159868871     
   9.6900000000000000E-002    -1.7999192735913851     
   9.7200000000000009E-002    -1.9161220930500207     
   9.7499999999999989E-002    -1.9575683102214398     
   9.7799999999999998E-002    -1.9188871427008891     
   9.8100000000000007E-002    -1.7988337352525505     
   9.8400000000000015E-002    -1.6001656777938749     
   9.8699999999999996E-002    -1.3291759979005633     
   9.9000000000000005E-002   -0.99564711556029373     
   9.9300000000000013E-002   -0.61228284567995728     
   9.9599999999999994E-002   -0.19392163450726940     
   9.9900000000000003E-002    0.24327986749267438     
  0.10020000000000001         0.68272579837073266     
  0.10049999999999999          1.1078890916527016     
  0.10080000000000000          1.5030199365265204     
  0.10110000000000001          1.8538656830654645     
  0.10140000000000000          2.1480763607071651     
  0.10170000000000000          2.3756769284085237     
  0.10200000000000001          2.5291136869126234     
  0.10230000000000002          2.6032312916533442     
  0.10260000000000000          2.5956863159494930     
  0.10290000000000001          2.5068539009680393     
  0.10320000000000000          2.3392647413711103     
  0.10350000000000001          2.0976386560877742     
  0.10380000000000000          1.7889384943777955     
  0.10410000000000001          1.4218394371478702     
  0.10440000000000001          1.0063630196623965     
  0.10470000000000000         0.55371075702232986     
  0.10500000000000000          7.6143663165282760E-002
  0.10530000000000000        -0.41336637717489921     
  0.10560000000000000        -0.90159226887095656     
  0.10590000000000001         -1.3752183620928875     
  0.10620000000000000         -1.8207993907172551     
  0.10650000000000001         -2.2252233856145267     
  0.10679999999999999         -2.5760402476644089     
  0.10710000000000000         -2.8617841136959328     
  0.10740000000000001         -3.0720264831382877     
  0.10770000000000000         -3.1976052423450767     
  0.10800000000000000         -3.2313930751744806     
  0.10830000000000001         -3.1685135706699867     
  0.10859999999999999         -3.0063463223511917     
  0.10890000000000000         -2.7451844713875317     
  0.10920000000000001         -2.3885532067230670     
  0.10950000000000001         -1.9434730682281582     
  0.10979999999999999         -1.4205428886897860     
  0.11009999999999999        -0.83396360547066095     
  0.11040000000000001        -0.20168444881258729     
  0.11070000000000001         0.45520025271859588     
  0.11100000000000000          1.1129866084328626     
  0.11130000000000000          1.7459609465070400     
  0.11160000000000002          2.3275493659843107     
  0.11190000000000001          2.8316893525652347     
  0.11220000000000001          3.2341836233284056     
  0.11250000000000000          3.5141015704753187     
  0.11280000000000000          3.6551137022304800     
  0.11309999999999999          3.6468122558462568     
  0.11340000000000001          3.4858682369244463     
  0.11369999999999998          3.1764068481493126     
  0.11400000000000000          2.7300638210836325     
  0.11430000000000000          2.1658091899298100     
  0.11460000000000002          1.5089866892366075     
  0.11489999999999999         0.79005851084159140     
  0.11520000000000001          4.2967786537020380E-002
  0.11550000000000001        -0.69690515246790596     
  0.11580000000000000         -1.3943195683415723     
  0.11609999999999999         -2.0163857183609082     
  0.11640000000000002         -2.5344630112581399     
  0.11670000000000001         -2.9252573775765711     
  0.11700000000000001         -3.1720921934587238     
  0.11730000000000000         -3.2657836791096457     
  0.11760000000000000         -3.2047789769236914     
  0.11789999999999999         -2.9950920462521111     
  0.11820000000000001         -2.6498272365771669     
  0.11850000000000001         -2.1882880640795577     
  0.11880000000000000         -1.6350155963019404     
  0.11910000000000000         -1.0183938525393375     
  0.11940000000000002        -0.36921505409791422     
  0.11970000000000001         0.28077006215447931     
  0.12000000000000001         0.90066911298404762     
  0.12030000000000000          1.4619300708213672     
  0.12060000000000000          1.9396015118558338     
  0.12089999999999999          2.3137600246777055     
  0.12119999999999999          2.5705109391058727     
  0.12150000000000001          2.7025027565757114     
  0.12180000000000001          2.7091883169393327     
  0.12210000000000000          2.5965278447839353     
  0.12239999999999999          2.3766785038756524     
  0.12270000000000002          2.0667528098841572     
  0.12300000000000001          1.6872376889088656     
  0.12330000000000001          1.2610057713918739     
  0.12360000000000000         0.81151440481024451     
  0.12390000000000000         0.36093565967952479     
  0.12419999999999999         -7.0669206193672673E-002
  0.12450000000000001        -0.46649119503444680     
  0.12480000000000001        -0.81380082205633997     
  0.12509999999999999         -1.1041634450808857     
  0.12540000000000001         -1.3332967187458209     
  0.12570000000000003         -1.5003631957015244     
  0.12600000000000000         -1.6077930070092350     
  0.12630000000000002         -1.6603990774583295     
  0.12659999999999999         -1.6643541409150586     
  0.12690000000000001         -1.6268860239276677     
  0.12719999999999998         -1.5553290113536136     
  0.12750000000000000         -1.4565662594597839     
  0.12780000000000002         -1.3370869960214335     
  0.12809999999999999         -1.2026184542275402     
  0.12840000000000001         -1.0576010551883925     
  0.12869999999999998        -0.90532057706593960     
  0.12900000000000000        -0.74803217164953395     
  0.12930000000000003        -0.58675800171808490     
  0.12959999999999999        -0.42129541453537378     
  0.12990000000000002        -0.25048368334514826     
  0.13019999999999998         -7.2618207717952465E-002
  0.13050000000000000         0.11427503424171848     
  0.13080000000000003         0.31205780068657241     
  0.13109999999999999         0.52136033585151331     
  0.13140000000000002         0.74106947206012208     
  0.13169999999999998         0.96808593611908123     
  0.13200000000000001          1.1963915670154108     
  0.13229999999999997          1.4171076727645513     
  0.13260000000000000          1.6187234326562816     
  0.13290000000000002          1.7874765231053829     
  0.13319999999999999          1.9084339486383826     
  0.13350000000000001          1.9665948538976252     
  0.13380000000000003          1.9484549686388135     
  0.13410000000000000          1.8437291094094448     
  0.13440000000000002          1.6461566697602024     
  0.13469999999999999          1.3550587584594886     
  0.13500000000000001         0.97652436812607490     
  0.13529999999999998         0.52319466118070679     
  0.13560000000000000          1.3820507732891230E-002
  0.13590000000000002        -0.52750187087981537     
  0.13619999999999999         -1.0724237610753953     
  0.13650000000000001         -1.5901926587722102     
  0.13680000000000003         -2.0503548595171992     
  0.13710000000000000         -2.4247360907593531     
  0.13740000000000002         -2.6891612798618780     
  0.13769999999999999         -2.8256273034863568     
  0.13800000000000001         -2.8238579155800778     
  0.13829999999999998         -2.6821525653858771     
  0.13860000000000000         -2.4072739943527992     
  0.13890000000000002         -2.0139657913586220     
  0.13919999999999999         -1.5242194921962771     
  0.13950000000000001        -0.96571941501589720     
  0.13979999999999998        -0.36948806525695588     
  0.14010000000000000         0.23230887615509843     
  0.14040000000000002         0.80845911800253489     
  0.14069999999999999          1.3305850866106965     
  0.14100000000000001          1.7747647416085712     
  0.14130000000000004          2.1230657466773550     
  0.14160000000000000          2.3640916100442126     
  0.14189999999999997          2.4927428566700343     
  0.14219999999999999          2.5100144162747284     
  0.14250000000000002          2.4223395261613803     
  0.14279999999999998          2.2405377927911090     
  0.14310000000000000          1.9786483222582589     
  0.14339999999999997          1.6526757159892504     
  0.14369999999999999          1.2799157989955123     
  0.14400000000000002         0.87827283477221929     
  0.14429999999999998         0.46571800441178191     
  0.14460000000000001          5.9930384058317188E-002
  0.14490000000000003        -0.32195912105595514     
  0.14520000000000000        -0.66361007514406722     
  0.14550000000000002        -0.94966355702863936     
  0.14579999999999999         -1.1664696979018032     
  0.14610000000000001         -1.3027755320146568     
  0.14640000000000003         -1.3506472629144852     
  0.14670000000000000         -1.3064145096784685     
  0.14699999999999996         -1.1712565623393303     
  0.14729999999999999        -0.95224691875541723     
  0.14760000000000001        -0.66281794530741633     
  0.14789999999999998        -0.32192544014642976     
  0.14820000000000000          4.6823217715854515E-002