  -1.4999999999999999E-002     0.0000000000000000     
  -1.4700000000000000E-002     0.0000000000000000     
  -1.4400000000000000E-002     0.0000000000000000     
  -1.4100000000000000E-002     0.0000000000000000     
  -1.3800000000000000E-002     6.5106246947104961E-035
  -1.3500000000000000E-002    -2.1095236479496517E-032
  -1.3200000000000000E-002    -8.7335528869484093E-030
  -1.2899999999999998E-002    -1.2511885133881207E-029
  -1.2600000000000000E-002     3.0722031953506809E-027
  -1.2299999999999998E-002     1.1950561705269994E-026
  -1.2000000000000000E-002    -2.1145199627700286E-025
  -1.1699999999999999E-002    -1.7473176359489048E-024
  -1.1399999999999999E-002     2.0493525578201734E-023
  -1.1099999999999999E-002    -9.7528640760901385E-023
  -1.0799999999999999E-002     1.2774118039375022E-022
  -1.0499999999999999E-002     6.7895364341328976E-021
  -1.0199999999999999E-002    -7.1371986684430879E-020
  -9.8999999999999991E-003     2.8311507575303859E-019
  -9.5999999999999992E-003    -2.3144446330808944E-019
  -9.2999999999999992E-003    -2.5304464098344431E-018
  -8.9999999999999993E-003     1.4700538041006650E-017
  -8.6999999999999994E-003    -5.0902587240312538E-017
  -8.3999999999999995E-003     1.2776630418005085E-016
  -8.0999999999999996E-003    -2.0935398673235296E-016
  -7.7999999999999988E-003     1.5411769769247915E-016
  -7.4999999999999997E-003     1.8724943112900051E-016
  -7.1999999999999998E-003    -9.8194856685120211E-016
  -6.8999999999999981E-003     2.2624849296972544E-015
  -6.5999999999999982E-003    -1.4484491038153110E-015
  -6.3000000000000000E-003    -6.7010970272621088E-015
  -6.0000000000000001E-003     1.1560056636440198E-014
  -5.6999999999999985E-003     3.9358839402708554E-014
  -5.3999999999999986E-003    -2.0979096552412729E-013
  -5.1000000000000004E-003     4.2927114770816011E-013
  -4.7999999999999987E-003    -2.5340485460857709E-013
  -4.5000000000000005E-003    -1.1598762315184752E-012
  -4.1999999999999989E-003     4.1017293728184967E-012
  -3.8999999999999990E-003    -6.3585096389540130E-012
  -3.5999999999999990E-003     2.6769619507205356E-012
  -3.2999999999999991E-003     1.0965697967713073E-011
  -2.9999999999999992E-003    -2.8959870959632816E-011
  -2.6999999999999993E-003     3.2190784760022240E-011
  -2.3999999999999994E-003    -4.1408846837565072E-013
  -2.0999999999999977E-003    -6.1492540226470993E-011
  -1.7999999999999995E-003     1.0707165709611388E-010
  -1.4999999999999979E-003    -6.8282574039457700E-011
  -1.1999999999999997E-003    -7.9472879666031560E-011
  -8.9999999999999976E-004     2.4844964974235495E-010
  -5.9999999999999810E-004    -2.6723748214330101E-010
  -2.9999999999999992E-004     4.9573754823395433E-011
   0.0000000000000000          2.3984303432200704E-010
   3.0000000000000165E-004    -2.7575453032113728E-010
   5.9999999999999984E-004     1.0842121471454913E-012
   9.0000000000000149E-004     9.7310326463428964E-011
   1.2000000000000031E-003     4.9337678387217920E-010
   1.5000000000000013E-003    -1.9821666530361881E-009
   1.8000000000000030E-003     5.7279732068593603E-009
   2.1000000000000012E-003    -1.1532128141311659E-008
   2.3999999999999994E-003    -1.7038028765625768E-009
   2.7000000000000010E-003     8.0216807418764802E-008
   2.9999999999999992E-003    -1.6539289049433137E-007
   3.3000000000000008E-003    -9.3477410700870678E-008
   3.6000000000000025E-003     8.0512995737080928E-007
   3.9000000000000007E-003    -4.2017950363515411E-007
   4.2000000000000023E-003    -2.5772903882170795E-006
   4.5000000000000005E-003     1.7406340475645266E-006
   4.7999999999999987E-003     7.7346594480331987E-006
   5.1000000000000004E-003    -2.7551459425012581E-006
   5.4000000000000020E-003    -2.2820027879788540E-005
   5.7000000000000037E-003    -6.6913526097778231E-007
   5.9999999999999984E-003     8.6954132711980492E-005
   6.3000000000000000E-003     1.7330991977360100E-004
   6.6000000000000017E-003     2.0842520461883396E-004
   6.9000000000000034E-003     2.6729717501439154E-004
   7.2000000000000015E-003     4.5584185863845050E-004
   7.5000000000000032E-003     7.7889626845717430E-004
   7.8000000000000014E-003     1.1961534619331360E-003
   8.0999999999999996E-003     1.7717760056257248E-003
   8.4000000000000012E-003     2.6665451005101204E-003
   8.7000000000000029E-003     4.0173707529902458E-003
   9.0000000000000011E-003     5.9414943680167198E-003
   9.2999999999999992E-003     8.6364131420850754E-003
   9.6000000000000009E-003     1.2404555454850197E-002
   9.8999999999999991E-003     1.7582368105649948E-002
   1.0200000000000001E-002     2.4507159367203712E-002
   1.0500000000000002E-002     3.3617738634347916E-002
   1.0800000000000004E-002     4.5481722801923752E-002
   1.1099999999999999E-002     6.0608457773923874E-002
   1.1400000000000000E-002     7.9370401799678802E-002
   1.1700000000000002E-002    0.10214485228061676     
   1.2000000000000004E-002    0.12926203012466431     
   1.2300000000000002E-002    0.16067567467689514     
   1.2600000000000000E-002    0.19579999148845673     
   1.2900000000000002E-002    0.23361553251743317     
   1.3200000000000000E-002    0.27262800931930542     
   1.3500000000000002E-002    0.31051102280616760     
   1.3800000000000003E-002    0.34394952654838562     
   1.4100000000000001E-002    0.36884495615959167     
   1.4400000000000000E-002    0.38050985336303711     
   1.4700000000000001E-002    0.37363335490226746     
   1.4999999999999999E-002    0.34256342053413391     
   1.5300000000000001E-002    0.28194177150726318     
   1.5600000000000003E-002    0.18718169629573822     
   1.5899999999999997E-002     5.4943710565567017E-002
   1.6199999999999999E-002   -0.11625528335571289     
   1.6500000000000001E-002   -0.32516264915466309     
   1.6800000000000002E-002   -0.56716960668563843     
   1.7100000000000004E-002   -0.83433902263641357     
   1.7400000000000006E-002    -1.1154093742370605     
   1.7700000000000000E-002    -1.3956528902053833     
   1.8000000000000002E-002    -1.6575776338577271     
   1.8300000000000004E-002    -1.8821589946746826     
   1.8600000000000005E-002    -2.0499930381774902     
   1.8900000000000000E-002    -2.1428244113922119     
   1.9200000000000002E-002    -2.1451632976531982     
   1.9500000000000003E-002    -2.0459184646606445     
   1.9799999999999998E-002    -1.8401232957839966     
   2.0100000000000000E-002    -1.5292308330535889     
   2.0400000000000001E-002    -1.1221067905426025     
   2.0700000000000003E-002   -0.63523101806640625     
   2.0999999999999998E-002    -9.1424129903316498E-002
   2.1299999999999999E-002    0.48083189129829407     
   2.1600000000000001E-002     1.0496853590011597     
   2.1900000000000003E-002     1.5816690921783447     
   2.2200000000000004E-002     2.0437130928039551     
   2.2500000000000006E-002     2.4062411785125732     
   2.2800000000000001E-002     2.6447341442108154     
   2.3100000000000002E-002     2.7412619590759277     
   2.3400000000000004E-002     2.6863274574279785     
   2.3699999999999999E-002     2.4796247482299805     
   2.4000000000000000E-002     2.1301565170288086     
   2.4300000000000002E-002     1.6559063196182251     
   2.4599999999999997E-002     1.0832504034042358     
   2.4900000000000005E-002    0.44578805565834045     
   2.5200000000000000E-002   -0.21714621782302856     
   2.5499999999999995E-002   -0.86296993494033813     
   2.5800000000000003E-002    -1.4473485946655273     
   2.6099999999999998E-002    -1.9263467788696289     
   2.6400000000000007E-002    -2.2603144645690918     
   2.6700000000000002E-002    -2.4149475097656250     
   2.6999999999999996E-002    -2.3640336990356445     
   2.7300000000000005E-002    -2.0921895503997803     
   2.7600000000000000E-002    -1.5953670740127563     
   2.7900000000000008E-002   -0.88263934850692749     
   2.8200000000000003E-002     2.3448005318641663E-002
   2.8499999999999998E-002     1.0879377126693726     
   2.8800000000000006E-002     2.2645542621612549     
   2.9100000000000001E-002     3.4977719783782959     
   2.9400000000000003E-002     4.7260980606079102     
   2.9700000000000004E-002     5.8851556777954102     
   3.0000000000000006E-002     6.9108428955078125     
   3.0300000000000001E-002     7.7432823181152344     
   3.0600000000000002E-002     8.3299074172973633     
   3.0900000000000004E-002     8.6282615661621094     
   3.1199999999999999E-002     8.6081657409667969     
   3.1500000000000007E-002     8.2526159286499023     
   3.1800000000000002E-002     7.5595421791076660     
   3.2099999999999997E-002     6.5411801338195801     
   3.2400000000000005E-002     5.2229866981506348     
   3.2700000000000000E-002     3.6430542469024658     
   3.3000000000000002E-002     1.8496801853179932     
   3.3300000000000003E-002   -0.10011149942874908     
   3.3599999999999998E-002    -2.1436932086944580     
   3.3900000000000000E-002    -4.2161049842834473     
   3.4200000000000001E-002    -6.2513275146484375     
   3.4500000000000003E-002    -8.1865873336791992     
   3.4799999999999998E-002    -9.9645032882690430     
   3.5099999999999999E-002    -11.534399032592773     
   3.5400000000000001E-002    -12.855602264404297     
   3.5699999999999996E-002    -13.896201133728027     
   3.6000000000000004E-002    -14.633944511413574     
   3.6299999999999999E-002    -15.056984901428223     
   3.6600000000000008E-002    -15.160161018371582     
   3.6900000000000002E-002    -14.944150924682617     
   3.7199999999999997E-002    -14.414058685302734     
   3.7500000000000006E-002    -13.577759742736816     
   3.7800000000000000E-002    -12.445672988891602     
   3.8100000000000009E-002    -11.028759956359863     
   3.8400000000000004E-002    -9.3405809402465820     
   3.8699999999999998E-002    -7.3999218940734863     
   3.9000000000000007E-002    -5.2313294410705566     
   3.9300000000000002E-002    -2.8683321475982666     
   3.9600000000000003E-002   -0.35623908042907715     
   3.9900000000000005E-002     2.2475545406341553     
   4.0200000000000000E-002     4.8726243972778320     
   4.0500000000000001E-002     7.4365448951721191     
   4.0800000000000003E-002     9.8481359481811523     
   4.1100000000000005E-002     12.013185501098633     
   4.1399999999999999E-002     13.839040756225586     
   4.1700000000000008E-002     15.239970207214355     
   4.2000000000000003E-002     16.147239685058594     
   4.2299999999999997E-002     16.514272689819336     
   4.2600000000000006E-002     16.316982269287109     
   4.2900000000000001E-002     15.563012123107910     
   4.3200000000000002E-002     14.291217803955078     
   4.3500000000000004E-002     12.566271781921387     
   4.3799999999999999E-002     10.479797363281250     
   4.4100000000000000E-002     8.1441488265991211     
   4.4400000000000002E-002     5.6827244758605957     
   4.4700000000000004E-002     3.2246279716491699     
   4.4999999999999998E-002    0.89483213424682617     
   4.5300000000000000E-002    -1.1929900646209717     
   4.5600000000000002E-002    -2.9434473514556885     
   4.5899999999999996E-002    -4.2874412536621094     
   4.6200000000000005E-002    -5.1823105812072754     
   4.6500000000000000E-002    -5.6152272224426270     
   4.6799999999999994E-002    -5.6047611236572266     
   4.7100000000000003E-002    -5.1947903633117676     
   4.7399999999999998E-002    -4.4513945579528809     
   4.7700000000000006E-002    -3.4587378501892090     
   4.8000000000000001E-002    -2.3088965415954590     
   4.8300000000000010E-002    -1.0966943502426147     
   4.8600000000000004E-002     8.6312577128410339E-002
   4.8899999999999999E-002     1.1607582569122314     
   4.9200000000000008E-002     2.0619308948516846     
   4.9500000000000002E-002     2.7446088790893555     
   4.9800000000000011E-002     3.1848280429840088     
   5.0100000000000006E-002     3.3761510848999023     
   5.0400000000000000E-002     3.3336989879608154     
   5.0700000000000009E-002     3.0876352787017822     
   5.1000000000000004E-002     2.6773855686187744     
   5.1299999999999998E-002     2.1528823375701904     
   5.1600000000000007E-002     1.5647609233856201     
   5.1900000000000002E-002    0.96083009243011475     
   5.2200000000000010E-002    0.38538870215415955     
   5.2500000000000005E-002   -0.12843990325927734     
   5.2800000000000000E-002   -0.55892586708068848     
   5.3099999999999994E-002   -0.89580219984054565     
   5.3400000000000003E-002    -1.1425429582595825     
   5.3699999999999998E-002    -1.3143444061279297     
   5.4000000000000006E-002    -1.4363369941711426     
   5.4300000000000001E-002    -1.5400494337081909     
   5.4599999999999996E-002    -1.6600970029830933     
   5.4900000000000004E-002    -1.8303858041763306     
   5.5199999999999999E-002    -2.0797827243804932     
   5.5499999999999994E-002    -2.4270389080047607     
   5.5800000000000002E-002    -2.8812294006347656     
   5.6099999999999997E-002    -3.4400403499603271     
   5.6400000000000006E-002    -4.0875349044799805     
   5.6700000000000000E-002    -4.8013911247253418     
   5.6999999999999995E-002    -5.5541157722473145     
   5.7300000000000004E-002    -6.3174777030944824     
   5.7599999999999998E-002    -7.0716271400451660     
   5.7900000000000007E-002    -7.8042616844177246     
   5.8200000000000002E-002    -8.5152664184570312     
   5.8499999999999996E-002    -9.2180442810058594     
   5.8800000000000005E-002    -9.9319095611572266     
   5.9100000000000000E-002    -10.679262161254883     
   5.9400000000000008E-002    -11.474181175231934     
   5.9700000000000003E-002    -12.313553810119629     
   6.0000000000000012E-002    -13.168563842773438     
   6.0300000000000006E-002    -13.973939895629883     
   6.0600000000000001E-002    -14.627857208251953     
   6.0900000000000010E-002    -14.993183135986328     
   6.1200000000000004E-002    -14.904487609863281     
   6.1500000000000013E-002    -14.183598518371582     
   6.1800000000000008E-002    -12.658524513244629     
   6.2100000000000002E-002    -10.184542655944824     
   6.2399999999999997E-002    -6.6686792373657227     
   6.2700000000000006E-002    -2.0908184051513672     
   6.3000000000000000E-002     3.4824819564819336     
   6.3300000000000009E-002     9.8862380981445312     
   6.3600000000000004E-002     16.859973907470703     
   6.3899999999999998E-002     24.059228897094727     
   6.4199999999999993E-002     31.072559356689453     
   6.4500000000000002E-002     37.450439453125000     
   6.4800000000000010E-002     42.743293762207031     
   6.5100000000000005E-002     46.534488677978516     
   6.5400000000000000E-002     48.475830078125000     
   6.5700000000000008E-002     48.323528289794922     
   6.5999999999999989E-002     45.960338592529297     
   6.6299999999999998E-002     41.409603118896484     
   6.6600000000000006E-002     34.839714050292969     
   6.6900000000000001E-002     26.556171417236328     
   6.7199999999999996E-002     16.981029510498047     
   6.7500000000000004E-002     6.6204371452331543     
   6.7800000000000013E-002    -3.9650356769561768     
   6.8099999999999994E-002    -14.205161094665527     
   6.8400000000000002E-002    -23.564645767211914     
   6.8700000000000011E-002    -31.570856094360352     
   6.8999999999999992E-002    -37.849773406982422     
   6.9300000000000000E-002    -42.151638031005859     
   6.9600000000000009E-002    -44.357612609863281     
   6.9900000000000004E-002    -44.482151031494141     
   7.0199999999999999E-002    -42.663002014160156     
   7.0500000000000007E-002    -39.144901275634766     
   7.0800000000000016E-002    -34.254051208496094     
   7.1099999999999997E-002    -28.366359710693359     
   7.1400000000000005E-002    -21.878417968750000     
   7.1700000000000000E-002    -15.182285308837891     
   7.1999999999999995E-002    -8.6353359222412109     
   7.2300000000000003E-002    -2.5414173603057861     
   7.2600000000000012E-002     2.8555021286010742     
   7.2900000000000006E-002     7.3875551223754883     
   7.3200000000000001E-002     10.957031250000000     
   7.3499999999999996E-002     13.530859947204590     
   7.3800000000000004E-002     15.137222290039062     
   7.4099999999999999E-002     15.847985267639160     
   7.4400000000000008E-002     15.772154808044434     
   7.4700000000000003E-002     15.042264938354492     
   7.5000000000000011E-002     13.798225402832031     
   7.5299999999999992E-002     12.189323425292969     
   7.5600000000000001E-002     10.355686187744141     
   7.5900000000000009E-002     8.4247407913208008     
   7.6200000000000004E-002     6.5129771232604980     
   7.6499999999999999E-002     4.7131395339965820     
   7.6800000000000007E-002     3.0983972549438477     
   7.7099999999999988E-002     1.7207652330398560     
   7.7399999999999997E-002    0.60956650972366333     
   7.7700000000000005E-002   -0.22641193866729736     
   7.8000000000000014E-002   -0.79849523305892944     
   7.8299999999999995E-002    -1.1312288045883179     
   7.8600000000000003E-002    -1.2603310346603394     
   7.8900000000000012E-002    -1.2301257848739624     
   7.9199999999999993E-002    -1.0873103141784668     
   7.9500000000000001E-002   -0.87522578239440918     
   7.9800000000000010E-002   -0.63175803422927856     
   8.0100000000000018E-002   -0.39049488306045532     
   8.0399999999999999E-002   -0.17341317236423492     
   8.0700000000000008E-002     5.1907785236835480E-003
   8.1000000000000003E-002    0.13791514933109283     
   8.1299999999999997E-002    0.22488237917423248     
   8.1600000000000006E-002    0.26741787791252136     
   8.1900000000000014E-002    0.27212586998939514     
   8.2199999999999995E-002    0.24472258985042572     
   8.2500000000000004E-002    0.18863642215728760     
   8.2799999999999999E-002    0.11214587092399597     
   8.3100000000000007E-002     1.8965765833854675E-002
   8.3400000000000002E-002    -8.7456382811069489E-002
   8.3700000000000011E-002   -0.19888702034950256     
   8.4000000000000005E-002   -0.30911681056022644     
   8.4300000000000000E-002   -0.41084393858909607     
   8.4599999999999995E-002   -0.49659463763237000     
   8.4900000000000003E-002   -0.55857449769973755     
   8.5199999999999998E-002   -0.59113055467605591     
   8.5500000000000007E-002   -0.59321701526641846     
   8.5800000000000001E-002   -0.56423014402389526     
   8.6100000000000010E-002   -0.50880527496337891     
   8.6399999999999991E-002   -0.43490007519721985     
   8.6699999999999999E-002   -0.35160616040229797     
   8.7000000000000008E-002   -0.26862353086471558     
   8.7300000000000003E-002   -0.19538761675357819     
   8.7599999999999997E-002   -0.14061163365840912     
   8.7900000000000006E-002   -0.10649503767490387     
   8.8200000000000014E-002    -9.3349322676658630E-002
   8.8499999999999995E-002   -0.10076247900724411     
   8.8800000000000004E-002   -0.12123872339725494     
   8.9100000000000013E-002   -0.14835496246814728     
   8.9399999999999993E-002   -0.17571754753589630     
   8.9700000000000002E-002   -0.19647692143917084     
   9.0000000000000011E-002   -0.20887205004692078     
   9.0299999999999991E-002   -0.21063648164272308     
   9.0600000000000000E-002   -0.20234121382236481     
   9.0900000000000009E-002   -0.18817158043384552     
   9.1200000000000017E-002   -0.17100799083709717     
   9.1499999999999998E-002   -0.15433803200721741     
   9.1800000000000007E-002   -0.14146132767200470     
   9.2100000000000001E-002   -0.13260966539382935     
   9.2399999999999996E-002   -0.12802076339721680     
   9.2700000000000005E-002   -0.12545211613178253     
   9.3000000000000013E-002   -0.12112320959568024     
   9.3300000000000008E-002   -0.11408049613237381     
   9.3600000000000003E-002   -0.10096883773803711     
   9.3899999999999997E-002    -7.9640030860900879E-002
   9.4200000000000006E-002    -5.4268855601549149E-002
   9.4500000000000001E-002    -2.4643916636705399E-002
   9.4800000000000009E-002     6.8999608047306538E-003
   9.5100000000000004E-002     3.3445212990045547E-002
   9.5399999999999999E-002     5.4485063999891281E-002
   9.5699999999999993E-002     6.6456235945224762E-002
   9.6000000000000002E-002     6.8456038832664490E-002
   9.6300000000000011E-002     6.2669128179550171E-002
   9.6600000000000005E-002     4.9331415444612503E-002
   9.6900000000000000E-002     3.4505199640989304E-002
   9.7200000000000009E-002     2.1955708041787148E-002
   9.7499999999999989E-002     1.2453190982341766E-002
   9.7799999999999998E-002     1.3099121861159801E-002
   9.8100000000000007E-002     2.4192251265048981E-002
   9.8400000000000015E-002     4.1982788592576981E-002
   9.8699999999999996E-002     6.8129584193229675E-002
   9.9000000000000005E-002     9.7848683595657349E-002
   9.9300000000000013E-002    0.12460847198963165     
   9.9599999999999994E-002    0.14501059055328369     
   9.9900000000000003E-002    0.15385420620441437     
  0.10020000000000001         0.14960710704326630     
  0.10049999999999999         0.13033568859100342     
  0.10080000000000000          9.4620078802108765E-002
  0.10110000000000001          5.0856262445449829E-002
  0.10140000000000000          1.4345613308250904E-003
  0.10170000000000000         -4.9823775887489319E-002
  0.10200000000000001         -9.0323805809020996E-002
  0.10230000000000002        -0.11676956713199615     
  0.10260000000000000        -0.12598747014999390     
  0.10290000000000001        -0.11131384223699570     
  0.10320000000000000         -7.5169183313846588E-002
  0.10350000000000001         -2.0357705652713776E-002
  0.10380000000000000          4.7357402741909027E-002
  0.10410000000000001         0.11829757690429688     
  0.10440000000000001         0.18586911261081696     
  0.10470000000000000         0.23753753304481506     
  0.10500000000000000         0.26461726427078247     
  0.10530000000000000         0.26557546854019165     
  0.10560000000000000         0.23393833637237549     
  0.10590000000000001         0.17244829237461090     
  0.10620000000000000          9.1499701142311096E-002
  0.10650000000000001         -3.3957851119339466E-003
  0.10679999999999999         -9.7675874829292297E-002
  0.10710000000000000        -0.17522266507148743     
  0.10740000000000001        -0.22770647704601288     
  0.10770000000000000        -0.24252532422542572     
  0.10800000000000000        -0.21618519723415375     
  0.10830000000000001        -0.15218326449394226     
  0.10859999999999999         -5.4818950593471527E-002
  0.10890000000000000          5.7929754257202148E-002
  0.10920000000000001         0.16841387748718262     
  0.10950000000000001         0.25926715135574341     
  0.10979999999999999         0.30566227436065674     
  0.11009999999999999         0.29601114988327026     
  0.11040000000000001         0.22172081470489502     
  0.11070000000000001          7.9055212438106537E-002
  0.11100000000000000        -0.11578942835330963     
  0.11130000000000000        -0.34545701742172241     
  0.11160000000000002        -0.58327317237854004     
  0.11190000000000001        -0.79196351766586304     
  0.11220000000000001        -0.94231325387954712     
  0.11250000000000000         -1.0031051635742188     
  0.11280000000000000        -0.95105636119842529     
  0.11309999999999999        -0.78081607818603516     
  0.11340000000000001        -0.49362674355506897     
  0.11369999999999998        -0.10882283747196198     
  0.11400000000000000         0.33867287635803223     
  0.11430000000000000         0.81119984388351440     
  0.11460000000000002          1.2585473060607910     
  0.11489999999999999          1.6322370767593384     
  0.11520000000000001          1.8950393199920654     
  0.11550000000000001          2.0106396675109863     
  0.11580000000000000          1.9623079299926758     
  0.11609999999999999          1.7514082193374634     
  0.11640000000000002          1.3864589929580688     
  0.11670000000000001         0.89980489015579224     
  0.11700000000000001         0.33019214868545532     
  0.11730000000000000        -0.27925580739974976     
  0.11760000000000000        -0.87508201599121094     
  0.11789999999999999         -1.4152315855026245     
  0.11820000000000001         -1.8594540357589722     
  0.11850000000000001         -2.1739156246185303     
  0.11880000000000000         -2.3453414440155029     
  0.11910000000000000         -2.3636581897735596     
  0.11940000000000002         -2.2323918342590332     
  0.11970000000000001         -1.9713377952575684     
  0.12000000000000001         -1.6002756357192993     
  0.12030000000000000         -1.1490814685821533     
  0.12060000000000000        -0.65267199277877808     
  0.12089999999999999        -0.14150868356227875     
  0.12119999999999999         0.35009139776229858     
  0.12150000000000001         0.79349011182785034     
  0.12180000000000001          1.1675385236740112     
  0.12210000000000000          1.4509187936782837     
  0.12239999999999999          1.6352176666259766     
  0.12270000000000002          1.7183021306991577     
  0.12300000000000001          1.6987750530242920     
  0.12330000000000001          1.5904268026351929     
  0.12360000000000000          1.4072797298431396     
  0.12390000000000000          1.1640931367874146     
  0.12419999999999999         0.88649052381515503     
  0.12450000000000001         0.59237635135650635     
  0.12480000000000001         0.30087435245513916     
  0.12509999999999999          3.3149529248476028E-002
  0.12540000000000001        -0.20226304233074188     
  0.12570000000000003        -0.39330542087554932     
  0.12600000000000000        -0.53433400392532349     
  0.12630000000000002        -0.62892442941665649     
  0.12659999999999999        -0.67555803060531616     
  0.12690000000000001        -0.68158692121505737     
  0.12719999999999998        -0.65585780143737793     
  0.12750000000000000        -0.60220575332641602     
  0.12780000000000002        -0.53175562620162964     
  0.12809999999999999        -0.45070433616638184     
  0.12840000000000001        -0.36267346143722534     
  0.12869999999999998        -0.27651935815811157     
  0.12900000000000000        -0.19343246519565582     
  0.12930000000000003        -0.11622147262096405     
  0.12959999999999999         -5.0714191049337387E-002
  0.12990000000000002          5.0999373197555542E-003
  0.13019999999999998          4.8994928598403931E-002
  0.13050000000000000          7.7811084687709808E-002
  0.13080000000000003          9.6772029995918274E-002
  0.13109999999999999         0.10354989767074585     
  0.13140000000000002         0.10004022717475891     
  0.13169999999999998          9.2537522315979004E-002
  0.13200000000000001          7.9048886895179749E-002
  0.13229999999999997          6.5767914056777954E-002
  0.13260000000000000          5.5427856743335724E-002
  0.13290000000000002          4.5667443424463272E-002
  0.13319999999999999          4.2600613087415695E-002
  0.13350000000000001          4.2604722082614899E-002
  0.13380000000000003          4.3789967894554138E-002
  0.13410000000000000          4.8679012805223465E-002
  0.13440000000000002          5.0754830241203308E-002
  0.13469999999999999          5.1554802805185318E-002
  0.13500000000000001          4.9963735044002533E-002
  0.13529999999999998          4.2707115411758423E-002
  0.13560000000000000          3.4765750169754028E-002
  0.13590000000000002          2.5338506326079369E-002
  0.13619999999999999          1.3985761441290379E-002
  0.13650000000000001          5.9931008145213127E-003
  0.13680000000000003          6.8842206383123994E-004
  0.13710000000000000         -2.7266480028629303E-003
  0.13740000000000002         -1.7822856316342950E-003
  0.13769999999999999          9.8691263701766729E-004
  0.13800000000000001          4.2784172110259533E-003
  0.13829999999999998          7.7804606407880783E-003
  0.13860000000000000          8.6808642372488976E-003
  0.13890000000000002          8.2680312916636467E-003
  0.13919999999999999          5.9931227006018162E-003
  0.13950000000000001          5.0828407984226942E-004
  0.13979999999999998         -2.4205911904573441E-003
  0.14010000000000000         -4.8144045285880566E-003
  0.14040000000000002         -5.7296641170978546E-003
  0.14069999999999999         -8.4117287769913673E-004
  0.14100000000000001          5.6145368143916130E-003
  0.14130000000000004          1.4628469944000244E-002
  0.14160000000000000          2.5433925911784172E-002
  0.14189999999999997          3.2732151448726654E-002
  0.14219999999999999          3.8083691149950027E-002
  0.14250000000000002          3.7770714610815048E-002
  0.14279999999999998          3.0434783548116684E-002
  0.14310000000000000          1.9567137584090233E-002
  0.14339999999999997          3.3298188354820013E-003
  0.14369999999999999         -1.4813195914030075E-002
  0.14400000000000002         -3.0623950064182281E-002
  0.14429999999999998         -4.4268224388360977E-002
  0.14460000000000001         -5.2545875310897827E-002
  0.14490000000000003         -5.3980223834514618E-002
  0.14520000000000000         -5.0071734935045242E-002
  0.14550000000000002         -4.1022863239049911E-002
  0.14579999999999999         -2.9463052749633789E-002
  0.14610000000000001         -1.8253602087497711E-002
  0.14640000000000003         -7.6309083960950375E-003
  0.14670000000000000         -1.2006963370367885E-003
  0.14699999999999996          8.1614684313535690E-004
  0.14729999999999999          1.1974105145782232E-003
  0.14760000000000001         -1.9488437101244926E-003
  0.14789999999999998         -5.1711550913751125E-003
  0.14820000000000000         -5.4993876256048679E-003