  -1.4999999999999999E-002     0.0000000000000000     
  -1.4700000000000000E-002     0.0000000000000000     
  -1.4400000000000000E-002     0.0000000000000000     
  -1.4100000000000000E-002     0.0000000000000000     
  -1.3800000000000000E-002     0.0000000000000000     
  -1.3500000000000000E-002     0.0000000000000000     
  -1.3200000000000000E-002     0.0000000000000000     
  -1.2899999999999998E-002     0.0000000000000000     
  -1.2600000000000000E-002     0.0000000000000000     
  -1.2299999999999998E-002     0.0000000000000000     
  -1.2000000000000000E-002     0.0000000000000000     
  -1.1699999999999999E-002     0.0000000000000000     
  -1.1399999999999999E-002     0.0000000000000000     
  -1.1099999999999999E-002     0.0000000000000000     
  -1.0799999999999999E-002     0.0000000000000000     
  -1.0499999999999999E-002     0.0000000000000000     
  -1.0199999999999999E-002     0.0000000000000000     
  -9.8999999999999991E-003     0.0000000000000000     
  -9.5999999999999992E-003     0.0000000000000000     
  -9.2999999999999992E-003     0.0000000000000000     
  -8.9999999999999993E-003     0.0000000000000000     
  -8.6999999999999994E-003     0.0000000000000000     
  -8.3999999999999995E-003     0.0000000000000000     
  -8.0999999999999996E-003     0.0000000000000000     
  -7.7999999999999988E-003     0.0000000000000000     
  -7.4999999999999997E-003     0.0000000000000000     
  -7.1999999999999998E-003     0.0000000000000000     
  -6.8999999999999981E-003     0.0000000000000000     
  -6.5999999999999982E-003     0.0000000000000000     
  -6.3000000000000000E-003     0.0000000000000000     
  -6.0000000000000001E-003     0.0000000000000000     
  -5.6999999999999985E-003     0.0000000000000000     
  -5.3999999999999986E-003     0.0000000000000000     
  -5.1000000000000004E-003     0.0000000000000000     
  -4.7999999999999987E-003     0.0000000000000000     
  -4.5000000000000005E-003     0.0000000000000000     
  -4.1999999999999989E-003     0.0000000000000000     
  -3.8999999999999990E-003     0.0000000000000000     
  -3.5999999999999990E-003     0.0000000000000000     
  -3.2999999999999991E-003     0.0000000000000000     
  -2.9999999999999992E-003     0.0000000000000000     
  -2.6999999999999993E-003     0.0000000000000000     
  -2.3999999999999994E-003     0.0000000000000000     
  -2.0999999999999977E-003     0.0000000000000000     
  -1.7999999999999995E-003     0.0000000000000000     
  -1.4999999999999979E-003     0.0000000000000000     
  -1.1999999999999997E-003     0.0000000000000000     
  -8.9999999999999976E-004     0.0000000000000000     
  -5.9999999999999810E-004     0.0000000000000000     
  -2.9999999999999992E-004     0.0000000000000000     
   0.0000000000000000          0.0000000000000000     
   3.0000000000000165E-004     0.0000000000000000     
   5.9999999999999984E-004     0.0000000000000000     
   9.0000000000000149E-004     0.0000000000000000     
   1.2000000000000031E-003     0.0000000000000000     
   1.5000000000000013E-003     0.0000000000000000     
   1.8000000000000030E-003     0.0000000000000000     
   2.1000000000000012E-003     0.0000000000000000     
   2.3999999999999994E-003     0.0000000000000000     
   2.7000000000000010E-003     0.0000000000000000     
   2.9999999999999992E-003     0.0000000000000000     
   3.3000000000000008E-003     0.0000000000000000     
   3.6000000000000025E-003     0.0000000000000000     
   3.9000000000000007E-003     0.0000000000000000     
   4.2000000000000023E-003     0.0000000000000000     
   4.5000000000000005E-003     0.0000000000000000     
   4.7999999999999987E-003     0.0000000000000000     
   5.1000000000000004E-003     0.0000000000000000     
   5.4000000000000020E-003     0.0000000000000000     
   5.7000000000000037E-003     0.0000000000000000     
   5.9999999999999984E-003     0.0000000000000000     
   6.3000000000000000E-003     0.0000000000000000     
   6.6000000000000017E-003     0.0000000000000000     
   6.9000000000000034E-003     0.0000000000000000     
   7.2000000000000015E-003     0.0000000000000000     
   7.5000000000000032E-003     0.0000000000000000     
   7.8000000000000014E-003     0.0000000000000000     
   8.0999999999999996E-003     0.0000000000000000     
   8.4000000000000012E-003     0.0000000000000000     
   8.7000000000000029E-003     0.0000000000000000     
   9.0000000000000011E-003     0.0000000000000000     
   9.2999999999999992E-003     0.0000000000000000     
   9.6000000000000009E-003     0.0000000000000000     
   9.8999999999999991E-003     0.0000000000000000     
   1.0200000000000001E-002     0.0000000000000000     
   1.0500000000000002E-002     0.0000000000000000     
   1.0800000000000004E-002     0.0000000000000000     
   1.1099999999999999E-002     0.0000000000000000     
   1.1400000000000000E-002     0.0000000000000000     
   1.1700000000000002E-002     0.0000000000000000     
   1.2000000000000004E-002    -2.0189831146524488E-036
   1.2300000000000002E-002    -2.2977505165780855E-035
   1.2600000000000000E-002     7.2482359204144618E-034
   1.2900000000000002E-002    -1.9512083993886922E-033
   1.3200000000000000E-002    -4.5365318631354918E-032
   1.3500000000000002E-002     3.7643038973500841E-031
   1.3800000000000003E-002     1.5764959108934381E-031
   1.4100000000000001E-002    -1.5718487773545809E-029
   1.4400000000000000E-002     6.9453439359351511E-029
   1.4700000000000001E-002     1.3831685804317784E-028
   1.4999999999999999E-002    -2.4222338095570657E-027
   1.5300000000000001E-002     7.9602682832089006E-027
   1.5600000000000003E-002     1.2345469018134730E-026
   1.5899999999999997E-002    -1.9814958274368066E-025
   1.6199999999999999E-002     6.9222460616672606E-025
   1.6500000000000001E-002    -2.3746310690485528E-025
   1.6800000000000002E-002    -7.8236897440149549E-024
   1.7100000000000004E-002     3.6243583201655211E-023
   1.7400000000000006E-002    -7.2662754219038135E-023
   1.7700000000000000E-002    -2.1712768482927794E-023
   1.8000000000000002E-002     5.9800897176518259E-022
   1.8300000000000004E-002    -1.9023029591638568E-021
   1.8600000000000005E-002     3.3959160917250795E-021
   1.8900000000000000E-002    -7.0471482649806134E-021
   1.9200000000000002E-002     3.9863988912167016E-020
   1.9500000000000003E-002    -2.1207543472909503E-019
   1.9799999999999998E-002     7.2186340827610506E-019
   2.0100000000000000E-002    -1.1605864083929121E-018
   2.0400000000000001E-002    -3.6303633595972300E-018
   2.0700000000000003E-002     4.1098071688003155E-017
   2.0999999999999998E-002    -2.2603817998287812E-016
   2.1299999999999999E-002     9.8690190964762685E-016
   2.1600000000000001E-002    -3.8092138899539427E-015
   2.1900000000000003E-002     1.3446153370420821E-014
   2.2200000000000004E-002    -4.3188837787122222E-014
   2.2500000000000006E-002     1.2061456434314666E-013
   2.2800000000000001E-002    -2.5590198905224570E-013
   2.3100000000000002E-002     1.8060112595957162E-013
   2.3400000000000004E-002     1.7383163051359896E-012
   2.3699999999999999E-002    -1.1198401581036244E-011
   2.4000000000000000E-002     3.9405145813020681E-011
   2.4300000000000002E-002    -8.3181808663290724E-011
   2.4599999999999997E-002     3.6242266132635592E-011
   2.4900000000000005E-002     4.4162792867119549E-010
   2.5200000000000000E-002    -1.6057377649758564E-009
   2.5499999999999995E-002     1.8351543618067012E-009
   2.5800000000000003E-002     4.1350829427244662E-009
   2.6099999999999998E-002    -1.6512505141008660E-008
   2.6400000000000007E-002     6.7516277013623949E-009
   2.6700000000000002E-002     5.8005369396596507E-008
   2.6999999999999996E-002    -6.8558108523575356E-008
   2.7300000000000005E-002    -1.8273351543030003E-007
   2.7600000000000000E-002     2.1280713724536326E-007
   2.7900000000000008E-002     5.8081599263459793E-007
   2.8200000000000003E-002    -3.8557610082534666E-007
   2.8499999999999998E-002    -1.7252858697247575E-006
   2.8800000000000006E-002     2.1757236368102895E-007
   2.9100000000000001E-002     6.2150002122507431E-006
   2.9400000000000003E-002     1.1504858775879256E-005
   2.9700000000000004E-002     1.3327877240953967E-005
   3.0000000000000006E-002     1.7699179807095788E-005
   3.0300000000000001E-002     3.2985873986035585E-005
   3.0600000000000002E-002     5.9177054936299101E-005
   3.0900000000000004E-002     9.1287591203581542E-005
   3.1199999999999999E-002     1.3369873340707272E-004
   3.1500000000000007E-002     2.0246965868864208E-004
   3.1800000000000002E-002     3.1186648993752897E-004
   3.2099999999999997E-002     4.6848205965943635E-004
   3.2400000000000005E-002     6.8430998362600803E-004
   3.2700000000000000E-002     9.8866748157888651E-004
   3.3000000000000002E-002     1.4198406133800745E-003
   3.3300000000000003E-002     2.0121268462389708E-003
   3.3599999999999998E-002     2.8023105114698410E-003
   3.3900000000000000E-002     3.8454134482890368E-003
   3.4200000000000001E-002     5.2113574929535389E-003
   3.4500000000000003E-002     6.9670109078288078E-003
   3.4799999999999998E-002     9.1713285073637962E-003
   3.5099999999999999E-002     1.1887181550264359E-002
   3.5400000000000001E-002     1.5179806388914585E-002
   3.5699999999999996E-002     1.9092578440904617E-002
   3.6000000000000004E-002     2.3629028350114822E-002
   3.6299999999999999E-002     2.8752066195011139E-002
   3.6600000000000008E-002     3.4386582672595978E-002
   3.6900000000000002E-002     4.0398404002189636E-002
   3.7199999999999997E-002     4.6569265425205231E-002
   3.7500000000000006E-002     5.2601784467697144E-002
   3.7800000000000000E-002     5.8130361139774323E-002
   3.8100000000000009E-002     6.2733002007007599E-002
   3.8400000000000004E-002     6.5931878983974457E-002
   3.8699999999999998E-002     6.7212238907814026E-002
   3.9000000000000007E-002     6.6086463630199432E-002
   3.9300000000000002E-002     6.2122803181409836E-002
   3.9600000000000003E-002     5.4982814937829971E-002
   3.9900000000000005E-002     4.4486787170171738E-002
   4.0200000000000000E-002     3.0627530068159103E-002
   4.0500000000000001E-002     1.3636220246553421E-002
   4.0800000000000003E-002    -5.9944177046418190E-003
   4.1100000000000005E-002    -2.7561537921428680E-002
   4.1399999999999999E-002    -5.0134349614381790E-002
   4.1700000000000008E-002    -7.2597697377204895E-002
   4.2000000000000003E-002    -9.3737602233886719E-002
   4.2299999999999997E-002   -0.11232708394527435     
   4.2600000000000006E-002   -0.12722827494144440     
   4.2900000000000001E-002   -0.13748222589492798     
   4.3200000000000002E-002   -0.14239552617073059     
   4.3500000000000004E-002   -0.14163179695606232     
   4.3799999999999999E-002   -0.13526585698127747     
   4.4100000000000000E-002   -0.12379112839698792     
   4.4400000000000002E-002   -0.10810735821723938     
   4.4700000000000004E-002    -8.9469335973262787E-002
   4.4999999999999998E-002    -6.9388180971145630E-002
   4.5300000000000000E-002    -4.9550406634807587E-002
   4.5600000000000002E-002    -3.1699541956186295E-002
   4.5899999999999996E-002    -1.7418392002582550E-002
   4.6200000000000005E-002    -8.1225875765085220E-003
   4.6500000000000000E-002    -4.8858975060284138E-003
   4.6799999999999994E-002    -8.3316517993807793E-003
   4.7100000000000003E-002    -1.8642965704202652E-002
   4.7399999999999998E-002    -3.5464663058519363E-002
   4.7700000000000006E-002    -5.7949416339397430E-002
   4.8000000000000001E-002    -8.4830999374389648E-002
   4.8300000000000010E-002   -0.11444885283708572     
   4.8600000000000004E-002   -0.14486809074878693     
   4.8899999999999999E-002   -0.17397308349609375     
   4.9200000000000008E-002   -0.19961935281753540     
   4.9500000000000002E-002   -0.21979112923145294     
   4.9800000000000011E-002   -0.23267304897308350     
   5.0100000000000006E-002   -0.23676709830760956     
   5.0400000000000000E-002   -0.23105455935001373     
   5.0700000000000009E-002   -0.21502511203289032     
   5.1000000000000004E-002   -0.18867112696170807     
   5.1299999999999998E-002   -0.15262691676616669     
   5.1600000000000007E-002   -0.10797739773988724     
   5.1900000000000002E-002    -5.6258402764797211E-002
   5.2200000000000010E-002     5.1939394325017929E-004
   5.2500000000000005E-002     6.0235604643821716E-002
   5.2800000000000000E-002    0.12060193717479706     
   5.3099999999999994E-002    0.17932662367820740     
   5.3400000000000003E-002    0.23435993492603302     
   5.3699999999999998E-002    0.28381386399269104     
   5.4000000000000006E-002    0.32620352506637573     
   5.4300000000000001E-002    0.36051419377326965     
   5.4599999999999996E-002    0.38606244325637817     
   5.4900000000000004E-002    0.40263387560844421     
   5.5199999999999999E-002    0.41036528348922729     
   5.5499999999999994E-002    0.40973439812660217     
   5.5800000000000002E-002    0.40149837732315063     
   5.6099999999999997E-002    0.38648256659507751     
   5.6400000000000006E-002    0.36559912562370300     
   5.6700000000000000E-002    0.33985289931297302     
   5.6999999999999995E-002    0.31010070443153381     
   5.7300000000000004E-002    0.27707037329673767     
   5.7599999999999998E-002    0.24142943322658539     
   5.7900000000000007E-002    0.20367082953453064     
   5.8200000000000002E-002    0.16420197486877441     
   5.8499999999999996E-002    0.12336026132106781     
   5.8800000000000005E-002     8.1385843455791473E-002
   5.9100000000000000E-002     3.8670111447572708E-002
   5.9400000000000008E-002    -4.2823553085327148E-003
   5.9700000000000003E-002    -4.6867527067661285E-002
   6.0000000000000012E-002    -8.8172510266304016E-002
   6.0300000000000006E-002   -0.12714910507202148     
   6.0600000000000001E-002   -0.16242660582065582     
   6.0900000000000010E-002   -0.19238740205764771     
   6.1200000000000004E-002   -0.21547824144363403     
   6.1500000000000013E-002   -0.23009037971496582     
   6.1800000000000008E-002   -0.23476058244705200     
   6.2100000000000002E-002   -0.22842137515544891     
   6.2399999999999997E-002   -0.21045766770839691     
   6.2700000000000006E-002   -0.18093687295913696     
   6.3000000000000000E-002   -0.14068642258644104     
   6.3300000000000009E-002    -9.1258093714714050E-002
   6.3600000000000004E-002    -3.4989889711141586E-002
   6.3899999999999998E-002     2.5068365037441254E-002
   6.4199999999999993E-002     8.5421010851860046E-002
   6.4500000000000002E-002    0.14220769703388214     
   6.4800000000000010E-002    0.19161869585514069     
   6.5100000000000005E-002    0.23007030785083771     
   6.5400000000000000E-002    0.25440311431884766     
   6.5700000000000008E-002    0.26231753826141357     
   6.5999999999999989E-002    0.25242483615875244     
   6.6299999999999998E-002    0.22437262535095215     
   6.6600000000000006E-002    0.17903488874435425     
   6.6900000000000001E-002    0.11830998212099075     
   6.7199999999999996E-002     4.5140020549297333E-002
   6.7500000000000004E-002    -3.6593910306692123E-002
   6.7800000000000013E-002   -0.12243462353944778     
   6.8099999999999994E-002   -0.20747831463813782     
   6.8400000000000002E-002   -0.28665018081665039     
   6.8700000000000011E-002   -0.35504946112632751     
   6.8999999999999992E-002   -0.40814501047134399     
   6.9300000000000000E-002   -0.44218260049819946     
   6.9600000000000009E-002   -0.45431569218635559     
   6.9900000000000004E-002   -0.44275826215744019     
   7.0199999999999999E-002   -0.40710771083831787     
   7.0500000000000007E-002   -0.34824374318122864     
   7.0800000000000016E-002   -0.26841855049133301     
   7.1099999999999997E-002   -0.17123025655746460     
   7.1400000000000005E-002    -6.1275027692317963E-002
   7.1700000000000000E-002     5.5945474654436111E-002
   7.1999999999999995E-002    0.17431406676769257     
   7.2300000000000003E-002    0.28760927915573120     
   7.2600000000000012E-002    0.38974991440773010     
   7.2900000000000006E-002    0.47527825832366943     
   7.3200000000000001E-002    0.53963536024093628     
   7.3499999999999996E-002    0.57936364412307739     
   7.3800000000000004E-002    0.59249705076217651     
   7.4099999999999999E-002    0.57854574918746948     
   7.4400000000000008E-002    0.53831917047500610     
   7.4700000000000003E-002    0.47393026947975159     
   7.5000000000000011E-002    0.38854575157165527     
   7.5299999999999992E-002    0.28613474965095520     
   7.5600000000000001E-002    0.17112110555171967     
   7.5900000000000009E-002     4.7934856265783310E-002
   7.6200000000000004E-002    -7.9158790409564972E-002
   7.6499999999999999E-002   -0.20612716674804688     
   7.6800000000000007E-002   -0.32949280738830566     
   7.7099999999999988E-002   -0.44636353850364685     
   7.7399999999999997E-002   -0.55443966388702393     
   7.7700000000000005E-002   -0.65179538726806641     
   7.8000000000000014E-002   -0.73673599958419800     
   7.8299999999999995E-002   -0.80793493986129761     
   7.8600000000000003E-002   -0.86417335271835327     
   7.8900000000000012E-002   -0.90423387289047241     
   7.9199999999999993E-002   -0.92707341909408569     
   7.9500000000000001E-002   -0.93173807859420776     
   7.9800000000000010E-002   -0.91762220859527588     
   8.0100000000000018E-002   -0.88458722829818726     
   8.0399999999999999E-002   -0.83290231227874756     
   8.0700000000000008E-002   -0.76357853412628174     
   8.1000000000000003E-002   -0.67840605974197388     
   8.1299999999999997E-002   -0.57966166734695435     
   8.1600000000000006E-002   -0.47027170658111572     
   8.1900000000000014E-002   -0.35348641872406006     
   8.2199999999999995E-002   -0.23260770738124847     
   8.2500000000000004E-002   -0.11108784377574921     
   8.2799999999999999E-002     8.2134064286947250E-003
   8.3100000000000007E-002    0.12293645739555359     
   8.3400000000000002E-002    0.23104555904865265     
   8.3700000000000011E-002    0.33139410614967346     
   8.4000000000000005E-002    0.42321524024009705     
   8.4300000000000000E-002    0.50605422258377075     
   8.4599999999999995E-002    0.57986056804656982     
   8.4900000000000003E-002    0.64436131715774536     
   8.5199999999999998E-002    0.69913452863693237     
   8.5500000000000007E-002    0.74366205930709839     
   8.5800000000000001E-002    0.77699774503707886     
   8.6100000000000010E-002    0.79818081855773926     
   8.6399999999999991E-002    0.80607181787490845     
   8.6699999999999999E-002    0.79967111349105835     
   8.7000000000000008E-002    0.77874463796615601     
   8.7300000000000003E-002    0.74346363544464111     
   8.7599999999999997E-002    0.69467461109161377     
   8.7900000000000006E-002    0.63430500030517578     
   8.8200000000000014E-002    0.56494832038879395     
   8.8499999999999995E-002    0.48989936709403992     
   8.8800000000000004E-002    0.41280463337898254     
   8.9100000000000013E-002    0.33711904287338257     
   8.9399999999999993E-002    0.26616814732551575     
   8.9700000000000002E-002    0.20250926911830902     
   9.0000000000000011E-002    0.14763738214969635     
   9.0299999999999991E-002    0.10211285948753357     
   9.0600000000000000E-002     6.4989507198333740E-002
   9.0900000000000009E-002     3.4460421651601791E-002
   9.1200000000000017E-002     8.0833081156015396E-003
   9.1499999999999998E-002    -1.7430156469345093E-002
   9.1800000000000007E-002    -4.5183338224887848E-002
   9.2100000000000001E-002    -7.7811501920223236E-002
   9.2399999999999996E-002   -0.11730833351612091     
   9.2700000000000005E-002   -0.16423588991165161     
   9.3000000000000013E-002   -0.21797659993171692     
   9.3300000000000008E-002   -0.27651974558830261     
   9.3600000000000003E-002   -0.33627304434776306     
   9.3899999999999997E-002   -0.39287286996841431     
   9.4200000000000006E-002   -0.44110897183418274     
   9.4500000000000001E-002   -0.47549796104431152     
   9.4800000000000009E-002   -0.49121522903442383     
   9.5100000000000004E-002   -0.48393097519874573     
   9.5399999999999999E-002   -0.45061415433883667     
   9.5699999999999993E-002   -0.39025849103927612     
   9.6000000000000002E-002   -0.30336394906044006     
   9.6300000000000011E-002   -0.19253470003604889     
   9.6600000000000005E-002    -6.2318243086338043E-002
   9.6900000000000000E-002     8.1237487494945526E-002
   9.7200000000000009E-002    0.23046763241291046     
   9.7499999999999989E-002    0.37701803445816040     
   9.7799999999999998E-002    0.51216924190521240     
   9.8100000000000007E-002    0.62705969810485840     
   9.8400000000000015E-002    0.71372723579406738     
   9.8699999999999996E-002    0.76516175270080566     
   9.9000000000000005E-002    0.77590852975845337     
   9.9300000000000013E-002    0.74281346797943115     
   9.9599999999999994E-002    0.66458755731582642     
   9.9900000000000003E-002    0.54229694604873657     
  0.10020000000000001         0.37984901666641235     
  0.10049999999999999         0.18334048986434937     
  0.10080000000000000         -3.8970261812210083E-002
  0.10110000000000001        -0.27696976065635681     
  0.10140000000000000        -0.51932263374328613     
  0.10170000000000000        -0.75371378660202026     
  0.10200000000000001        -0.96790206432342529     
  0.10230000000000002         -1.1504445075988770     
  0.10260000000000000         -1.2911465167999268     
  0.10290000000000001         -1.3818612098693848     
  0.10320000000000000         -1.4169223308563232     
  0.10350000000000001         -1.3936738967895508     
  0.10380000000000000         -1.3125712871551514     
  0.10410000000000001         -1.1768200397491455     
  0.10440000000000001        -0.99259233474731445     
  0.10470000000000000        -0.76837486028671265     
  0.10500000000000000        -0.51412248611450195     
  0.10530000000000000        -0.24096235632896423     
  0.10560000000000000          3.9628699421882629E-002
  0.10590000000000001         0.31681132316589355     
  0.10620000000000000         0.58060073852539062     
  0.10650000000000001         0.82239532470703125     
  0.10679999999999999          1.0354672670364380     
  0.10710000000000000          1.2149204015731812     
  0.10740000000000001          1.3577690124511719     
  0.10770000000000000          1.4625005722045898     
  0.10800000000000000          1.5290317535400391     
  0.10830000000000001          1.5584766864776611     
  0.10859999999999999          1.5522481203079224     
  0.10890000000000000          1.5122298002243042     
  0.10920000000000001          1.4403131008148193     
  0.10950000000000001          1.3380923271179199     
  0.10979999999999999          1.2071553468704224     
  0.11009999999999999          1.0485801696777344     
  0.11040000000000001         0.86352813243865967     
  0.11070000000000001         0.65344518423080444     
  0.11100000000000000         0.41980585455894470     
  0.11130000000000000         0.16503402590751648     
  0.11160000000000002        -0.10754138976335526     
  0.11190000000000001        -0.39363092184066772     
  0.11220000000000001        -0.68757206201553345     
  0.11250000000000000        -0.98253077268600464     
  0.11280000000000000         -1.2705254554748535     
  0.11309999999999999         -1.5425398349761963     
  0.11340000000000001         -1.7890197038650513     
  0.11369999999999998         -2.0001680850982666     
  0.11400000000000000         -2.1661856174468994     
  0.11430000000000000         -2.2779984474182129     
  0.11460000000000002         -2.3276875019073486     
  0.11489999999999999         -2.3088932037353516     
  0.11520000000000001         -2.2173578739166260     
  0.11550000000000001         -2.0509877204895020     
  0.11580000000000000         -1.8105473518371582     
  0.11609999999999999         -1.4998949766159058     
  0.11640000000000002         -1.1256411075592041     
  0.11670000000000001        -0.69762659072875977     
  0.11700000000000001        -0.22861838340759277     
  0.11730000000000000         0.26615607738494873     
  0.11760000000000000         0.76914250850677490     
  0.11789999999999999          1.2613148689270020     
  0.11820000000000001          1.7229428291320801     
  0.11850000000000001          2.1344766616821289     
  0.11880000000000000          2.4773590564727783     
  0.11910000000000000          2.7349417209625244     
  0.11940000000000002          2.8941030502319336     
  0.11970000000000001          2.9454607963562012     
  0.12000000000000001          2.8838853836059570     
  0.12030000000000000          2.7093925476074219     
  0.12060000000000000          2.4272110462188721     
  0.12089999999999999          2.0475447177886963     
  0.12119999999999999          1.5848526954650879     
  0.12150000000000001          1.0576331615447998     
  0.12180000000000001         0.48746189475059509     
  0.12210000000000000        -0.10259688645601273     
  0.12239999999999999        -0.68843638896942139     
  0.12270000000000002         -1.2461683750152588     
  0.12300000000000001         -1.7534912824630737     
  0.12330000000000001         -2.1903140544891357     
  0.12360000000000000         -2.5396876335144043     
  0.12390000000000000         -2.7883653640747070     
  0.12419999999999999         -2.9269602298736572     
  0.12450000000000001         -2.9505329132080078     
  0.12480000000000001         -2.8587307929992676     
  0.12509999999999999         -2.6549718379974365     
  0.12540000000000001         -2.3468871116638184     
  0.12570000000000003         -1.9461407661437988     
  0.12600000000000000         -1.4671521186828613     
  0.12630000000000002        -0.92744284868240356     
  0.12659999999999999        -0.34683871269226074     
  0.12690000000000001         0.25368905067443848     
  0.12719999999999998         0.85165977478027344     
  0.12750000000000000          1.4247997999191284     
  0.12780000000000002          1.9512554407119751     
  0.12809999999999999          2.4102931022644043     
  0.12840000000000001          2.7839908599853516     
  0.12869999999999998          3.0566887855529785     
  0.12900000000000000          3.2165405750274658     
  0.12930000000000003          3.2562801837921143     
  0.12959999999999999          3.1726994514465332     
  0.12990000000000002          2.9678671360015869     
  0.13019999999999998          2.6487610340118408     
  0.13050000000000000          2.2268159389495850     
  0.13080000000000003          1.7181155681610107     
  0.13109999999999999          1.1422154903411865     
  0.13140000000000002         0.52156972885131836     
  0.13169999999999998        -0.11939961463212967     
  0.13200000000000001        -0.75544321537017822     
  0.13229999999999997         -1.3612576723098755     
  0.13260000000000000         -1.9126029014587402     
  0.13290000000000002         -2.3877871036529541     
  0.13319999999999999         -2.7680358886718750     
  0.13350000000000001         -3.0379798412322998     
  0.13380000000000003         -3.1874132156372070     
  0.13410000000000000         -3.2109334468841553     
  0.13440000000000002         -3.1083157062530518     
  0.13469999999999999         -2.8855578899383545     
  0.13500000000000001         -2.5536303520202637     
  0.13529999999999998         -2.1287732124328613     
  0.13560000000000000         -1.6320436000823975     
  0.13590000000000002         -1.0878456830978394     
  0.13619999999999999        -0.52339482307434082     
  0.13650000000000001          3.3515054732561111E-002
  0.13680000000000003         0.55591082572937012     
  0.13710000000000000          1.0186862945556641     
  0.13740000000000002          1.4012429714202881     
  0.13769999999999999          1.6884872913360596     
  0.13800000000000001          1.8717122077941895     
  0.13829999999999998          1.9494029283523560     
  0.13860000000000000          1.9271577596664429     
  0.13890000000000002          1.8172712326049805     
  0.13919999999999999          1.6372425556182861     
  0.13950000000000001          1.4079883098602295     
  0.13979999999999998          1.1523778438568115     
  0.14010000000000000         0.89315545558929443     
  0.14040000000000002         0.65013241767883301     
  0.14069999999999999         0.43895450234413147     
  0.14100000000000001         0.27027094364166260     
  0.14130000000000004         0.14861395955085754     
  0.14160000000000000          7.2367727756500244E-002
  0.14189999999999997          3.4533787518739700E-002
  0.14219999999999999          2.3690572008490562E-002
  0.14250000000000002          2.6123812422156334E-002
  0.14279999999999998          2.6827022433280945E-002
  0.14310000000000000          1.1350658722221851E-002
  0.14339999999999997         -3.2111518085002899E-002
  0.14369999999999999        -0.11191518604755402     
  0.14400000000000002        -0.23154236376285553     
  0.14429999999999998        -0.38950562477111816     
  0.14460000000000001        -0.57989186048507690     
  0.14490000000000003        -0.79180568456649780     
  0.14520000000000000         -1.0106087923049927     
  0.14550000000000002         -1.2198346853256226     
  0.14579999999999999         -1.4016220569610596     
  0.14610000000000001         -1.5384086370468140     
  0.14640000000000003         -1.6147722005844116     
  0.14670000000000000         -1.6183952093124390     
  0.14699999999999996         -1.5413769483566284     
  0.14729999999999999         -1.3807733058929443     
  0.14760000000000001         -1.1390180587768555     
  0.14789999999999998        -0.82473587989807129     
  0.14820000000000000        -0.45151364803314209     