  -1.4999999999999999E-002     0.0000000000000000     
  -1.4700000000000000E-002     0.0000000000000000     
  -1.4400000000000000E-002     0.0000000000000000     
  -1.4100000000000000E-002     0.0000000000000000     
  -1.3800000000000000E-002     0.0000000000000000     
  -1.3500000000000000E-002     0.0000000000000000     
  -1.3200000000000000E-002     0.0000000000000000     
  -1.2899999999999998E-002     0.0000000000000000     
  -1.2600000000000000E-002     0.0000000000000000     
  -1.2299999999999998E-002     0.0000000000000000     
  -1.2000000000000000E-002     0.0000000000000000     
  -1.1699999999999999E-002     0.0000000000000000     
  -1.1399999999999999E-002    -2.3628554575598633E-039
  -1.1099999999999999E-002     1.9956265976200946E-035
  -1.0799999999999999E-002    -6.0808593085397864E-034
  -1.0499999999999999E-002     1.5721325904192283E-032
  -1.0199999999999999E-002    -2.4815462599826106E-031
  -9.8999999999999991E-003     2.7878528521537436E-030
  -9.5999999999999992E-003    -2.4492605920661470E-029
  -9.2999999999999992E-003     1.7659168119177182E-028
  -8.9999999999999993E-003    -1.0703978666119144E-027
  -8.6999999999999994E-003     5.4777410520449859E-027
  -8.3999999999999995E-003    -2.3542806465020001E-026
  -8.0999999999999996E-003     8.4630642385830974E-026
  -7.7999999999999988E-003    -2.5470980694625810E-025
  -7.4999999999999997E-003     6.4199177830406793E-025
  -7.1999999999999998E-003    -1.3189322574790352E-024
  -6.8999999999999981E-003     1.8599833990063057E-024
  -6.5999999999999982E-003     4.1528049477869276E-025
  -6.3000000000000000E-003    -1.3561015734488607E-023
  -6.0000000000000001E-003     3.9284272050045975E-023
  -5.6999999999999985E-003     4.8058812871645752E-023
  -5.3999999999999986E-003    -1.0433360742369476E-021
  -5.1000000000000004E-003     6.0318283270024464E-021
  -4.7999999999999987E-003    -2.3799808285039330E-020
  -4.5000000000000005E-003     7.3176860851943511E-020
  -4.1999999999999989E-003    -1.8209138662701043E-019
  -3.8999999999999990E-003     3.6511332817112656E-019
  -3.5999999999999990E-003    -5.5363885396216278E-019
  -3.2999999999999991E-003     4.5786022390527112E-019
  -2.9999999999999992E-003     6.1997632504467323E-019
  -2.6999999999999993E-003    -3.9147911598583421E-018
  -2.3999999999999994E-003     1.1060397459145144E-017
  -2.0999999999999977E-003    -2.3377680204567578E-017
  -1.7999999999999995E-003     3.9994555471303472E-017
  -1.4999999999999979E-003    -5.3354973632092965E-017
  -1.1999999999999997E-003     4.0144012421477934E-017
  -8.9999999999999976E-004     4.9946536500690121E-017
  -5.9999999999999810E-004    -2.8869551476382151E-016
  -2.9999999999999992E-004     7.0374063069923029E-016
   0.0000000000000000         -1.1182146898996494E-015
   3.0000000000000165E-004     9.7593303745430120E-016
   5.9999999999999984E-004     5.4390248650386902E-016
   9.0000000000000149E-004    -3.7197824667789849E-015
   1.2000000000000031E-003     6.8457100897268977E-015
   1.5000000000000013E-003    -5.3367853602233207E-015
   1.8000000000000030E-003    -6.5785382441575306E-015
   2.1000000000000012E-003     3.0623764490643037E-014
   2.3999999999999994E-003    -5.7641489473393080E-014
   2.7000000000000010E-003     5.9782824341056523E-014
   2.9999999999999992E-003     3.6688987421158681E-014
   3.3000000000000008E-003    -4.5552691447656828E-013
   3.6000000000000025E-003     1.7674756376069433E-012
   3.9000000000000007E-003    -4.6509741082444945E-012
   4.2000000000000023E-003     6.8292008641643820E-012
   4.5000000000000005E-003     8.1035014602426996E-012
   4.7999999999999987E-003    -9.1872274724744397E-011
   5.1000000000000004E-003     3.2865063212661664E-010
   5.4000000000000020E-003    -6.6249107062630669E-010
   5.7000000000000037E-003     2.8837617346406561E-010
   5.9999999999999984E-003     3.1122202431630808E-009
   6.3000000000000000E-003    -1.1149247497441868E-008
   6.6000000000000017E-003     1.3119212834565524E-008
   6.9000000000000034E-003     2.6252254327756101E-008
   7.2000000000000015E-003    -1.1255146658236428E-007
   7.5000000000000032E-003     5.5789112812077016E-008
   7.8000000000000014E-003     4.0325772726506931E-007
   8.0999999999999996E-003    -5.5458937242231426E-007
   8.4000000000000012E-003    -1.3102838727622643E-006
   8.7000000000000029E-003     1.9664417887250025E-006
   9.0000000000000011E-003     4.2673894057594739E-006
   9.2999999999999992E-003    -4.4374963110822233E-006
   9.6000000000000009E-003    -1.3104229287583279E-005
   9.8999999999999991E-003     7.5701290469955664E-006
   1.0200000000000001E-002     5.7362648798668474E-005
   1.0500000000000002E-002     9.5222320483746153E-005
   1.0800000000000004E-002     1.0477735077026084E-004
   1.1099999999999999E-002     1.3738425252876260E-004
   1.1400000000000000E-002     2.5086181313980441E-004
   1.1700000000000002E-002     4.3618546579470702E-004
   1.2000000000000004E-002     6.5883210289750110E-004
   1.2300000000000002E-002     9.5504403837368135E-004
   1.2600000000000000E-002     1.4318828617248883E-003
   1.2900000000000002E-002     2.1762155624192453E-003
   1.3200000000000000E-002     3.2221935775106625E-003
   1.3500000000000002E-002     4.6422888038163967E-003
   1.3800000000000003E-002     6.6193236540601774E-003
   1.4100000000000001E-002     9.3687567678925610E-003
   1.4400000000000000E-002     1.3051311860021952E-002
   1.4700000000000001E-002     1.7840779200743118E-002
   1.4999999999999999E-002     2.4014508282264924E-002
   1.5300000000000001E-002     3.1881331676379743E-002
   1.5600000000000003E-002     4.1648003455298621E-002
   1.5899999999999997E-002     5.3432800820414350E-002
   1.6199999999999999E-002     6.7342166145436977E-002
   1.6500000000000001E-002     8.3383622749911623E-002
   1.6800000000000002E-002    0.10128428717271287     
   1.7100000000000004E-002    0.12044058293248261     
   1.7400000000000006E-002    0.13997836351422688     
   1.7700000000000000E-002    0.15872809373800756     
   1.8000000000000002E-002    0.17507318407920014     
   1.8300000000000004E-002    0.18689269806387365     
   1.8600000000000005E-002    0.19173413422061270     
   1.8900000000000000E-002    0.18699614075082138     
   1.9200000000000002E-002    0.16996770842485276     
   1.9500000000000003E-002    0.13795977360997203     
   1.9799999999999998E-002     8.8657503155409101E-002
   2.0100000000000000E-002     2.0544502335201664E-002
   2.0400000000000001E-002    -6.6860914172867325E-002
   2.0700000000000003E-002   -0.17286445280700136     
   2.0999999999999998E-002   -0.29526860402764576     
   2.1299999999999999E-002   -0.43007765980097190     
   2.1600000000000001E-002   -0.57157975400496852     
   2.1900000000000003E-002   -0.71267175596754484     
   2.2200000000000004E-002   -0.84515008615962373     
   2.2500000000000006E-002   -0.95995456236194343     
   2.2800000000000001E-002    -1.0477663345084665     
   2.3100000000000002E-002    -1.1001152217762069     
   2.3400000000000004E-002    -1.1101633541536557     
   2.3699999999999999E-002    -1.0730479840878360     
   2.4000000000000000E-002   -0.98639313170157195     
   2.4300000000000002E-002   -0.85103790166927240     
   2.4599999999999997E-002   -0.67128386277792629     
   2.4900000000000005E-002   -0.45448620593282563     
   2.5200000000000000E-002   -0.21050545311975410     
   2.5499999999999995E-002     4.8804771527032997E-002
   2.5800000000000003E-002    0.31027475910503632     
   2.6099999999999998E-002    0.56064937377350077     
   2.6400000000000007E-002    0.78770502890915139     
   2.6700000000000002E-002    0.98096198062961193     
   2.6999999999999996E-002     1.1324042149640547     
   2.7300000000000005E-002     1.2370211775372724     
   2.7600000000000000E-002     1.2931370668881428     
   2.7900000000000008E-002     1.3023069229980919     
   2.8200000000000003E-002     1.2687419607427444     
   2.8499999999999998E-002     1.1988374516380276     
   2.8800000000000006E-002     1.1006127003933202     
   2.9100000000000001E-002    0.98270141889823392     
   2.9400000000000003E-002    0.85351499868726322     
   2.9700000000000004E-002    0.72053624673836225     
   3.0000000000000006E-002    0.58981427422675381     
   3.0300000000000001E-002    0.46566575469086402     
   3.0600000000000002E-002    0.35018680778647227     
   3.0900000000000004E-002    0.24336406241923902     
   3.1199999999999999E-002    0.14368441330248061     
   3.1500000000000007E-002     4.8705196910449722E-002
   3.1800000000000002E-002    -4.4687607718748967E-002
   3.2099999999999997E-002   -0.13969064753153893     
   3.2400000000000005E-002   -0.23818362283390826     
   3.2700000000000000E-002   -0.34002766414280217     
   3.3000000000000002E-002   -0.44294192632039575     
   3.3300000000000003E-002   -0.54217491825413511     
   3.3599999999999998E-002   -0.63033743773835837     
   3.3900000000000000E-002   -0.69758267749623570     
   3.4200000000000001E-002   -0.73248388252807928     
   3.4500000000000003E-002   -0.72323941079005749     
   3.4799999999999998E-002   -0.65896833138165434     
   3.5099999999999999E-002   -0.53083719227595372     
   3.5400000000000001E-002   -0.33358153179983319     
   3.5699999999999996E-002    -6.7198971308386035E-002
   3.6000000000000004E-002    0.26233112573174466     
   3.6299999999999999E-002    0.64291764681303221     
   3.6600000000000008E-002     1.0561931628522423     
   3.6900000000000002E-002     1.4780828393294030     
   3.7199999999999997E-002     1.8801402594954340     
   3.7500000000000006E-002     2.2316870168909730     
   3.7800000000000000E-002     2.5016952066545457     
   3.8100000000000009E-002     2.6610660996229001     
   3.8400000000000004E-002     2.6855274524989881     
   3.8699999999999998E-002     2.5575875814595292     
   3.9000000000000007E-002     2.2683791649882750     
   3.9300000000000002E-002     1.8191773293379114     
   3.9600000000000003E-002     1.2220345271810764     
   3.9900000000000005E-002    0.49966934158866039     
   4.0200000000000000E-002   -0.31525890999359207     
   4.0500000000000001E-002    -1.1817839702408008     
   4.0800000000000003E-002    -2.0529125335230205     
   4.1100000000000005E-002    -2.8784197004225831     
   4.1399999999999999E-002    -3.6079049663866556     
   4.1700000000000008E-002    -4.1941989204769641     
   4.2000000000000003E-002    -4.5966022124580377     
   4.2299999999999997E-002    -4.7836974450474656     
   4.2600000000000006E-002    -4.7356713622676807     
   4.2900000000000001E-002    -4.4463041661474705     
   4.3200000000000002E-002    -3.9237514344534361     
   4.3500000000000004E-002    -3.1900260243050553     
   4.3799999999999999E-002    -2.2803361555426651     
   4.4100000000000000E-002    -1.2413954177603195     
   4.4400000000000002E-002   -0.12871373247062401     
   4.4700000000000004E-002    0.99661353544079745     
   4.4999999999999998E-002     2.0711966070385301     
   4.5300000000000000E-002     3.0324029928569018     
   4.5600000000000002E-002     3.8220026327127954     
   4.5899999999999996E-002     4.3894921528850546     
   4.6200000000000005E-002     4.6943880230159465     
   4.6500000000000000E-002     4.7079759842846585     
   4.6799999999999994E-002     4.4150036178998988     
   4.7100000000000003E-002     3.8153445358628666     
   4.7399999999999998E-002     2.9241369611173447     
   4.7700000000000006E-002     1.7706541802529046     
   4.8000000000000001E-002    0.39801157031485346     
   4.8300000000000010E-002    -1.1375944717846806     
   4.8600000000000004E-002    -2.7694380439049127     
   4.8899999999999999E-002    -4.4236741995276674     
   4.9200000000000008E-002    -6.0219843582750627     
   4.9500000000000002E-002    -7.4843813068263785     
   4.9800000000000011E-002    -8.7335086343144894     
   5.0100000000000006E-002    -9.6990377302631146     
   5.0400000000000000E-002    -10.321102186670487     
   5.0700000000000009E-002    -10.552929038758691     
   5.1000000000000004E-002    -10.363849199822937     
   5.1299999999999998E-002    -9.7418664869429676     
   5.1600000000000007E-002    -8.6943074552450526     
   5.1900000000000002E-002    -7.2472096121043776     
   5.2200000000000010E-002    -5.4446802035143378     
   5.2500000000000005E-002    -3.3475243269045620     
   5.2800000000000000E-002    -1.0299027513294874     
   5.3099999999999994E-002     1.4247426662838869     
   5.3400000000000003E-002     3.9272783850498314     
   5.3699999999999998E-002     6.3865162059329634     
   5.4000000000000006E-002     8.7139285552403578     
   5.4300000000000001E-002     10.827987616679025     
   5.4599999999999996E-002     12.657485380852904     
   5.4900000000000004E-002     14.144484150526068     
   5.5199999999999999E-002     15.245760903778489     
   5.5499999999999994E-002     15.934352761618186     
   5.5800000000000002E-002     16.199907055221445     
   5.6099999999999997E-002     16.046989146715362     
   5.6400000000000006E-002     15.493453851721540     
   5.6700000000000000E-002     14.567810593194679     
   5.6999999999999995E-002     13.306873838846428     
   5.7300000000000004E-002     11.752566233552784     
   5.7599999999999998E-002     9.9485159005784709     
   5.7900000000000007E-002     7.9389005301609075     
   5.8200000000000002E-002     5.7669120608796618     
   5.8499999999999996E-002     3.4744579199469001     
   5.8800000000000005E-002     1.1031125116415410     
   5.9100000000000000E-002    -1.3049395680475331     
   5.9400000000000008E-002    -3.7044847095424842     
   5.9700000000000003E-002    -6.0462416937141370     
   6.0000000000000012E-002    -8.2746341934755776     
   6.0300000000000006E-002    -10.327153841531526     
   6.0600000000000001E-002    -12.137045955211192     
   6.0900000000000010E-002    -13.634205700504936     
   6.1200000000000004E-002    -14.748114231691204     
   6.1500000000000013E-002    -15.415156054873137     
   6.1800000000000008E-002    -15.584719771002767     
   6.2100000000000002E-002    -15.223715036688020     
   6.2399999999999997E-002    -14.322802986768636     
   6.2700000000000006E-002    -12.901071671364122     
   6.3000000000000000E-002    -11.008342096305960     
   6.3300000000000009E-002    -8.7245910409414122     
   6.3600000000000004E-002    -6.1561992355595265     
   6.3899999999999998E-002    -3.4312623776843338     
   6.4199999999999993E-002   -0.69137479093510024     
   6.4500000000000002E-002     1.9184671456960523     
   6.4800000000000010E-002     4.2598468019391476     
   6.5100000000000005E-002     6.2117484068894271     
   6.5400000000000000E-002     7.6787424120021797     
   6.5700000000000008E-002     8.5980039959738122     
   6.5999999999999989E-002     8.9438444804540040     
   6.6299999999999998E-002     8.7294144693825615     
   6.6600000000000006E-002     8.0038716057735684     
   6.6900000000000001E-002     6.8474332348825158     
   6.7199999999999996E-002     5.3651608859083879     
   6.7500000000000004E-002     3.6776390208301422     
   6.7800000000000013E-002     1.9113809005654332     
   6.8099999999999994E-002    0.18949450884117880     
   6.8400000000000002E-002    -1.3778295610438995     
   6.8700000000000011E-002    -2.6999302289307181     
   6.8999999999999992E-002    -3.7113136190818636     
   6.9300000000000000E-002    -4.3744230967009230     
   6.9600000000000009E-002    -4.6803620050450121     
   6.9900000000000004E-002    -4.6479152573702009     
   7.0199999999999999E-002    -4.3186284017999483     
   7.0500000000000007E-002    -3.7518405922270368     
   7.0800000000000016E-002    -3.0198572200830265     
   7.1099999999999997E-002    -2.1996462502466336     
   7.1400000000000005E-002    -1.3664775306187202     
   7.1700000000000000E-002   -0.58914681876258257     
   7.1999999999999995E-002     7.6301128281468067E-002
   7.2300000000000003E-002    0.58949299719294146     
   7.2600000000000012E-002    0.92722152121786472     
   7.2900000000000006E-002     1.0843746775108416     
   7.3200000000000001E-002     1.0722898409047588     
   7.3499999999999996E-002    0.91640293606570467     
   7.3800000000000004E-002    0.65259925619589865     
   7.4099999999999999E-002    0.32264565965503778     
   7.4400000000000008E-002    -2.9128514057398469E-002
   7.4700000000000003E-002   -0.36083595477785657     
   7.5000000000000011E-002   -0.63649698965281232     
   7.5299999999999992E-002   -0.82765770852683573     
   7.5600000000000001E-002   -0.91659468660772525     
   7.5900000000000009E-002   -0.89660540957391355     
   7.6200000000000004E-002   -0.76947056324446805     
   7.6499999999999999E-002   -0.54707679220473793     
   7.6800000000000007E-002   -0.24877468603028419     
   7.7099999999999988E-002    0.10308997914254814     
   7.7399999999999997E-002    0.48407777246372952     
   7.7700000000000005E-002    0.87000230342028928     
   7.8000000000000014E-002     1.2394784131086212     
   7.8299999999999995E-002     1.5760861860277089     
   7.8600000000000003E-002     1.8695838126882052     
   7.8900000000000012E-002     2.1147225450280658     
   7.9199999999999993E-002     2.3125244688908424     
   7.9500000000000001E-002     2.4695444371762960     
   7.9800000000000010E-002     2.5945256297592891     
   8.0100000000000018E-002     2.6987143731129777     
   8.0399999999999999E-002     2.7945081822430780     
   8.0700000000000008E-002     2.8912408671453704     
   8.1000000000000003E-002     2.9950198731399951     
   8.1299999999999997E-002     3.1094151100036527     
   8.1600000000000006E-002     3.2329461887213711     
   8.1900000000000014E-002     3.3600741008945221     
   8.2199999999999995E-002     3.4825583529546407     
   8.2500000000000004E-002     3.5908413934353973     
   8.2799999999999999E-002     3.6762582743476884     
   8.3100000000000007E-002     3.7309485465064824     
   8.3400000000000002E-002     3.7504986540600669     
   8.3700000000000011E-002     3.7350138796699923     
   8.4000000000000005E-002     3.6866368704226460     
   8.4300000000000000E-002     3.6108564456012431     
   8.4599999999999995E-002     3.5137160940007277     
   8.4900000000000003E-002     3.3982436500051705     
   8.5199999999999998E-002     3.2650053172042135     
   8.5500000000000007E-002     3.1083390758892193     
   8.5800000000000001E-002     2.9155933594392209     
   8.6100000000000010E-002     2.6692586741784581     
   8.6399999999999991E-002     2.3469756258151406     
   8.6699999999999999E-002     1.9258348839583306     
   8.7000000000000008E-002     1.3865329992523030     
   8.7300000000000003E-002    0.71639222807564806     
   8.7599999999999997E-002    -8.6169873436537259E-002
   8.7900000000000006E-002    -1.0104311271645710     
   8.8200000000000014E-002    -2.0324753832573705     
   8.8499999999999995E-002    -3.1165182790826975     
   8.8800000000000004E-002    -4.2217672266548760     
   8.9100000000000013E-002    -5.3067903002029766     
   8.9399999999999993E-002    -6.3353757242679762     
   8.9700000000000002E-002    -7.2852942304393480     
   9.0000000000000011E-002    -8.1521536315997309     
   9.0299999999999991E-002    -8.9514974065392607     
   9.0600000000000000E-002    -9.7187635689202239     
   9.0900000000000009E-002    -10.502739202574105     
   9.1200000000000017E-002    -11.357589573661016     
   9.1499999999999998E-002    -12.331335623825453     
   9.1800000000000007E-002    -13.452306909221363     
   9.2100000000000001E-002    -14.717516953676693     
   9.2399999999999996E-002    -16.081874572903018     
   9.2700000000000005E-002    -17.451815342880650     
   9.3000000000000013E-002    -18.686397690953640     
   9.3300000000000008E-002    -19.603178960588764     
   9.3600000000000003E-002    -19.990428291042058     
   9.3899999999999997E-002    -19.627519126472578     
   9.4200000000000006E-002    -18.308531681915724     
   9.4500000000000001E-002    -15.867514298462538     
   9.4800000000000009E-002    -12.202572365297272     
   9.5100000000000004E-002    -7.2965440872542331     
   9.5399999999999999E-002    -1.2346594263658517     
   9.5699999999999993E-002     5.7909674060238920     
   9.6000000000000002E-002     13.487366429336703     
   9.6300000000000011E-002     21.471526972941149     
   9.6600000000000005E-002     29.294917939146671     
   9.6900000000000000E-002     36.476463775279512     
   9.7200000000000009E-002     42.538656508186705     
   9.7499999999999989E-002     47.046339166631810     
   9.7799999999999998E-002     49.643262508220914     
   9.8100000000000007E-002     50.083192782890166     
   9.8400000000000015E-002     48.253557408645065     
   9.8699999999999996E-002     44.186703182827102     
   9.9000000000000005E-002     38.060956433554111     
   9.9300000000000013E-002     30.188030631102720     
   9.9599999999999994E-002     20.989779000573094     
   9.9900000000000003E-002     10.968454927377593     
  0.10020000000000001         0.66886793335578432     
  0.10049999999999999         -9.3608431556573244     
  0.10080000000000000         -18.606710989588578     
  0.10110000000000001         -26.623730090027038     
  0.10140000000000000         -33.060283517279004     
  0.10170000000000000         -37.677304469954834     
  0.10200000000000001         -40.357366835416087     
  0.10230000000000002         -41.101436918110949     
  0.10260000000000000         -40.021162645501022     
  0.10290000000000001         -37.321033253850814     
  0.10320000000000000         -33.277316402598146     
  0.10350000000000001         -28.215833412072470     
  0.10380000000000000         -22.483831932744579     
  0.10410000000000001         -16.429081402551162     
  0.10440000000000001         -10.380227929876185     
  0.10470000000000000         -4.6270752481183877     
  0.10500000000000000         0.58927295956566184     
  0.10530000000000000          5.0843228138377157     
  0.10560000000000000          8.7357319627359402     
  0.10590000000000001          11.480884110931527     
  0.10620000000000000          13.313107523833423     
  0.10650000000000001          14.275780370746645     
  0.10679999999999999          14.452442001134173     
  0.10710000000000000          13.957912491014739     
  0.10740000000000001          12.927219744932721     
  0.10770000000000000          11.504035064332275     
  0.10800000000000000          9.8322234363071708     
  0.10830000000000001          8.0461487851928162     
  0.10859999999999999          6.2624979831719241     
  0.10890000000000000          4.5778452889633492     
  0.10920000000000001          3.0636418394715506     
  0.10950000000000001          1.7669778078872262     
  0.10979999999999999         0.71159390212065077     
  0.11009999999999999        -0.10101114973482161     
  0.11040000000000001        -0.68342134360934814     
  0.11070000000000001         -1.0603109015826506     
  0.11100000000000000         -1.2648563286151924     
  0.11130000000000000         -1.3314799663964578     
  0.11160000000000002         -1.2942972617684214     
  0.11190000000000001         -1.1841346141800555     
  0.11220000000000001         -1.0269050773612545     
  0.11250000000000000        -0.84454114137156822     
  0.11280000000000000        -0.65350868416185648     
  0.11309999999999999        -0.46636131617605603     
  0.11340000000000001        -0.29263726599323281     
  0.11369999999999998        -0.13943156640677579     
  0.11400000000000000         -1.1795880171869833E-002
  0.11430000000000000          8.6293247584802363E-002
  0.11460000000000002         0.15308637401049729     
  0.11489999999999999         0.18833525281137042     
  0.11520000000000001         0.19306757424094734     
  0.11550000000000001         0.17143674494720340     
  0.11580000000000000         0.12812807123707337     
  0.11609999999999999          6.9137395649835121E-002
  0.11640000000000002          2.3102299273831672E-003
  0.11670000000000001         -6.6511580638803358E-002
  0.11700000000000001        -0.13129510682093448     
  0.11730000000000000        -0.18719089598340144     
  0.11760000000000000        -0.23223703606305257     
  0.11789999999999999        -0.26510708122899107     
  0.11820000000000001        -0.28763719846608193     
  0.11850000000000001        -0.30183523290929504     
  0.11880000000000000        -0.30955410161529695     
  0.11910000000000000        -0.31421120902926614     
  0.11940000000000002        -0.31749237415866727     
  0.11970000000000001        -0.31969185618085127     
  0.12000000000000001        -0.32081210390722426     
  0.12030000000000000        -0.31880755107235670     
  0.12060000000000000        -0.31208842817604943     
  0.12089999999999999        -0.29902987278046744     
  0.12119999999999999        -0.27753571227122498     
  0.12150000000000001        -0.24713251658587820     
  0.12180000000000001        -0.20905488103947967     
  0.12210000000000000        -0.16520877215996776     
  0.12239999999999999        -0.11860977628627634     
  0.12270000000000002         -7.3031438313036823E-002
  0.12300000000000001         -3.2519800567693657E-002
  0.12330000000000001         -8.9830714791450106E-004
  0.12360000000000000          1.9892410779553171E-002
  0.12390000000000000          2.9087751530166628E-002
  0.12419999999999999          2.6535367964852119E-002
  0.12450000000000001          1.5146046310016592E-002
  0.12480000000000001         -1.8885733262091198E-003
  0.12509999999999999         -2.1775281464492535E-002
  0.12540000000000001         -3.9647849554496184E-002
  0.12570000000000003         -5.2156389217630772E-002
  0.12600000000000000         -5.7995271738520260E-002
  0.12630000000000002         -5.6275915006426258E-002
  0.12659999999999999         -4.8176166965637951E-002
  0.12690000000000001         -3.5192587611144299E-002
  0.12719999999999998         -2.0964264878730376E-002
  0.12750000000000000         -9.3471776822460773E-003
  0.12780000000000002         -1.8865980335743826E-003
  0.12809999999999999         -1.1508019214853671E-003
  0.12840000000000001         -7.7400228001298088E-003
  0.12869999999999998         -1.9206549753605751E-002
  0.12900000000000000         -3.2968647296362563E-002
  0.12930000000000003         -4.5058460827170355E-002
  0.12959999999999999         -5.0578577123322699E-002
  0.12990000000000002         -4.6196416283522890E-002
  0.13019999999999998         -2.9097992082225632E-002
  0.13050000000000000          1.0326396966638396E-003
  0.13080000000000003          4.2637148638249189E-002
  0.13109999999999999          9.1377317967735960E-002
  0.13140000000000002         0.14021391696097851     
  0.13169999999999998         0.18222639013639874     
  0.13200000000000001         0.21089679384274795     
  0.13229999999999997         0.21912853769625595     
  0.13260000000000000         0.20338039861834822     
  0.13290000000000002         0.16422134752572504     
  0.13319999999999999         0.10420326264902080     
  0.13350000000000001          2.9708106471957263E-002
  0.13380000000000003         -4.9276092146562867E-002
  0.13410000000000000        -0.12160156255945465     
  0.13440000000000002        -0.17732660412417012     
  0.13469999999999999        -0.20739322636214652     
  0.13500000000000001        -0.20527696249012539     
  0.13529999999999998        -0.16929376399235263     
  0.13560000000000000        -0.10406180718365565     
  0.13590000000000002         -1.6994195664007172E-002
  0.13619999999999999          8.1176321248630640E-002
  0.13650000000000001         0.17525074589023770     
  0.13680000000000003         0.25105908712938607     
  0.13710000000000000         0.29733287462466684     
  0.13740000000000002         0.30512402559058849     
  0.13769999999999999         0.27122075828916792     
  0.13800000000000001         0.19880262692282979     
  0.13829999999999998          9.7594105407862397E-002
  0.13860000000000000         -1.8160868826051946E-002
  0.13890000000000002        -0.13169770631395972     
  0.13919999999999999        -0.22474817260084468     
  0.13950000000000001        -0.28146712074131131     
  0.13979999999999998        -0.29044579238707335     
  0.14010000000000000        -0.24677026145441872     
  0.14040000000000002        -0.15469671761734283     
  0.14069999999999999         -2.5804037027611137E-002
  0.14100000000000001         0.12221057970466553     
  0.14130000000000004         0.26619853848263419     
  0.14160000000000000         0.38071866995745918     
  0.14189999999999997         0.44352642386507846     
  0.14219999999999999         0.43761583155106720     
  0.14250000000000002         0.35287072523571261     
  0.14279999999999998         0.19102764471945299     
  0.14310000000000000         -3.5321281287568951E-002
  0.14339999999999997        -0.30423844595418720     
  0.14369999999999999        -0.58576046497986489     
  0.14400000000000002        -0.84441784308767209     
  0.14429999999999998         -1.0445178486767404     
  0.14460000000000001         -1.1552429720742126     
  0.14490000000000003         -1.1533429696915292     
  0.14520000000000000         -1.0254875408982258     
  0.14550000000000002        -0.77368721476278779     
  0.14579999999999999        -0.41290329485748245     
  0.14610000000000001          2.9695416853366297E-002
  0.14640000000000003         0.51630935857915450     
  0.14670000000000000          1.0030498415796174     
  0.14699999999999996          1.4437156552496653     
  0.14729999999999999          1.7954919420152748     
  0.14760000000000001          2.0228756947150437     
  0.14789999999999998          2.1006907395311778     
  0.14820000000000000          2.0174485428721738     