  -1.4999999999999999E-002     0.0000000000000000     
  -1.4700000000000000E-002     0.0000000000000000     
  -1.4400000000000000E-002     0.0000000000000000     
  -1.4100000000000000E-002     0.0000000000000000     
  -1.3800000000000000E-002     0.0000000000000000     
  -1.3500000000000000E-002     0.0000000000000000     
  -1.3200000000000000E-002     0.0000000000000000     
  -1.2899999999999998E-002     0.0000000000000000     
  -1.2600000000000000E-002     0.0000000000000000     
  -1.2299999999999998E-002     0.0000000000000000     
  -1.2000000000000000E-002     0.0000000000000000     
  -1.1699999999999999E-002     0.0000000000000000     
  -1.1399999999999999E-002     0.0000000000000000     
  -1.1099999999999999E-002     0.0000000000000000     
  -1.0799999999999999E-002     0.0000000000000000     
  -1.0499999999999999E-002     0.0000000000000000     
  -1.0199999999999999E-002     0.0000000000000000     
  -9.8999999999999991E-003     0.0000000000000000     
  -9.5999999999999992E-003     0.0000000000000000     
  -9.2999999999999992E-003     0.0000000000000000     
  -8.9999999999999993E-003     0.0000000000000000     
  -8.6999999999999994E-003     0.0000000000000000     
  -8.3999999999999995E-003     0.0000000000000000     
  -8.0999999999999996E-003     0.0000000000000000     
  -7.7999999999999988E-003     0.0000000000000000     
  -7.4999999999999997E-003     0.0000000000000000     
  -7.1999999999999998E-003     0.0000000000000000     
  -6.8999999999999981E-003     0.0000000000000000     
  -6.5999999999999982E-003     0.0000000000000000     
  -6.3000000000000000E-003     0.0000000000000000     
  -6.0000000000000001E-003     0.0000000000000000     
  -5.6999999999999985E-003     0.0000000000000000     
  -5.3999999999999986E-003     0.0000000000000000     
  -5.1000000000000004E-003     0.0000000000000000     
  -4.7999999999999987E-003     0.0000000000000000     
  -4.5000000000000005E-003     0.0000000000000000     
  -4.1999999999999989E-003     0.0000000000000000     
  -3.8999999999999990E-003     0.0000000000000000     
  -3.5999999999999990E-003     0.0000000000000000     
  -3.2999999999999991E-003     0.0000000000000000     
  -2.9999999999999992E-003     0.0000000000000000     
  -2.6999999999999993E-003     0.0000000000000000     
  -2.3999999999999994E-003     0.0000000000000000     
  -2.0999999999999977E-003     0.0000000000000000     
  -1.7999999999999995E-003     0.0000000000000000     
  -1.4999999999999979E-003     0.0000000000000000     
  -1.1999999999999997E-003     0.0000000000000000     
  -8.9999999999999976E-004     0.0000000000000000     
  -5.9999999999999810E-004     0.0000000000000000     
  -2.9999999999999992E-004     0.0000000000000000     
   0.0000000000000000          0.0000000000000000     
   3.0000000000000165E-004     0.0000000000000000     
   5.9999999999999984E-004     0.0000000000000000     
   9.0000000000000149E-004     0.0000000000000000     
   1.2000000000000031E-003     0.0000000000000000     
   1.5000000000000013E-003     0.0000000000000000     
   1.8000000000000030E-003     0.0000000000000000     
   2.1000000000000012E-003     0.0000000000000000     
   2.3999999999999994E-003     0.0000000000000000     
   2.7000000000000010E-003     0.0000000000000000     
   2.9999999999999992E-003     0.0000000000000000     
   3.3000000000000008E-003     0.0000000000000000     
   3.6000000000000025E-003     0.0000000000000000     
   3.9000000000000007E-003     0.0000000000000000     
   4.2000000000000023E-003    -1.1619192887647224E-036
   4.5000000000000005E-003    -6.9551433649051210E-036
   4.7999999999999987E-003     4.3269556752909732E-035
   5.1000000000000004E-003    -1.0298767738718111E-034
   5.4000000000000020E-003    -3.9771561989706040E-033
   5.7000000000000037E-003     3.5230470824794090E-032
   5.9999999999999984E-003    -8.3900732965788148E-032
   6.3000000000000000E-003    -1.0278120114324360E-030
   6.6000000000000017E-003     1.2153784039479474E-029
   6.9000000000000034E-003    -4.9691384931293479E-029
   7.2000000000000015E-003    -8.2448916474471738E-029
   7.5000000000000032E-003     2.0360157148224214E-027
   7.8000000000000014E-003    -1.0232610624461202E-026
   8.0999999999999996E-003     1.3093363852694669E-026
   8.4000000000000012E-003     1.3007243969301450E-025
   8.7000000000000029E-003    -9.2588101546963077E-025
   9.0000000000000011E-003     2.8002020031078844E-024
   9.2999999999999992E-003    -1.4109960581235628E-024
   9.6000000000000009E-003    -2.7177596092959112E-023
   9.8999999999999991E-003     1.4233703827183492E-022
   1.0200000000000001E-002    -3.7618575332520124E-022
   1.0500000000000002E-002     3.8989024886748413E-022
   1.0800000000000004E-002     1.2248705122061620E-021
   1.1099999999999999E-002    -6.6115407372434108E-021
   1.1400000000000000E-002     1.1320528099317211E-020
   1.1700000000000002E-002     2.2633572799030232E-020
   1.2000000000000004E-002    -2.1742196831711981E-019
   1.2300000000000002E-002     7.6397724121271108E-019
   1.2600000000000000E-002    -1.3513132679395967E-018
   1.2900000000000002E-002    -1.8275773948680284E-018
   1.3200000000000000E-002     2.7942190870543327E-017
   1.3500000000000002E-002    -1.5424671139825782E-016
   1.3800000000000003E-002     6.6455616297127359E-016
   1.4100000000000001E-002    -2.5477133220480098E-015
   1.4400000000000000E-002     9.0392882794772950E-015
   1.4700000000000001E-002    -2.9537075639084892E-014
   1.4999999999999999E-002     8.4873019799269062E-014
   1.5300000000000001E-002    -1.8854815170103734E-013
   1.5600000000000003E-002     1.6406355982968857E-013
   1.5899999999999997E-002     1.1604674469631315E-012
   1.6199999999999999E-002    -8.0478210900958302E-012
   1.6500000000000001E-002     2.9135655693623974E-011
   1.6800000000000002E-002    -6.2015045876329111E-011
   1.7100000000000004E-002     2.2169691429874128E-011
   1.7400000000000006E-002     3.6240072054383177E-010
   1.7700000000000000E-002    -1.2787164660466033E-009
   1.8000000000000002E-002     1.3270550214272703E-009
   1.8300000000000004E-002     3.8604621721560761E-009
   1.8600000000000005E-002    -1.3748171490135519E-008
   1.8900000000000000E-002     2.7931867929709142E-009
   1.9200000000000002E-002     5.3639819697082203E-008
   1.9500000000000003E-002    -4.9325429074542626E-008
   1.9799999999999998E-002    -1.8712151472755068E-007
   2.0100000000000000E-002     1.4277165405474079E-007
   2.0400000000000001E-002     6.0579543514904799E-007
   2.0700000000000003E-002    -1.6134498537212494E-007
   2.0999999999999998E-002    -1.7323338852293091E-006
   2.1299999999999999E-002    -3.3259237852689694E-007
   2.1600000000000001E-002     6.3769434746063780E-006
   2.1900000000000003E-002     1.4661404748039786E-005
   2.2200000000000004E-002     2.0113391656195745E-005
   2.2500000000000006E-002     2.6655608962755650E-005
   2.2800000000000001E-002     4.4324722694000229E-005
   2.3100000000000002E-002     7.7773773227818310E-005
   2.3400000000000004E-002     1.2406271707732230E-004
   2.3699999999999999E-002     1.8563347111921757E-004
   2.4000000000000000E-002     2.7887409669347107E-004
   2.4300000000000002E-002     4.2496505193412304E-004
   2.4599999999999997E-002     6.3955422956496477E-004
   2.4900000000000005E-002     9.4012182671576738E-004
   2.5200000000000000E-002     1.3610227033495903E-003
   2.5499999999999995E-002     1.9527313997969031E-003
   2.5800000000000003E-002     2.7682122308760881E-003
   2.6099999999999998E-002     3.8627982139587402E-003
   2.6400000000000007E-002     5.3084767423570156E-003
   2.6700000000000002E-002     7.1967076510190964E-003
   2.6999999999999996E-002     9.6223140135407448E-003
   2.7300000000000005E-002     1.2671985663473606E-002
   2.7600000000000000E-002     1.6429020091891289E-002
   2.7900000000000008E-002     2.0972942933440208E-002
   2.8200000000000003E-002     2.6355672627687454E-002
   2.8499999999999998E-002     3.2577816396951675E-002
   2.8800000000000006E-002     3.9577234536409378E-002
   2.9100000000000001E-002     4.7220308333635330E-002
   2.9400000000000003E-002     5.5286627262830734E-002
   2.9700000000000004E-002     6.3443526625633240E-002
   3.0000000000000006E-002     7.1240305900573730E-002
   3.0300000000000001E-002     7.8116178512573242E-002
   3.0600000000000002E-002     8.3419203758239746E-002
   3.0900000000000004E-002     8.6425326764583588E-002
   3.1199999999999999E-002     8.6368836462497711E-002
   3.1500000000000007E-002     8.2519263029098511E-002
   3.1800000000000002E-002     7.4246972799301147E-002
   3.2099999999999997E-002     6.1057545244693756E-002
   3.2400000000000005E-002     4.2712200433015823E-002
   3.2700000000000000E-002     1.9274167716503143E-002
   3.3000000000000002E-002    -8.8455351069569588E-003
   3.3300000000000003E-002    -4.0818639099597931E-002
   3.3599999999999998E-002    -7.5469657778739929E-002
   3.3900000000000000E-002   -0.11128089576959610     
   3.4200000000000001E-002   -0.14643007516860962     
   3.4500000000000003E-002   -0.17896600067615509     
   3.4799999999999998E-002   -0.20691487193107605     
   3.5099999999999999E-002   -0.22843745350837708     
   3.5400000000000001E-002   -0.24202018976211548     
   3.5699999999999996E-002   -0.24658355116844177     
   3.6000000000000004E-002   -0.24162709712982178     
   3.6299999999999999E-002   -0.22734630107879639     
   3.6600000000000008E-002   -0.20458284020423889     
   3.6900000000000002E-002   -0.17485252022743225     
   3.7199999999999997E-002   -0.14027726650238037     
   3.7500000000000006E-002   -0.10337286442518234     
   3.7800000000000000E-002    -6.6912539303302765E-002
   3.8100000000000009E-002    -3.3695273101329803E-002
   3.8400000000000004E-002    -6.3778078183531761E-003
   3.8699999999999998E-002     1.2773620896041393E-002
   3.9000000000000007E-002     2.2080928087234497E-002
   3.9300000000000002E-002     2.0569499582052231E-002
   3.9600000000000003E-002     8.0336853861808777E-003
   3.9900000000000005E-002    -1.4937275089323521E-002
   4.0200000000000000E-002    -4.6939354389905930E-002
   4.0500000000000001E-002    -8.5869006812572479E-002
   4.0800000000000003E-002   -0.12902535498142242     
   4.1100000000000005E-002   -0.17328989505767822     
   4.1399999999999999E-002   -0.21536959707736969     
   4.1700000000000008E-002   -0.25190338492393494     
   4.2000000000000003E-002   -0.27971547842025757     
   4.2299999999999997E-002   -0.29603725671768188     
   4.2600000000000006E-002   -0.29866325855255127     
   4.2900000000000001E-002   -0.28606390953063965     
   4.3200000000000002E-002   -0.25750517845153809     
   4.3500000000000004E-002   -0.21314503252506256     
   4.3799999999999999E-002   -0.15398032963275909     
   4.4100000000000000E-002    -8.1748627126216888E-002
   4.4400000000000002E-002     1.0587004944682121E-003
   4.4700000000000004E-002     9.1515652835369110E-002
   4.4999999999999998E-002    0.18629361689090729     
   4.5300000000000000E-002    0.28199836611747742     
   4.5600000000000002E-002    0.37537658214569092     
   4.5899999999999996E-002    0.46332201361656189     
   4.6200000000000005E-002    0.54329884052276611     
   4.6500000000000000E-002    0.61328697204589844     
   4.6799999999999994E-002    0.67179870605468750     
   4.7100000000000003E-002    0.71804881095886230     
   4.7399999999999998E-002    0.75165480375289917     
   4.7700000000000006E-002    0.77264255285263062     
   4.8000000000000001E-002    0.78137665987014771     
   4.8300000000000010E-002    0.77832055091857910     
   4.8600000000000004E-002    0.76391017436981201     
   4.8899999999999999E-002    0.73841542005538940     
   4.9200000000000008E-002    0.70198750495910645     
   4.9500000000000002E-002    0.65465641021728516     
   4.9800000000000011E-002    0.59629136323928833     
   5.0100000000000006E-002    0.52672165632247925     
   5.0400000000000000E-002    0.44595813751220703     
   5.0700000000000009E-002    0.35437798500061035     
   5.1000000000000004E-002    0.25280115008354187     
   5.1299999999999998E-002    0.14267560839653015     
   5.1600000000000007E-002     2.6169920340180397E-002
   5.1900000000000002E-002    -9.3802459537982941E-002
   5.2200000000000010E-002   -0.21356582641601562     
   5.2500000000000005E-002   -0.32895150780677795     
   5.2800000000000000E-002   -0.43556708097457886     
   5.3099999999999994E-002   -0.52888345718383789     
   5.3400000000000003E-002   -0.60469293594360352     
   5.3699999999999998E-002   -0.65952014923095703     
   5.4000000000000006E-002   -0.69076049327850342     
   5.4300000000000001E-002   -0.69711667299270630     
   5.4599999999999996E-002   -0.67862498760223389     
   5.4900000000000004E-002   -0.63664859533309937     
   5.5199999999999999E-002   -0.57402038574218750     
   5.5499999999999994E-002   -0.49472403526306152     
   5.5800000000000002E-002   -0.40340378880500793     
   5.6099999999999997E-002   -0.30539679527282715     
   5.6400000000000006E-002   -0.20614401996135712     
   5.6700000000000000E-002   -0.11079616844654083     
   5.6999999999999995E-002    -2.3992020636796951E-002
   5.7300000000000004E-002     5.0530556589365005E-002
   5.7599999999999998E-002    0.10990265011787415     
   5.7900000000000007E-002    0.15232169628143311     
   5.8200000000000002E-002    0.17711669206619263     
   5.8499999999999996E-002    0.18442773818969727     
   5.8800000000000005E-002    0.17525134980678558     
   5.9100000000000000E-002    0.15140214562416077     
   5.9400000000000008E-002    0.11502416431903839     
   5.9700000000000003E-002     6.8746261298656464E-002
   6.0000000000000012E-002     1.5592585317790508E-002
   6.0300000000000006E-002    -4.1363112628459930E-002
   6.0600000000000001E-002    -9.8853617906570435E-002
   6.0900000000000010E-002   -0.15366743505001068     
   6.1200000000000004E-002   -0.20273065567016602     
   6.1500000000000013E-002   -0.24309112131595612     
   6.1800000000000008E-002   -0.27247533202171326     
   6.2100000000000002E-002   -0.28921654820442200     
   6.2399999999999997E-002   -0.29236674308776855     
   6.2700000000000006E-002   -0.28225207328796387     
   6.3000000000000000E-002   -0.26026120781898499     
   6.3300000000000009E-002   -0.22895056009292603     
   6.3600000000000004E-002   -0.19217236340045929     
   6.3899999999999998E-002   -0.15459975600242615     
   6.4199999999999993E-002   -0.12154342234134674     
   6.4500000000000002E-002    -9.8559491336345673E-002
   6.4800000000000010E-002    -9.0872377157211304E-002
   6.5100000000000005E-002   -0.10293124616146088     
   6.5400000000000000E-002   -0.13770473003387451     
   6.5700000000000008E-002   -0.19632640480995178     
   6.5999999999999989E-002   -0.27785766124725342     
   6.6299999999999998E-002   -0.37909159064292908     
   6.6600000000000006E-002   -0.49432432651519775     
   6.6900000000000001E-002   -0.61582189798355103     
   6.7199999999999996E-002   -0.73424321413040161     
   6.7500000000000004E-002   -0.83918607234954834     
   6.7800000000000013E-002   -0.92002350091934204     
   6.8099999999999994E-002   -0.96647840738296509     
   6.8400000000000002E-002   -0.96966862678527832     
   6.8700000000000011E-002   -0.92289525270462036     
   6.8999999999999992E-002   -0.82212537527084351     
   6.9300000000000000E-002   -0.66654264926910400     
   6.9600000000000009E-002   -0.45886719226837158     
   6.9900000000000004E-002   -0.20535451173782349     
   7.0199999999999999E-002     8.4405966103076935E-002
   7.0500000000000007E-002    0.39811018109321594     
   7.0800000000000016E-002    0.72109675407409668     
   7.1099999999999997E-002     1.0371733903884888     
   7.1400000000000005E-002     1.3297327756881714     
   7.1700000000000000E-002     1.5825960636138916     
   7.1999999999999995E-002     1.7809782028198242     
   7.2300000000000003E-002     1.9123489856719971     
   7.2600000000000012E-002     1.9673714637756348     
   7.2900000000000006E-002     1.9405709505081177     
   7.3200000000000001E-002     1.8307259082794189     
   7.3499999999999996E-002     1.6412246227264404     
   7.3800000000000004E-002     1.3796648979187012     
   7.4099999999999999E-002     1.0579544305801392     
   7.4400000000000008E-002    0.69171065092086792     
   7.4700000000000003E-002    0.29891523718833923     
   7.5000000000000011E-002   -0.10082719475030899     
   7.5299999999999992E-002   -0.48742443323135376     
   7.5600000000000001E-002   -0.84181421995162964     
   7.5900000000000009E-002    -1.1468944549560547     
   7.6200000000000004E-002    -1.3887389898300171     
   7.6499999999999999E-002    -1.5574518442153931     
   7.6800000000000007E-002    -1.6474378108978271     
   7.7099999999999988E-002    -1.6576795578002930     
   7.7399999999999997E-002    -1.5914160013198853     
   7.7700000000000005E-002    -1.4555820226669312     
   7.8000000000000014E-002    -1.2602880001068115     
   7.8299999999999995E-002    -1.0173660516738892     
   7.8600000000000003E-002   -0.73955756425857544     
   7.8900000000000012E-002   -0.44000220298767090     
   7.9199999999999993E-002   -0.13076268136501312     
   7.9500000000000001E-002    0.17735442519187927     
   7.9800000000000010E-002    0.47515591979026794     
   8.0100000000000018E-002    0.75536948442459106     
   8.0399999999999999E-002     1.0121186971664429     
   8.0700000000000008E-002     1.2408633232116699     
   8.1000000000000003E-002     1.4381066560745239     
   8.1299999999999997E-002     1.6008079051971436     
   8.1600000000000006E-002     1.7261004447937012     
   8.1900000000000014E-002     1.8107074499130249     
   8.2199999999999995E-002     1.8512055873870850     
   8.2500000000000004E-002     1.8443422317504883     
   8.2799999999999999E-002     1.7864611148834229     
   8.3100000000000007E-002     1.6739548444747925     
   8.3400000000000002E-002     1.5043919086456299     
   8.3700000000000011E-002     1.2765257358551025     
   8.4000000000000005E-002    0.99080157279968262     
   8.4300000000000000E-002    0.64992970228195190     
   8.4599999999999995E-002    0.25901028513908386     
   8.4900000000000003E-002   -0.17340803146362305     
   8.5199999999999998E-002   -0.63581007719039917     
   8.5500000000000007E-002    -1.1140249967575073     
   8.5800000000000001E-002    -1.5906006097793579     
   8.6100000000000010E-002    -2.0460650920867920     
   8.6399999999999991E-002    -2.4596695899963379     
   8.6699999999999999E-002    -2.8100404739379883     
   8.7000000000000008E-002    -3.0763256549835205     
   8.7300000000000003E-002    -3.2395665645599365     
   8.7599999999999997E-002    -3.2840709686279297     
   8.7900000000000006E-002    -3.1984407901763916     
   8.8200000000000014E-002    -2.9765794277191162     
   8.8499999999999995E-002    -2.6186816692352295     
   8.8800000000000004E-002    -2.1317286491394043     
   8.9100000000000013E-002    -1.5295203924179077     
   8.9399999999999993E-002   -0.83255451917648315     
   8.9700000000000002E-002    -6.7653059959411621E-002
   9.0000000000000011E-002    0.73393768072128296     
   9.0299999999999991E-002     1.5373253822326660     
   9.0600000000000000E-002     2.3054366111755371     
   9.0900000000000009E-002     3.0016763210296631     
   9.1200000000000017E-002     3.5914504528045654     
   9.1499999999999998E-002     4.0443301200866699     
   9.1800000000000007E-002     4.3357496261596680     
   9.2100000000000001E-002     4.4482479095458984     
   9.2399999999999996E-002     4.3731331825256348     
   9.2700000000000005E-002     4.1108541488647461     
   9.3000000000000013E-002     3.6710228919982910     
   9.3300000000000008E-002     3.0720863342285156     
   9.3600000000000003E-002     2.3401436805725098     
   9.3899999999999997E-002     1.5080370903015137     
   9.4200000000000006E-002    0.61351114511489868     
   9.4500000000000001E-002   -0.30353984236717224     
   9.4800000000000009E-002    -1.2027684450149536     
   9.5100000000000004E-002    -2.0448687076568604     
   9.5399999999999999E-002    -2.7941632270812988     
   9.5699999999999993E-002    -3.4205906391143799     
   9.6000000000000002E-002    -3.9006402492523193     
   9.6300000000000011E-002    -4.2178859710693359     
   9.6600000000000005E-002    -4.3638510704040527     
   9.6900000000000000E-002    -4.3382987976074219     
   9.7200000000000009E-002    -4.1484999656677246     
   9.7499999999999989E-002    -3.8084006309509277     
   9.7799999999999998E-002    -3.3378827571868896     
   9.8100000000000007E-002    -2.7613732814788818     
   9.8400000000000015E-002    -2.1066195964813232     
   9.8699999999999996E-002    -1.4035710096359253     
   9.9000000000000005E-002   -0.68223774433135986     
   9.9300000000000013E-002     2.8209511190652847E-002
   9.9599999999999994E-002    0.70030069351196289     
   9.9900000000000003E-002     1.3096264600753784     
  0.10020000000000001          1.8355555534362793     
  0.10049999999999999          2.2624118328094482     
  0.10080000000000000          2.5793299674987793     
  0.10110000000000001          2.7801275253295898     
  0.10140000000000000          2.8640048503875732     
  0.10170000000000000          2.8349781036376953     
  0.10200000000000001          2.7013096809387207     
  0.10230000000000002          2.4750862121582031     
  0.10260000000000000          2.1712296009063721     
  0.10290000000000001          1.8067587614059448     
  0.10320000000000000          1.4003624916076660     
  0.10350000000000001         0.97096747159957886     
  0.10380000000000000         0.53697061538696289     
  0.10410000000000001         0.11594022065401077     
  0.10440000000000001        -0.27648353576660156     
  0.10470000000000000        -0.62684327363967896     
  0.10500000000000000        -0.92461353540420532     
  0.10530000000000000         -1.1623876094818115     
  0.10560000000000000         -1.3350870609283447     
  0.10590000000000001         -1.4415076971054077     
  0.10620000000000000         -1.4833800792694092     
  0.10650000000000001         -1.4641565084457397     
  0.10679999999999999         -1.3901619911193848     
  0.10710000000000000         -1.2689154148101807     
  0.10740000000000001         -1.1087810993194580     
  0.10770000000000000        -0.91892755031585693     
  0.10800000000000000        -0.70786195993423462     
  0.10830000000000001        -0.48363673686981201     
  0.10859999999999999        -0.25349214673042297     
  0.10890000000000000         -2.3631166666746140E-002
  0.10920000000000001         0.20021574199199677     
  0.10950000000000001         0.41356962919235229     
  0.10979999999999999         0.61217164993286133     
  0.11009999999999999         0.79094415903091431     
  0.11040000000000001         0.94491600990295410     
  0.11070000000000001          1.0684615373611450     
  0.11100000000000000          1.1546934843063354     
  0.11130000000000000          1.1966571807861328     
  0.11160000000000002          1.1869528293609619     
  0.11190000000000001          1.1184484958648682     
  0.11220000000000001         0.98592573404312134     
  0.11250000000000000         0.78602170944213867     
  0.11280000000000000         0.51912271976470947     
  0.11309999999999999         0.19001013040542603     
  0.11340000000000001        -0.19264681637287140     
  0.11369999999999998        -0.61405444145202637     
  0.11400000000000000         -1.0544817447662354     
  0.11430000000000000         -1.4909543991088867     
  0.11460000000000002         -1.8962991237640381     
  0.11489999999999999         -2.2425138950347900     
  0.11520000000000001         -2.5024144649505615     
  0.11550000000000001         -2.6508514881134033     
  0.11580000000000000         -2.6684217453002930     
  0.11609999999999999         -2.5422179698944092     
  0.11640000000000002         -2.2679400444030762     
  0.11670000000000001         -1.8516476154327393     
  0.11700000000000001         -1.3079260587692261     
  0.11730000000000000        -0.66148185729980469     
  0.11760000000000000          5.4543547332286835E-002
  0.11789999999999999         0.80227655172348022     
  0.11820000000000001          1.5397601127624512     
  0.11850000000000001          2.2249181270599365     
  0.11880000000000000          2.8189456462860107     
  0.11910000000000000          3.2877535820007324     
  0.11940000000000002          3.6058716773986816     
  0.11970000000000001          3.7578392028808594     
  0.12000000000000001          3.7382190227508545     
  0.12030000000000000          3.5534381866455078     
  0.12060000000000000          3.2199583053588867     
  0.12089999999999999          2.7625842094421387     
  0.12119999999999999          2.2141473293304443     
  0.12150000000000001          1.6112461090087891     
  0.12180000000000001         0.99239361286163330     
  0.12210000000000000         0.39663484692573547     
  0.12239999999999999        -0.14152629673480988     
  0.12270000000000002        -0.59203499555587769     
  0.12300000000000001        -0.93106377124786377     
  0.12330000000000001         -1.1444417238235474     
  0.12360000000000000         -1.2259157896041870     
  0.12390000000000000         -1.1784920692443848     
  0.12419999999999999         -1.0144777297973633     
  0.12450000000000001        -0.75350958108901978     
  0.12480000000000001        -0.42324551939964294     
  0.12509999999999999         -5.5708937346935272E-002
  0.12540000000000001         0.31465217471122742     
  0.12570000000000003         0.65022665262222290     
  0.12600000000000000         0.91614609956741333     
  0.12630000000000002          1.0816282033920288     
  0.12659999999999999          1.1197086572647095     
  0.12690000000000001          1.0120778083801270     
  0.12719999999999998         0.74903887510299683     
  0.12750000000000000         0.33010277152061462     
  0.12780000000000002        -0.23441366851329803     
  0.12809999999999999        -0.92604923248291016     
  0.12840000000000001         -1.7167940139770508     
  0.12869999999999998         -2.5706298351287842     
  0.12900000000000000         -3.4479551315307617     
  0.12930000000000003         -4.3044137954711914     
  0.12959999999999999         -5.0949215888977051     
  0.12990000000000002         -5.7771053314208984     
  0.13019999999999998         -6.3103294372558594     
  0.13050000000000000         -6.6609692573547363     
  0.13080000000000003         -6.8040814399719238     
  0.13109999999999999         -6.7214217185974121     
  0.13140000000000002         -6.4059185981750488     
  0.13169999999999998         -5.8603205680847168     
  0.13200000000000001         -5.0963191986083984     
  0.13229999999999997         -4.1352686882019043     
  0.13260000000000000         -3.0039224624633789     
  0.13290000000000002         -1.7352982759475708     
  0.13319999999999999        -0.36668568849563599     
  0.13350000000000001          1.0653569698333740     
  0.13380000000000003          2.5227854251861572     
  0.13410000000000000          3.9688475131988525     
  0.13440000000000002          5.3713698387145996     
  0.13469999999999999          6.6984601020812988     
  0.13500000000000001          7.9209127426147461     
  0.13529999999999998          9.0135602951049805     
  0.13560000000000000          9.9504489898681641     
  0.13590000000000002          10.706561088562012     
  0.13619999999999999          11.259010314941406     
  0.13650000000000001          11.584160804748535     
  0.13680000000000003          11.660411834716797     
  0.13710000000000000          11.468152046203613     
  0.13740000000000002          10.991809844970703     
  0.13769999999999999          10.223476409912109     
  0.13800000000000001          9.1614379882812500     
  0.13829999999999998          7.8138270378112793     
  0.13860000000000000          6.2012815475463867     
  0.13890000000000002          4.3537349700927734     
  0.13919999999999999          2.3135657310485840     
  0.13950000000000001         0.13408249616622925     
  0.13979999999999998         -2.1250567436218262     
  0.14010000000000000         -4.3955540657043457     
  0.14040000000000002         -6.6068363189697266     
  0.14069999999999999         -8.6884031295776367     
  0.14100000000000001         -10.569872856140137     
  0.14130000000000004         -12.188125610351562     
  0.14160000000000000         -13.486694335937500     
  0.14189999999999997         -14.417431831359863     
  0.14219999999999999         -14.946333885192871     
  0.14250000000000002         -15.049231529235840     
  0.14279999999999998         -14.715996742248535     
  0.14310000000000000         -13.952967643737793     
  0.14339999999999997         -12.779337882995605     
  0.14369999999999999         -11.229221343994141     
  0.14400000000000002         -9.3516101837158203     
  0.14429999999999998         -7.2083353996276855     
  0.14460000000000001         -4.8744239807128906     
  0.14490000000000003         -2.4327492713928223     
  0.14520000000000000          2.7079463005065918E-002
  0.14550000000000002          2.4107234477996826     
  0.14579999999999999          4.6271123886108398     
  0.14610000000000001          6.5905027389526367     
  0.14640000000000003          8.2246322631835938     
  0.14670000000000000          9.4686346054077148     
  0.14699999999999996          10.278899192810059     
  0.14729999999999999          10.632260322570801     
  0.14760000000000001          10.528376579284668     
  0.14789999999999998          9.9881048202514648     
  0.14820000000000000          9.0540189743041992     