  -1.4999999999999999E-002     0.0000000000000000     
  -1.4700000000000000E-002     0.0000000000000000     
  -1.4400000000000000E-002     0.0000000000000000     
  -1.4100000000000000E-002     0.0000000000000000     
  -1.3800000000000000E-002     0.0000000000000000     
  -1.3500000000000000E-002     3.7959906382670002E-037
  -1.3200000000000000E-002     2.5594924712991591E-034
  -1.2899999999999998E-002     1.9898474497131977E-034
  -1.2600000000000000E-002    -2.0765239362643001E-031
  -1.2299999999999998E-002    -3.1414104987942697E-032
  -1.2000000000000000E-002    -3.0643209915201687E-030
  -1.1699999999999999E-002     4.3162184502532477E-028
  -1.1399999999999999E-002    -1.8594928724326593E-027
  -1.1099999999999999E-002    -3.2908146174103017E-026
  -1.0799999999999999E-002     5.6688333510087129E-025
  -1.0499999999999999E-002    -4.4259995609120185E-024
  -1.0199999999999999E-002     1.0268036001131962E-023
  -9.8999999999999991E-003     1.2214009126183827E-022
  -9.5999999999999992E-003    -1.3375519592660086E-021
  -9.2999999999999992E-003     6.9372043293449520E-021
  -8.9999999999999993E-003    -2.4553633484176270E-020
  -8.6999999999999994E-003     6.5514119768529082E-020
  -8.3999999999999995E-003    -1.2214530203521605E-019
  -8.0999999999999996E-003     9.4852251541830160E-020
  -7.7999999999999988E-003     2.3705600488486090E-019
  -7.4999999999999997E-003    -1.0349727251245641E-018
  -7.1999999999999998E-003     2.1222027922423189E-018
  -6.8999999999999981E-003    -2.1871873419354036E-018
  -6.5999999999999982E-003     2.9049590496127268E-019
  -6.3000000000000000E-003    -1.8813475261244867E-017
  -6.0000000000000001E-003     1.4508521627564511E-016
  -5.6999999999999985E-003    -4.5386577000639016E-016
  -5.3999999999999986E-003     6.2820913217164430E-016
  -5.1000000000000004E-003     5.7005963212836694E-016
  -4.7999999999999987E-003    -5.3022191502563164E-015
  -4.5000000000000005E-003     1.4587257522236975E-014
  -4.1999999999999989E-003    -2.2457299827258539E-014
  -3.8999999999999990E-003     1.0462764416787826E-014
  -3.5999999999999990E-003     4.3912474974620516E-014
  -3.2999999999999991E-003    -1.3675638312754534E-013
  -2.9999999999999992E-003     2.0070859037268907E-013
  -2.6999999999999993E-003    -1.0431634261910336E-013
  -2.3999999999999994E-003    -2.4983406185855039E-013
  -2.0999999999999977E-003     7.2365312527022940E-013
  -1.7999999999999995E-003    -8.2507882904342411E-013
  -1.4999999999999979E-003     1.3339481429175404E-015
  -1.1999999999999997E-003     1.5754408411519649E-012
  -8.9999999999999976E-004    -2.4896786021688655E-012
  -5.9999999999999810E-004     1.2097201495739340E-012
  -2.9999999999999992E-004     1.3965939949650563E-012
   0.0000000000000000         -1.4579862924607445E-012
   3.0000000000000165E-004    -4.1722341727334911E-012
   5.9999999999999984E-004     1.2956931534635618E-011
   9.0000000000000149E-004    -1.4722997127014636E-011
   1.2000000000000031E-003    -1.3679291206714073E-011
   1.5000000000000013E-003     1.2380581282389613E-010
   1.8000000000000030E-003    -3.7064085134375091E-010
   2.1000000000000012E-003     6.5763322565359772E-010
   2.3999999999999994E-003    -5.4149723593965859E-010
   2.7000000000000010E-003    -8.8484619631401529E-010
   2.9999999999999992E-003     5.6303743889429825E-009
   3.3000000000000008E-003    -1.6241820333107171E-008
   3.6000000000000025E-003     2.1247490877840391E-008
   3.9000000000000007E-003     3.6533634784063906E-008
   4.2000000000000023E-003    -1.9937442630180158E-007
   4.5000000000000005E-003     1.7460104118072195E-007
   4.7999999999999987E-003     6.5200418930544402E-007
   5.1000000000000004E-003    -1.3544585044655832E-006
   5.4000000000000020E-003    -1.7782118675313541E-006
   5.7000000000000037E-003     4.8143251660803799E-006
   5.9999999999999984E-003     5.5546697694808245E-006
   6.3000000000000000E-003    -1.2304109986871481E-005
   6.6000000000000017E-003    -1.8797345546772704E-005
   6.9000000000000034E-003     3.0423792850342579E-005
   7.2000000000000015E-003     1.1384859681129456E-004
   7.5000000000000032E-003     1.6417223378084600E-004
   7.8000000000000014E-003     1.8717988859862089E-004
   8.0999999999999996E-003     2.7850395417772233E-004
   8.4000000000000012E-003     4.9841258442029357E-004
   8.7000000000000029E-003     8.1372522981837392E-004
   9.0000000000000011E-003     1.2080949964001775E-003
   9.2999999999999992E-003     1.7874002223834395E-003
   9.6000000000000009E-003     2.7109503280371428E-003
   9.8999999999999991E-003     4.0717739611864090E-003
   1.0200000000000001E-002     5.9521365910768509E-003
   1.0500000000000002E-002     8.5707372054457664E-003
   1.0800000000000004E-002     1.2249466963112354E-002
   1.1099999999999999E-002     1.7261214554309845E-002
   1.1400000000000000E-002     2.3867892101407051E-002
   1.1700000000000002E-002     3.2484639436006546E-002
   1.2000000000000004E-002     4.3622609227895737E-002
   1.2300000000000002E-002     5.7672459632158279E-002
   1.2600000000000000E-002     7.4900105595588684E-002
   1.2900000000000002E-002     9.5587238669395447E-002
   1.3200000000000000E-002    0.11991810053586960     
   1.3500000000000002E-002    0.14767448604106903     
   1.3800000000000003E-002    0.17815506458282471     
   1.4100000000000001E-002    0.21028995513916016     
   1.4400000000000000E-002    0.24254411458969116     
   1.4700000000000001E-002    0.27260634303092957     
   1.4999999999999999E-002    0.29733267426490784     
   1.5300000000000001E-002    0.31305125355720520     
   1.5600000000000003E-002    0.31568843126296997     
   1.5899999999999997E-002    0.30065098404884338     
   1.6199999999999999E-002    0.26311579346656799     
   1.6500000000000001E-002    0.19878341257572174     
   1.6800000000000002E-002    0.10439080744981766     
   1.7100000000000004E-002    -2.2081762552261353E-002
   1.7400000000000006E-002   -0.18091796338558197     
   1.7700000000000000E-002   -0.36992555856704712     
   1.8000000000000002E-002   -0.58400303125381470     
   1.8300000000000004E-002   -0.81516158580780029     
   1.8600000000000005E-002    -1.0526748895645142     
   1.8900000000000000E-002    -1.2832700014114380     
   1.9200000000000002E-002    -1.4917011260986328     
   1.9500000000000003E-002    -1.6618309020996094     
   1.9799999999999998E-002    -1.7779753208160400     
   2.0100000000000000E-002    -1.8260308504104614     
   2.0400000000000001E-002    -1.7945564985275269     
   2.0700000000000003E-002    -1.6762036085128784     
   2.0999999999999998E-002    -1.4690170288085938     
   2.1299999999999999E-002    -1.1767500638961792     
   2.1600000000000001E-002   -0.80875092744827271     
   2.1900000000000003E-002   -0.37998580932617188     
   2.2200000000000004E-002     8.9648962020874023E-002
   2.2500000000000006E-002    0.57681405544281006     
   2.2800000000000001E-002     1.0563075542449951     
   2.3100000000000002E-002     1.5023758411407471     
   2.3400000000000004E-002     1.8904095888137817     
   2.3699999999999999E-002     2.1988661289215088     
   2.4000000000000000E-002     2.4104444980621338     
   2.4300000000000002E-002     2.5126457214355469     
   2.4599999999999997E-002     2.4985241889953613     
   2.4900000000000005E-002     2.3671956062316895     
   2.5200000000000000E-002     2.1236236095428467     
   2.5499999999999995E-002     1.7779740095138550     
   2.5800000000000003E-002     1.3451589345932007     
   2.6099999999999998E-002    0.84458446502685547     
   2.6400000000000007E-002    0.29950684309005737     
   2.6700000000000002E-002   -0.26407992839813232     
   2.6999999999999996E-002   -0.81806355714797974     
   2.7300000000000005E-002    -1.3327652215957642     
   2.7600000000000000E-002    -1.7781224250793457     
   2.7900000000000008E-002    -2.1253824234008789     
   2.8200000000000003E-002    -2.3482680320739746     
   2.8499999999999998E-002    -2.4240331649780273     
   2.8800000000000006E-002    -2.3355216979980469     
   2.9100000000000001E-002    -2.0732891559600830     
   2.9400000000000003E-002    -1.6363521814346313     
   2.9700000000000004E-002    -1.0327546596527100     
   3.0000000000000006E-002   -0.28063264489173889     
   3.0300000000000001E-002    0.59174841642379761     
   3.0600000000000002E-002     1.5477735996246338     
   3.0900000000000004E-002     2.5443155765533447     
   3.1199999999999999E-002     3.5331282615661621     
   3.1500000000000007E-002     4.4634256362915039     
   3.1800000000000002E-002     5.2856740951538086     
   3.2099999999999997E-002     5.9542522430419922     
   3.2400000000000005E-002     6.4294881820678711     
   3.2700000000000000E-002     6.6801681518554688     
   3.3000000000000002E-002     6.6854801177978516     
   3.3300000000000003E-002     6.4360208511352539     
   3.3599999999999998E-002     5.9339895248413086     
   3.3900000000000000E-002     5.1930088996887207     
   3.4200000000000001E-002     4.2375988960266113     
   3.4500000000000003E-002     3.1020104885101318     
   3.4799999999999998E-002     1.8285057544708252     
   3.5099999999999999E-002    0.46493238210678101     
   3.5400000000000001E-002   -0.93725186586380005     
   3.5699999999999996E-002    -2.3255145549774170     
   3.6000000000000004E-002    -3.6495776176452637     
   3.6299999999999999E-002    -4.8645715713500977     
   3.6600000000000008E-002    -5.9334955215454102     
   3.6900000000000002E-002    -6.8294024467468262     
   3.7199999999999997E-002    -7.5382418632507324     
   3.7500000000000006E-002    -8.0599861145019531     
   3.7800000000000000E-002    -8.4074621200561523     
   3.8100000000000009E-002    -8.6053361892700195     
   3.8400000000000004E-002    -8.6877193450927734     
   3.8699999999999998E-002    -8.6933631896972656     
   3.9000000000000007E-002    -8.6602258682250977     
   3.9300000000000002E-002    -8.6205759048461914     
   3.9600000000000003E-002    -8.5956878662109375     
   3.9900000000000005E-002    -8.5907039642333984     
   4.0200000000000000E-002    -8.5920209884643555     
   4.0500000000000001E-002    -8.5668983459472656     
   4.0800000000000003E-002    -8.4653787612915039     
   4.1100000000000005E-002    -8.2248611450195312     
   4.1399999999999999E-002    -7.7762184143066406     
   4.1700000000000008E-002    -7.0517640113830566     
   4.2000000000000003E-002    -5.9954915046691895     
   4.2299999999999997E-002    -4.5718593597412109     
   4.2600000000000006E-002    -2.7718617916107178     
   4.2900000000000001E-002   -0.61787551641464233     
   4.3200000000000002E-002     1.8330161571502686     
   4.3500000000000004E-002     4.4906883239746094     
   4.3799999999999999E-002     7.2382545471191406     
   4.4100000000000000E-002     9.9397411346435547     
   4.4400000000000002E-002     12.449461936950684     
   4.4700000000000004E-002     14.624131202697754     
   4.4999999999999998E-002     16.334260940551758     
   4.5300000000000000E-002     17.474702835083008     
   4.5600000000000002E-002     17.973299026489258     
   4.5899999999999996E-002     17.795860290527344     
   4.6200000000000005E-002     16.948848724365234     
   4.6500000000000000E-002     15.478923797607422     
   4.6799999999999994E-002     13.468750000000000     
   4.7100000000000003E-002     11.030613899230957     
   4.7399999999999998E-002     8.2980928421020508     
   4.7700000000000006E-002     5.4169034957885742     
   4.8000000000000001E-002     2.5354492664337158     
   4.8300000000000010E-002   -0.20488969981670380     
   4.8600000000000004E-002    -2.6776256561279297     
   4.8899999999999999E-002    -4.7783808708190918     
   4.9200000000000008E-002    -6.4289631843566895     
   4.9500000000000002E-002    -7.5804138183593750     
   4.9800000000000011E-002    -8.2156600952148438     
   5.0100000000000006E-002    -8.3476409912109375     
   5.0400000000000000E-002    -8.0156745910644531     
   5.0700000000000009E-002    -7.2831230163574219     
   5.1000000000000004E-002    -6.2323627471923828     
   5.1299999999999998E-002    -4.9571599960327148     
   5.1600000000000007E-002    -3.5569224357604980     
   5.1900000000000002E-002    -2.1312818527221680     
   5.2200000000000010E-002   -0.77280890941619873     
   5.2500000000000005E-002    0.43894618749618530     
   5.2800000000000000E-002     1.4406088590621948     
   5.3099999999999994E-002     2.1874279975891113     
   5.3400000000000003E-002     2.6566846370697021     
   5.3699999999999998E-002     2.8472130298614502     
   5.4000000000000006E-002     2.7760562896728516     
   5.4300000000000001E-002     2.4770369529724121     
   5.4599999999999996E-002     1.9970618486404419     
   5.4900000000000004E-002     1.3907397985458374     
   5.5199999999999999E-002    0.71561104059219360     
   5.5499999999999994E-002     2.7011882513761520E-002
   5.5800000000000002E-002   -0.62621176242828369     
   5.6099999999999997E-002    -1.2044131755828857     
   5.6400000000000006E-002    -1.6797248125076294     
   5.6700000000000000E-002    -2.0378379821777344     
   5.6999999999999995E-002    -2.2775838375091553     
   5.7300000000000004E-002    -2.4086508750915527     
   5.7599999999999998E-002    -2.4494733810424805     
   5.7900000000000007E-002    -2.4254212379455566     
   5.8200000000000002E-002    -2.3654639720916748     
   5.8499999999999996E-002    -2.2981150150299072     
   5.8800000000000005E-002    -2.2496402263641357     
   5.9100000000000000E-002    -2.2423789501190186     
   5.9400000000000008E-002    -2.2930915355682373     
   5.9700000000000003E-002    -2.4130463600158691     
   6.0000000000000012E-002    -2.6071786880493164     
   6.0300000000000006E-002    -2.8745312690734863     
   6.0600000000000001E-002    -3.2094638347625732     
   6.0900000000000010E-002    -3.6015188694000244     
   6.1200000000000004E-002    -4.0359520912170410     
   6.1500000000000013E-002    -4.4944257736206055     
   6.1800000000000008E-002    -4.9551281929016113     
   6.2100000000000002E-002    -5.3936533927917480     
   6.2399999999999997E-002    -5.7849011421203613     
   6.2700000000000006E-002    -6.1043300628662109     
   6.3000000000000000E-002    -6.3299107551574707     
   6.3300000000000009E-002    -6.4443020820617676     
   6.3600000000000004E-002    -6.4378390312194824     
   6.3899999999999998E-002    -6.3104267120361328     
   6.4199999999999993E-002    -6.0707936286926270     
   6.4500000000000002E-002    -5.7357306480407715     
   6.4800000000000010E-002    -5.3279538154602051     
   6.5100000000000005E-002    -4.8702759742736816     
   6.5400000000000000E-002    -4.3803515434265137     
   6.5700000000000008E-002    -3.8638908863067627     
   6.5999999999999989E-002    -3.3084642887115479     
   6.6299999999999998E-002    -2.6797709465026855     
   6.6600000000000006E-002    -1.9201891422271729     
   6.6900000000000001E-002   -0.95162272453308105     
   6.7199999999999996E-002    0.31780853867530823     
   6.7500000000000004E-002     1.9828079938888550     
   6.7800000000000013E-002     4.1263613700866699     
   6.8099999999999994E-002     6.8034925460815430     
   6.8400000000000002E-002     10.025749206542969     
   6.8700000000000011E-002     13.747281074523926     
   6.8999999999999992E-002     17.855594635009766     
   6.9300000000000000E-002     22.169115066528320     
   6.9600000000000009E-002     26.441513061523438     
   6.9900000000000004E-002     30.375167846679688     
   7.0199999999999999E-002     33.640331268310547     
   7.0500000000000007E-002     35.901084899902344     
   7.0800000000000016E-002     36.846401214599609     
   7.1099999999999997E-002     36.220085144042969     
   7.1400000000000005E-002     33.849128723144531     
   7.1700000000000000E-002     29.667062759399414     
   7.1999999999999995E-002     23.729026794433594     
   7.2300000000000003E-002     16.217458724975586     
   7.2600000000000012E-002     7.4375853538513184     
   7.2900000000000006E-002    -2.1990756988525391     
   7.3200000000000001E-002    -12.201801300048828     
   7.3499999999999996E-002    -22.033662796020508     
   7.3800000000000004E-002    -31.148725509643555     
   7.4099999999999999E-002    -39.031936645507812     
   7.4400000000000008E-002    -45.238605499267578     
   7.4700000000000003E-002    -49.426532745361328     
   7.5000000000000011E-002    -51.378604888916016     
   7.5299999999999992E-002    -51.019229888916016     
   7.5600000000000001E-002    -48.416606903076172     
   7.5900000000000009E-002    -43.773872375488281     
   7.6200000000000004E-002    -37.412055969238281     
   7.6499999999999999E-002    -29.741893768310547     
   7.6800000000000007E-002    -21.231676101684570     
   7.7099999999999988E-002    -12.372126579284668     
   7.7399999999999997E-002    -3.6424150466918945     
   7.7700000000000005E-002     4.5216789245605469     
   7.8000000000000014E-002     11.754288673400879     
   7.8299999999999995E-002     17.776573181152344     
   7.8600000000000003E-002     22.406446456909180     
   7.8900000000000012E-002     25.561492919921875     
   7.9199999999999993E-002     27.252927780151367     
   7.9500000000000001E-002     27.573627471923828     
   7.9800000000000010E-002     26.681692123413086     
   8.0100000000000018E-002     24.782531738281250     
   8.0399999999999999E-002     22.109786987304688     
   8.0700000000000008E-002     18.907081604003906     
   8.1000000000000003E-002     15.410607337951660     
   8.1299999999999997E-002     11.836866378784180     
   8.1600000000000006E-002     8.3743696212768555     
   8.1900000000000014E-002     5.1755738258361816     
   8.2199999999999995E-002     2.3534018993377686     
   8.2500000000000004E-002    -1.8227480351924896E-002
   8.2799999999999999E-002    -1.9016126394271851     
   8.3100000000000007E-002    -3.2937126159667969     
   8.3400000000000002E-002    -4.2199802398681641     
   8.3700000000000011E-002    -4.7277007102966309     
   8.4000000000000005E-002    -4.8804874420166016     
   8.4300000000000000E-002    -4.7518830299377441     
   8.4599999999999995E-002    -4.4182152748107910     
   8.4900000000000003E-002    -3.9526062011718750     
   8.5199999999999998E-002    -3.4216873645782471     
   8.5500000000000007E-002    -2.8806478977203369     
   8.5800000000000001E-002    -2.3704729080200195     
   8.6100000000000010E-002    -1.9188379049301147     
   8.6399999999999991E-002    -1.5399731397628784     
   8.6699999999999999E-002    -1.2363706827163696     
   8.7000000000000008E-002    -1.0023553371429443     
   8.7300000000000003E-002   -0.82636070251464844     
   8.7599999999999997E-002   -0.69459760189056396     
   8.7900000000000006E-002   -0.59350907802581787     
   8.8200000000000014E-002   -0.51251924037933350     
   8.8499999999999995E-002   -0.44423246383666992     
   8.8800000000000004E-002   -0.38464835286140442     
   8.9100000000000013E-002   -0.33327046036720276     
   8.9399999999999993E-002   -0.29121202230453491     
   8.9700000000000002E-002   -0.26038509607315063     
   9.0000000000000011E-002   -0.24234460294246674     
   9.0299999999999991E-002   -0.23712974786758423     
   9.0600000000000000E-002   -0.24273501336574554     
   9.0900000000000009E-002   -0.25652521848678589     
   9.1200000000000017E-002   -0.27507215738296509     
   9.1499999999999998E-002   -0.29366859793663025     
   9.1800000000000007E-002   -0.30897739529609680     
   9.2100000000000001E-002   -0.31931370496749878     
   9.2399999999999996E-002   -0.32366445660591125     
   9.2700000000000005E-002   -0.32216858863830566     
   9.3000000000000013E-002   -0.31670248508453369     
   9.3300000000000008E-002   -0.30957090854644775     
   9.3600000000000003E-002   -0.30173441767692566     
   9.3899999999999997E-002   -0.29341793060302734     
   9.4200000000000006E-002   -0.28401476144790649     
   9.4500000000000001E-002   -0.27159512042999268     
   9.4800000000000009E-002   -0.25390866398811340     
   9.5100000000000004E-002   -0.22816018760204315     
   9.5399999999999999E-002   -0.19209407269954681     
   9.5699999999999993E-002   -0.14500887691974640     
   9.6000000000000002E-002    -8.8423877954483032E-002
   9.6300000000000011E-002    -2.5048781186342239E-002
   9.6600000000000005E-002     4.1137304157018661E-002
   9.6900000000000000E-002    0.10454359650611877     
   9.7200000000000009E-002    0.15965582430362701     
   9.7499999999999989E-002    0.20207609236240387     
   9.7799999999999998E-002    0.22865656018257141     
   9.8100000000000007E-002    0.23816509544849396     
   9.8400000000000015E-002    0.23186841607093811     
   9.8699999999999996E-002    0.21263623237609863     
   9.9000000000000005E-002    0.18432442843914032     
   9.9300000000000013E-002    0.15217801928520203     
   9.9599999999999994E-002    0.12096769362688065     
   9.9900000000000003E-002     9.4253815710544586E-002
  0.10020000000000001          7.4243851006031036E-002
  0.10049999999999999          6.2154509127140045E-002
  0.10080000000000000          5.7194184511899948E-002
  0.10110000000000001          5.6724768131971359E-002
  0.10140000000000000          5.8783788233995438E-002
  0.10170000000000000          6.1288088560104370E-002
  0.10200000000000001          6.1935786157846451E-002
  0.10230000000000002          5.9803195297718048E-002
  0.10260000000000000          5.5262498557567596E-002
  0.10290000000000001          4.9771688878536224E-002
  0.10320000000000000          4.4672284275293350E-002
  0.10350000000000001          4.2277202010154724E-002
  0.10380000000000000          4.4904053211212158E-002
  0.10410000000000001          5.3338706493377686E-002
  0.10440000000000001          6.7359969019889832E-002
  0.10470000000000000          8.5845887660980225E-002
  0.10500000000000000         0.10670137405395508     
  0.10530000000000000         0.12655076384544373     
  0.10560000000000000         0.14143051207065582     
  0.10590000000000001         0.14847579598426819     
  0.10620000000000000         0.14521338045597076     
  0.10650000000000001         0.12980286777019501     
  0.10679999999999999         0.10208193212747574     
  0.10710000000000000          6.4748048782348633E-002
  0.10740000000000001          2.1548679098486900E-002
  0.10770000000000000         -2.3460574448108673E-002
  0.10800000000000000         -6.4987339079380035E-002
  0.10830000000000001         -9.7100645303726196E-002
  0.10859999999999999        -0.11540610343217850     
  0.10890000000000000        -0.11750683933496475     
  0.10920000000000001        -0.10216445475816727     
  0.10950000000000001         -7.0681184530258179E-002
  0.10979999999999999         -2.7403799816966057E-002
  0.11009999999999999          2.1756848320364952E-002
  0.11040000000000001          6.9947406649589539E-002
  0.11070000000000001         0.10985766351222992     
  0.11100000000000000         0.13423174619674683     
  0.11130000000000000         0.13824127614498138     
  0.11160000000000002         0.11973472684621811     
  0.11190000000000001          7.9496234655380249E-002
  0.11220000000000001          2.2100493311882019E-002
  0.11250000000000000         -4.4975373893976212E-002
  0.11280000000000000        -0.11201518028974533     
  0.11309999999999999        -0.16843348741531372     
  0.11340000000000001        -0.20473974943161011     
  0.11369999999999998        -0.21343187987804413     
  0.11400000000000000        -0.19088219106197357     
  0.11430000000000000        -0.13801464438438416     
  0.11460000000000002         -6.1646036803722382E-002
  0.11489999999999999          2.7185481041669846E-002
  0.11520000000000001         0.11426969617605209     
  0.11550000000000001         0.18344245851039886     
  0.11580000000000000         0.21942514181137085     
  0.11609999999999999         0.21043603122234344     
  0.11640000000000002         0.15090061724185944     
  0.11670000000000001          4.2275026440620422E-002
  0.11700000000000001        -0.10582140088081360     
  0.11730000000000000        -0.27598395943641663     
  0.11760000000000000        -0.44522404670715332     
  0.11789999999999999        -0.58647322654724121     
  0.11820000000000001        -0.67291766405105591     
  0.11850000000000001        -0.68261051177978516     
  0.11880000000000000        -0.60101294517517090     
  0.11910000000000000        -0.42355492711067200     
  0.11940000000000002        -0.15803018212318420     
  0.11970000000000001         0.17525003850460052     
  0.12000000000000001         0.54572606086730957     
  0.12030000000000000         0.91551142930984497     
  0.12060000000000000          1.2429481744766235     
  0.12089999999999999          1.4879145622253418     
  0.12119999999999999          1.6164565086364746     
  0.12150000000000001          1.6054416894912720     
  0.12180000000000001          1.4452189207077026     
  0.12210000000000000          1.1413449048995972     
  0.12239999999999999         0.71348041296005249     
  0.12270000000000002         0.19453617930412292     
  0.12300000000000001        -0.37307691574096680     
  0.12330000000000001        -0.94182205200195312     
  0.12360000000000000         -1.4633942842483521     
  0.12390000000000000         -1.8939881324768066     
  0.12419999999999999         -2.1980636119842529     
  0.12450000000000001         -2.3513932228088379     
  0.12480000000000001         -2.3421304225921631     
  0.12509999999999999         -2.1723968982696533     
  0.12540000000000001         -1.8574380874633789     
  0.12570000000000003         -1.4220292568206787     
  0.12600000000000000        -0.89927995204925537     
  0.12630000000000002        -0.32804596424102783     
  0.12659999999999999         0.25142318010330200     
  0.12690000000000001         0.80048483610153198     
  0.12719999999999998          1.2848734855651855     
  0.12750000000000000          1.6758745908737183     
  0.12780000000000002          1.9534317255020142     
  0.12809999999999999          2.1063232421875000     
  0.12840000000000001          2.1313803195953369     
  0.12869999999999998          2.0349168777465820     
  0.12900000000000000          1.8305829763412476     
  0.12930000000000003          1.5379552841186523     
  0.12959999999999999          1.1810747385025024     
  0.12990000000000002         0.78665626049041748     
  0.13019999999999998         0.38155135512351990     
  0.13050000000000000         -9.1695841401815414E-003
  0.13080000000000003        -0.36335688829421997     
  0.13109999999999999        -0.66345918178558350     
  0.13140000000000002        -0.89744424819946289     
  0.13169999999999998         -1.0587375164031982     
  0.13200000000000001         -1.1460841894149780     
  0.13229999999999997         -1.1638748645782471     
  0.13260000000000000         -1.1201251745223999     
  0.13290000000000002         -1.0252681970596313     
  0.13319999999999999        -0.89205461740493774     
  0.13350000000000001        -0.73335868120193481     
  0.13380000000000003        -0.56130057573318481     
  0.13410000000000000        -0.38717982172966003     
  0.13440000000000002        -0.22043268382549286     
  0.13469999999999999         -6.8383745849132538E-002
  0.13500000000000001          6.3540406525135040E-002
  0.13529999999999998         0.17130134999752045     
  0.13560000000000000         0.25342416763305664     
  0.13590000000000002         0.30976265668869019     
  0.13619999999999999         0.34051966667175293     
  0.13650000000000001         0.34789642691612244     
  0.13680000000000003         0.33516836166381836     
  0.13710000000000000         0.30605179071426392     
  0.13740000000000002         0.26470303535461426     
  0.13769999999999999         0.21599400043487549     
  0.13800000000000001         0.16465139389038086     
  0.13829999999999998         0.11444217711687088     
  0.13860000000000000          6.9394707679748535E-002
  0.13890000000000002          3.2018885016441345E-002
  0.13919999999999999          3.0429658945649862E-003
  0.13950000000000001         -1.6900554299354553E-002
  0.13979999999999998         -2.8002871200442314E-002
  0.14010000000000000         -3.2214097678661346E-002
  0.14040000000000002         -3.1627483665943146E-002
  0.14069999999999999         -2.7676105499267578E-002
  0.14100000000000001         -2.1835472434759140E-002
  0.14130000000000004         -1.5171927399933338E-002
  0.14160000000000000         -8.2316547632217407E-003
  0.14189999999999997         -9.1448955936357379E-004
  0.14219999999999999          6.8791019730269909E-003
  0.14250000000000002          1.5138539485633373E-002
  0.14279999999999998          2.4267936125397682E-002
  0.14310000000000000          3.3420965075492859E-002
  0.14339999999999997          4.1671875864267349E-002
  0.14369999999999999          4.8248108476400375E-002
  0.14400000000000002          5.1567077636718750E-002
  0.14429999999999998          5.0340101122856140E-002
  0.14460000000000001          4.3799910694360733E-002
  0.14490000000000003          3.2168742269277573E-002
  0.14520000000000000          1.6484277322888374E-002
  0.14550000000000002         -2.0661111921072006E-003
  0.14579999999999999         -2.1213356405496597E-002
  0.14610000000000001         -3.8904547691345215E-002
  0.14640000000000003         -5.2868783473968506E-002
  0.14670000000000000         -6.1558607965707779E-002
  0.14699999999999996         -6.4431726932525635E-002
  0.14729999999999999         -6.1684489250183105E-002
  0.14760000000000001         -5.4578065872192383E-002
  0.14789999999999998         -4.4512663036584854E-002
  0.14820000000000000         -3.3301591873168945E-002