  -1.4999999999999999E-002     0.0000000000000000     
  -1.4700000000000000E-002     0.0000000000000000     
  -1.4400000000000000E-002     0.0000000000000000     
  -1.4100000000000000E-002     0.0000000000000000     
  -1.3800000000000000E-002     0.0000000000000000     
  -1.3500000000000000E-002     3.8545339734056853E-037
  -1.3200000000000000E-002     1.8781152480393193E-035
  -1.2899999999999998E-002     8.8075420337496883E-033
  -1.2600000000000000E-002     6.3552814081091023E-032
  -1.2299999999999998E-002    -3.0840345019811988E-030
  -1.2000000000000000E-002     4.1424872312808128E-030
  -1.1699999999999999E-002    -3.4593243706733106E-029
  -1.1399999999999999E-002     2.7326765758157830E-027
  -1.1099999999999999E-002    -2.7803142603972069E-027
  -1.0799999999999999E-002    -4.2621612367218928E-025
  -1.0499999999999999E-002     5.2777303136964293E-024
  -1.0199999999999999E-002    -2.6493596890147318E-023
  -9.8999999999999991E-003    -1.4362231987838065E-023
  -9.5999999999999992E-003     1.0649431379253468E-021
  -9.2999999999999992E-003    -7.5088822600535607E-021
  -8.9999999999999993E-003     3.0985487812594575E-020
  -8.6999999999999994E-003    -9.1723427950151262E-020
  -8.3999999999999995E-003     2.1270515181979516E-019
  -8.0999999999999996E-003    -3.7990197996300810E-019
  -7.7999999999999988E-003     4.1449007198781839E-019
  -7.4999999999999997E-003     1.2660940193070868E-019
  -7.1999999999999998E-003    -1.4805762652753755E-018
  -6.8999999999999981E-003     1.6231166488159727E-018
  -6.5999999999999982E-003     5.3724619779155599E-018
  -6.3000000000000000E-003    -6.8054233489881220E-018
  -6.0000000000000001E-003    -1.1702143978122384E-016
  -5.6999999999999985E-003     6.3983354764196631E-016
  -5.3999999999999986E-003    -1.5455062681973266E-015
  -5.1000000000000004E-003     1.2828417747702417E-015
  -4.7999999999999987E-003     4.3117030569018739E-015
  -4.5000000000000005E-003    -2.0228886586106352E-014
  -4.1999999999999989E-003     4.4379217233611948E-014
  -3.8999999999999990E-003    -5.4610050476914390E-014
  -3.5999999999999990E-003     4.6265396976821402E-015
  -3.2999999999999991E-003     1.4767421768931144E-013
  -2.9999999999999992E-003    -3.7303325576068525E-013
  -2.6999999999999993E-003     5.0202333609639105E-013
  -2.3999999999999994E-003    -2.4489869225423344E-013
  -2.0999999999999977E-003    -5.8904666084061419E-013
  -1.7999999999999995E-003     1.6908500424447914E-012
  -1.4999999999999979E-003    -2.0359850957940573E-012
  -1.1999999999999997E-003     5.3700988968119479E-013
  -8.9999999999999976E-004     2.3121209807852594E-012
  -5.9999999999999810E-004    -3.7506261117703499E-012
  -2.9999999999999992E-004     1.7937840882803480E-012
   0.0000000000000000          3.9439065620087976E-013
   3.0000000000000165E-004     2.5217922368370171E-012
   5.9999999999999984E-004    -6.5520453645939725E-012
   9.0000000000000149E-004    -2.5661894484385606E-012
   1.2000000000000031E-003     2.0143296752817008E-011
   1.5000000000000013E-003     1.2718199757233428E-011
   1.8000000000000030E-003    -1.9464858891371506E-010
   2.1000000000000012E-003     6.2714544668551753E-010
   2.3999999999999994E-003    -1.3873672211062171E-009
   2.7000000000000010E-003     1.6908878741617173E-009
   2.9999999999999992E-003     3.6283940296755191E-009
   3.3000000000000008E-003    -2.5680245485659725E-008
   3.6000000000000025E-003     5.5370513507568830E-008
   3.9000000000000007E-003     3.8464964546847114E-009
   4.2000000000000023E-003    -2.8949961006219382E-007
   4.5000000000000005E-003     5.0723161848509335E-007
   4.7999999999999987E-003     4.3854129216924775E-007
   5.1000000000000004E-003    -2.4123307866830146E-006
   5.4000000000000020E-003     3.3564421642040543E-007
   5.7000000000000037E-003     7.3260166573163588E-006
   5.9999999999999984E-003    -1.4880132539474289E-006
   6.3000000000000000E-003    -2.1039273633505218E-005
   6.6000000000000017E-003    -6.7017645051237196E-006
   6.9000000000000034E-003     7.7820484875701368E-005
   7.2000000000000015E-003     2.2235423966776580E-004
   7.5000000000000032E-003     3.9377849316224456E-004
   7.8000000000000014E-003     5.8287905994802713E-004
   8.0999999999999996E-003     8.2107831258326769E-004
   8.4000000000000012E-003     1.1961112031713128E-003
   8.7000000000000029E-003     1.8332996405661106E-003
   9.0000000000000011E-003     2.8441457543522120E-003
   9.2999999999999992E-003     4.3522277846932411E-003
   9.6000000000000009E-003     6.5298643894493580E-003
   9.8999999999999991E-003     9.6116326749324799E-003
   1.0200000000000001E-002     1.3944807462394238E-002
   1.0500000000000002E-002     1.9986866042017937E-002
   1.0800000000000004E-002     2.8253100812435150E-002
   1.1099999999999999E-002     3.9306495338678360E-002
   1.1400000000000000E-002     5.3793605417013168E-002
   1.1700000000000002E-002     7.2425037622451782E-002
   1.2000000000000004E-002     9.5847070217132568E-002
   1.2300000000000002E-002    0.12456582486629486     
   1.2600000000000000E-002    0.15887863934040070     
   1.2900000000000002E-002    0.19867305457592010     
   1.3200000000000000E-002    0.24319612979888916     
   1.3500000000000002E-002    0.29083737730979919     
   1.3800000000000003E-002    0.33892142772674561     
   1.4100000000000001E-002    0.38353034853935242     
   1.4400000000000000E-002    0.41928198933601379     
   1.4700000000000001E-002    0.43930438160896301     
   1.4999999999999999E-002    0.43534979224205017     
   1.5300000000000001E-002    0.39808395504951477     
   1.5600000000000003E-002    0.31754440069198608     
   1.5899999999999997E-002    0.18384818732738495     
   1.6199999999999999E-002    -1.1708223260939121E-002
   1.6500000000000001E-002   -0.27538585662841797     
   1.6800000000000002E-002   -0.60968261957168579     
   1.7100000000000004E-002    -1.0119138956069946     
   1.7400000000000006E-002    -1.4729634523391724     
   1.7700000000000000E-002    -1.9764496088027954     
   1.8000000000000002E-002    -2.4982526302337646     
   1.8300000000000004E-002    -3.0068495273590088     
   1.8600000000000005E-002    -3.4642946720123291     
   1.8900000000000000E-002    -3.8280971050262451     
   1.9200000000000002E-002    -4.0541586875915527     
   1.9500000000000003E-002    -4.1001906394958496     
   1.9799999999999998E-002    -3.9296088218688965     
   2.0100000000000000E-002    -3.5157749652862549     
   2.0400000000000001E-002    -2.8454544544219971     
   2.0700000000000003E-002    -1.9220348596572876     
   2.0999999999999998E-002   -0.76739013195037842     
   2.1299999999999999E-002    0.57797729969024658     
   2.1600000000000001E-002     2.0558376312255859     
   2.1900000000000003E-002     3.5931577682495117     
   2.2200000000000004E-002     5.1067571640014648     
   2.2500000000000006E-002     6.5086836814880371     
   2.2800000000000001E-002     7.7127037048339844     
   2.3100000000000002E-002     8.6405172348022461     
   2.3400000000000004E-002     9.2278404235839844     
   2.3699999999999999E-002     9.4294729232788086     
   2.4000000000000000E-002     9.2223501205444336     
   2.4300000000000002E-002     8.6075592041015625     
   2.4599999999999997E-002     7.6099743843078613     
   2.4900000000000005E-002     6.2762427330017090     
   2.5200000000000000E-002     4.6713438034057617     
   2.5499999999999995E-002     2.8742055892944336     
   2.5800000000000003E-002    0.97170472145080566     
   2.6099999999999998E-002   -0.94573533535003662     
   2.6400000000000007E-002    -2.7898590564727783     
   2.6700000000000002E-002    -4.4795012474060059     
   2.6999999999999996E-002    -5.9426512718200684     
   2.7300000000000005E-002    -7.1210341453552246     
   2.7600000000000000E-002    -7.9708929061889648     
   2.7900000000000008E-002    -8.4637975692749023     
   2.8200000000000003E-002    -8.5881347656250000     
   2.8499999999999998E-002    -8.3470315933227539     
   2.8800000000000006E-002    -7.7597985267639160     
   2.9100000000000001E-002    -6.8601002693176270     
   2.9400000000000003E-002    -5.6941947937011719     
   2.9700000000000004E-002    -4.3209762573242188     
   3.0000000000000006E-002    -2.8078718185424805     
   3.0300000000000001E-002    -1.2295027971267700     
   3.0600000000000002E-002    0.33563160896301270     
   3.0900000000000004E-002     1.8098821640014648     
   3.1199999999999999E-002     3.1189684867858887     
   3.1500000000000007E-002     4.1974134445190430     
   3.1800000000000002E-002     4.9921283721923828     
   3.2099999999999997E-002     5.4655394554138184     
   3.2400000000000005E-002     5.5985584259033203     
   3.2700000000000000E-002     5.3914356231689453     
   3.3000000000000002E-002     4.8637752532958984     
   3.3300000000000003E-002     4.0527915954589844     
   3.3599999999999998E-002     3.0102636814117432     
   3.3900000000000000E-002     1.7982017993927002     
   3.4200000000000001E-002    0.48435968160629272     
   3.4500000000000003E-002   -0.86372458934783936     
   3.4799999999999998E-002    -2.1829602718353271     
   3.5099999999999999E-002    -3.4187276363372803     
   3.5400000000000001E-002    -4.5285744667053223     
   3.5699999999999996E-002    -5.4823460578918457     
   3.6000000000000004E-002    -6.2632555961608887     
   3.6299999999999999E-002    -6.8659572601318359     
   3.6600000000000008E-002    -7.2927069664001465     
   3.6900000000000002E-002    -7.5515666007995605     
   3.7199999999999997E-002    -7.6507110595703125     
   3.7500000000000006E-002    -7.5960474014282227     
   3.7800000000000000E-002    -7.3883581161499023     
   3.8100000000000009E-002    -7.0205488204956055     
   3.8400000000000004E-002    -6.4801845550537109     
   3.8699999999999998E-002    -5.7485876083374023     
   3.9000000000000007E-002    -4.8049921989440918     
   3.9300000000000002E-002    -3.6313426494598389     
   3.9600000000000003E-002    -2.2156095504760742     
   3.9900000000000005E-002   -0.55779284238815308     
   4.0200000000000000E-002     1.3260722160339355     
   4.0500000000000001E-002     3.4019596576690674     
   4.0800000000000003E-002     5.6148977279663086     
   4.1100000000000005E-002     7.8916096687316895     
   4.1399999999999999E-002     10.141611099243164     
   4.1700000000000008E-002     12.263268470764160     
   4.2000000000000003E-002     14.149165153503418     
   4.2299999999999997E-002     15.692992210388184     
   4.2600000000000006E-002     16.798570632934570     
   4.2900000000000001E-002     17.384504318237305     
   4.3200000000000002E-002     17.392179489135742     
   4.3500000000000004E-002     16.789602279663086     
   4.3799999999999999E-002     15.573409080505371     
   4.4100000000000000E-002     13.771830558776855     
   4.4400000000000002E-002     11.440997123718262     
   4.4700000000000004E-002     8.6639537811279297     
   4.4999999999999998E-002     5.5461101531982422     
   4.5300000000000000E-002     2.2089323997497559     
   4.5600000000000002E-002    -1.2143552303314209     
   4.5899999999999996E-002    -4.5869045257568359     
   4.6200000000000005E-002    -7.7723646163940430     
   4.6500000000000000E-002    -10.642500877380371     
   4.6799999999999994E-002    -13.082698822021484     
   4.7100000000000003E-002    -14.995950698852539     
   4.7399999999999998E-002    -16.309728622436523     
   4.7700000000000006E-002    -16.977165222167969     
   4.8000000000000001E-002    -16.981281280517578     
   4.8300000000000010E-002    -16.337669372558594     
   4.8600000000000004E-002    -15.091966629028320     
   4.8899999999999999E-002    -13.322217941284180     
   4.9200000000000008E-002    -11.132743835449219     
   4.9500000000000002E-002    -8.6499233245849609     
   4.9800000000000011E-002    -6.0175156593322754     
   5.0100000000000006E-002    -3.3836507797241211     
   5.0400000000000000E-002   -0.89686751365661621     
   5.0700000000000009E-002     1.3075054883956909     
   5.1000000000000004E-002     3.1171920299530029     
   5.1299999999999998E-002     4.4467983245849609     
   5.1600000000000007E-002     5.2508678436279297     
   5.1900000000000002E-002     5.5213022232055664     
   5.2200000000000010E-002     5.2910108566284180     
   5.2500000000000005E-002     4.6316943168640137     
   5.2800000000000000E-002     3.6427435874938965     
   5.3099999999999994E-002     2.4487369060516357     
   5.3400000000000003E-002     1.1826838254928589     
   5.3699999999999998E-002    -2.3314554244279861E-002
   5.4000000000000006E-002    -1.0483695268630981     
   5.4300000000000001E-002    -1.7976568937301636     
   5.4599999999999996E-002    -2.2045624256134033     
   5.4900000000000004E-002    -2.2391843795776367     
   5.5199999999999999E-002    -1.9081799983978271     
   5.5499999999999994E-002    -1.2499647140502930     
   5.5800000000000002E-002   -0.33299762010574341     
   5.6099999999999997E-002    0.75694757699966431     
   5.6400000000000006E-002     1.9238642454147339     
   5.6700000000000000E-002     3.0721757411956787     
   5.6999999999999995E-002     4.1175637245178223     
   5.7300000000000004E-002     4.9917469024658203     
   5.7599999999999998E-002     5.6508131027221680     
   5.7900000000000007E-002     6.0753598213195801     
   5.8200000000000002E-002     6.2702565193176270     
   5.8499999999999996E-002     6.2630963325500488     
   5.8800000000000005E-002     6.0967011451721191     
   5.9100000000000000E-002     5.8239393234252930     
   5.9400000000000008E-002     5.5004076957702637     
   5.9700000000000003E-002     5.1765422821044922     
   6.0000000000000012E-002     4.8923511505126953     
   6.0300000000000006E-002     4.6724929809570312     
   6.0600000000000001E-002     4.5237641334533691     
   6.0900000000000010E-002     4.4354057312011719     
   6.1200000000000004E-002     4.3797683715820312     
   6.1500000000000013E-002     4.3175802230834961     
   6.1800000000000008E-002     4.2031741142272949     
   6.2100000000000002E-002     3.9897961616516113     
   6.2399999999999997E-002     3.6378347873687744     
   6.2700000000000006E-002     3.1188509464263916     
   6.3000000000000000E-002     2.4192392826080322     
   6.3300000000000009E-002     1.5435694456100464     
   6.3600000000000004E-002    0.51068943738937378     
   6.3899999999999998E-002   -0.64839273691177368     
   6.4199999999999993E-002    -1.8976562023162842     
   6.4500000000000002E-002    -3.2049956321716309     
   6.4800000000000010E-002    -4.5472121238708496     
   6.5100000000000005E-002    -5.9197883605957031     
   6.5400000000000000E-002    -7.3382720947265625     
   6.5700000000000008E-002    -8.8359584808349609     
   6.5999999999999989E-002    -10.463222503662109     
   6.6299999999999998E-002    -12.271047592163086     
   6.6600000000000006E-002    -14.299911499023438     
   6.6900000000000001E-002    -16.563598632812500     
   6.7199999999999996E-002    -19.028682708740234     
   6.7500000000000004E-002    -21.607088088989258     
   6.7800000000000013E-002    -24.142295837402344     
   6.8099999999999994E-002    -26.412471771240234     
   6.8400000000000002E-002    -28.141336441040039     
   6.8700000000000011E-002    -29.012254714965820     
   6.8999999999999992E-002    -28.703878402709961     
   6.9300000000000000E-002    -26.918914794921875     
   6.9600000000000009E-002    -23.423395156860352     
   6.9900000000000004E-002    -18.086124420166016     
   7.0199999999999999E-002    -10.905156135559082     
   7.0500000000000007E-002    -2.0318045616149902     
   7.0800000000000016E-002     8.2230482101440430     
   7.1099999999999997E-002     19.394802093505859     
   7.1400000000000005E-002     30.890518188476562     
   7.1700000000000000E-002     42.026859283447266     
   7.1999999999999995E-002     52.077434539794922     
   7.2300000000000003E-002     60.332969665527344     
   7.2600000000000012E-002     66.157142639160156     
   7.2900000000000006E-002     69.045608520507812     
   7.3200000000000001E-002     68.670570373535156     
   7.3499999999999996E-002     64.911125183105469     
   7.3800000000000004E-002     57.875267028808594     
   7.4099999999999999E-002     47.889488220214844     
   7.4400000000000008E-002     35.480716705322266     
   7.4700000000000003E-002     21.339731216430664     
   7.5000000000000011E-002     6.2636256217956543     
   7.5299999999999992E-002    -8.8965930938720703     
   7.5600000000000001E-002    -23.304172515869141     
   7.5900000000000009E-002    -36.193984985351562     
   7.6200000000000004E-002    -46.921031951904297     
   7.6499999999999999E-002    -55.006729125976562     
   7.6800000000000007E-002    -60.157058715820312     
   7.7099999999999988E-002    -62.274890899658203     
   7.7399999999999997E-002    -61.452850341796875     
   7.7700000000000005E-002    -57.949836730957031     
   7.8000000000000014E-002    -52.163673400878906     
   7.8299999999999995E-002    -44.588737487792969     
   7.8600000000000003E-002    -35.775642395019531     
   7.8900000000000012E-002    -26.290800094604492     
   7.9199999999999993E-002    -16.675451278686523     
   7.9500000000000001E-002    -7.4190325736999512     
   7.9800000000000010E-002     1.0688917636871338     
   8.0100000000000018E-002     8.4695348739624023     
   8.0399999999999999E-002     14.564587593078613     
   8.0700000000000008E-002     19.235073089599609     
   8.1000000000000003E-002     22.450166702270508     
   8.1299999999999997E-002     24.263648986816406     
   8.1600000000000006E-002     24.791570663452148     
   8.1900000000000014E-002     24.200199127197266     
   8.2199999999999995E-002     22.692276000976562     
   8.2500000000000004E-002     20.483079910278320     
   8.2799999999999999E-002     17.796325683593750     
   8.3100000000000007E-002     14.843990325927734     
   8.3400000000000002E-002     11.817388534545898     
   8.3700000000000011E-002     8.8849277496337891     
   8.4000000000000005E-002     6.1760244369506836     
   8.4300000000000000E-002     3.7886617183685303     
   8.4599999999999995E-002     1.7836636304855347     
   8.4900000000000003E-002    0.18453598022460938     
   8.5199999999999998E-002    -1.0094935894012451     
   8.5500000000000007E-002    -1.8301763534545898     
   8.5800000000000001E-002    -2.3233547210693359     
   8.6100000000000010E-002    -2.5450973510742188     
   8.6399999999999991E-002    -2.5601534843444824     
   8.6699999999999999E-002    -2.4247872829437256     
   8.7000000000000008E-002    -2.1948533058166504     
   8.7300000000000003E-002    -1.9142670631408691     
   8.7599999999999997E-002    -1.6158559322357178     
   8.7900000000000006E-002    -1.3266443014144897     
   8.8200000000000014E-002    -1.0586386919021606     
   8.8499999999999995E-002   -0.82307434082031250     
   8.8800000000000004E-002   -0.62462294101715088     
   8.9100000000000013E-002   -0.46395686268806458     
   8.9399999999999993E-002   -0.34423235058784485     
   8.9700000000000002E-002   -0.26364663243293762     
   9.0000000000000011E-002   -0.22382274270057678     
   9.0299999999999991E-002   -0.22282661497592926     
   9.0600000000000000E-002   -0.25740453600883484     
   9.0900000000000009E-002   -0.32398867607116699     
   9.1200000000000017E-002   -0.41283813118934631     
   9.1499999999999998E-002   -0.51589095592498779     
   9.1800000000000007E-002   -0.62093681097030640     
   9.2100000000000001E-002   -0.71672523021697998     
   9.2399999999999996E-002   -0.79399621486663818     
   9.2700000000000005E-002   -0.84341180324554443     
   9.3000000000000013E-002   -0.86305785179138184     
   9.3300000000000008E-002   -0.85029739141464233     
   9.3600000000000003E-002   -0.80938029289245605     
   9.3899999999999997E-002   -0.74743300676345825     
   9.4200000000000006E-002   -0.67004179954528809     
   9.4500000000000001E-002   -0.58860117197036743     
   9.4800000000000009E-002   -0.50785428285598755     
   9.5100000000000004E-002   -0.43474194407463074     
   9.5399999999999999E-002   -0.37346339225769043     
   9.5699999999999993E-002   -0.32168969511985779     
   9.6000000000000002E-002   -0.28199395537376404     
   9.6300000000000011E-002   -0.24853619933128357     
   9.6600000000000005E-002   -0.21910013258457184     
   9.6900000000000000E-002   -0.19289623200893402     
   9.7200000000000009E-002   -0.16428703069686890     
   9.7499999999999989E-002   -0.13805647194385529     
   9.7799999999999998E-002   -0.11198037862777710     
   9.8100000000000007E-002    -8.8472813367843628E-002
   9.8400000000000015E-002    -7.2747811675071716E-002
   9.8699999999999996E-002    -6.1385687440633774E-002
   9.9000000000000005E-002    -6.0448478907346725E-002
   9.9300000000000013E-002    -6.6084764897823334E-002
   9.9599999999999994E-002    -7.5590856373310089E-002
   9.9900000000000003E-002    -8.9256189763545990E-002
  0.10020000000000001         -9.7576774656772614E-002
  0.10049999999999999        -0.10186386853456497     
  0.10080000000000000         -9.6777774393558502E-002
  0.10110000000000001         -7.9059347510337830E-002
  0.10140000000000000         -5.3724110126495361E-002
  0.10170000000000000         -1.7238434404134750E-002
  0.10200000000000001          2.2203668951988220E-002
  0.10230000000000002          6.0950681567192078E-002
  0.10260000000000000          9.6855834126472473E-002
  0.10290000000000001         0.12042273581027985     
  0.10320000000000000         0.13444161415100098     
  0.10350000000000001         0.13480433821678162     
  0.10380000000000000         0.12290633469820023     
  0.10410000000000001         0.10535034537315369     
  0.10440000000000001          8.2686379551887512E-002
  0.10470000000000000          6.5033219754695892E-002
  0.10500000000000000          5.5541016161441803E-002
  0.10530000000000000          5.7544920593500137E-002
  0.10560000000000000          7.6270289719104767E-002
  0.10590000000000001         0.10687270760536194     
  0.10620000000000000         0.14825229346752167     
  0.10650000000000001         0.19392190873622894     
  0.10679999999999999         0.23415605723857880     
  0.10710000000000000         0.26291540265083313     
  0.10740000000000001         0.27082121372222900     
  0.10770000000000000         0.25412395596504211     
  0.10800000000000000         0.21138867735862732     
  0.10830000000000001         0.14395359158515930     
  0.10859999999999999          6.0432083904743195E-002
  0.10890000000000000         -2.9447203502058983E-002
  0.10920000000000001        -0.11349160224199295     
  0.10950000000000001        -0.17775501310825348     
  0.10979999999999999        -0.21137669682502747     
  0.11009999999999999        -0.20685097575187683     
  0.11040000000000001        -0.16092093288898468     
  0.11070000000000001         -7.7794060111045837E-002
  0.11100000000000000          3.3856943249702454E-002
  0.11130000000000000         0.15986461937427521     
  0.11160000000000002         0.28139534592628479     
  0.11190000000000001         0.38203701376914978     
  0.11220000000000001         0.44410243630409241     
  0.11250000000000000         0.45596334338188171     
  0.11280000000000000         0.41421574354171753     
  0.11309999999999999         0.31951060891151428     
  0.11340000000000001         0.18458144366741180     
  0.11369999999999998          2.6499934494495392E-002
  0.11400000000000000        -0.13331249356269836     
  0.11430000000000000        -0.26881316304206848     
  0.11460000000000002        -0.36081114411354065     
  0.11489999999999999        -0.39098700881004333     
  0.11520000000000001        -0.35148528218269348     
  0.11550000000000001        -0.24677237868309021     
  0.11580000000000000         -8.6995854973793030E-002
  0.11609999999999999         0.10194601863622665     
  0.11640000000000002         0.29128718376159668     
  0.11670000000000001         0.44804731011390686     
  0.11700000000000001         0.53759783506393433     
  0.11730000000000000         0.53717809915542603     
  0.11760000000000000         0.42872267961502075     
  0.11789999999999999         0.21188017725944519     
  0.11820000000000001         -9.8110757768154144E-002
  0.11850000000000001        -0.47434127330780029     
  0.11880000000000000        -0.87187570333480835     
  0.11910000000000000         -1.2427670955657959     
  0.11940000000000002         -1.5341161489486694     
  0.11970000000000001         -1.6963399648666382     
  0.12000000000000001         -1.6947309970855713     
  0.12030000000000000         -1.5058264732360840     
  0.12060000000000000         -1.1302546262741089     
  0.12089999999999999        -0.58858728408813477     
  0.12119999999999999          7.9317413270473480E-002
  0.12150000000000001         0.81385666131973267     
  0.12180000000000001          1.5486809015274048     
  0.12210000000000000          2.2102751731872559     
  0.12239999999999999          2.7308900356292725     
  0.12270000000000002          3.0553591251373291     
  0.12300000000000001          3.1435272693634033     
  0.12330000000000001          2.9802463054656982     
  0.12360000000000000          2.5715861320495605     
  0.12390000000000000          1.9477288722991943     
  0.12419999999999999          1.1578142642974854     
  0.12450000000000001         0.26463091373443604     
  0.12480000000000001        -0.65905320644378662     
  0.12509999999999999         -1.5420420169830322     
  0.12540000000000001         -2.3166847229003906     
  0.12570000000000003         -2.9277935028076172     
  0.12600000000000000         -3.3358750343322754     
  0.12630000000000002         -3.5178947448730469     
  0.12659999999999999         -3.4720790386199951     
  0.12690000000000001         -3.2110581398010254     
  0.12719999999999998         -2.7644672393798828     
  0.12750000000000000         -2.1729946136474609     
  0.12780000000000002         -1.4825247526168823     
  0.12809999999999999        -0.74527430534362793     
  0.12840000000000001         -8.7424367666244507E-003
  0.12869999999999998         0.68147647380828857     
  0.12900000000000000          1.2869476079940796     
  0.12930000000000003          1.7802524566650391     
  0.12959999999999999          2.1399946212768555     
  0.12990000000000002          2.3576548099517822     
  0.13019999999999998          2.4330172538757324     
  0.13050000000000000          2.3732302188873291     
  0.13080000000000003          2.1950631141662598     
  0.13109999999999999          1.9178493022918701     
  0.13140000000000002          1.5668514966964722     
  0.13169999999999998          1.1694314479827881     
  0.13200000000000001         0.75116384029388428     
  0.13229999999999997         0.33996030688285828     
  0.13260000000000000         -4.2140603065490723E-002
  0.13290000000000002        -0.37594699859619141     
  0.13319999999999999        -0.64593333005905151     
  0.13350000000000001        -0.84527969360351562     
  0.13380000000000003        -0.96988403797149658     
  0.13410000000000000         -1.0223658084869385     
  0.13440000000000002         -1.0108610391616821     
  0.13469999999999999        -0.94522815942764282     
  0.13500000000000001        -0.83988708257675171     
  0.13529999999999998        -0.70892703533172607     
  0.13560000000000000        -0.56556820869445801     
  0.13590000000000002        -0.42351320385932922     
  0.13619999999999999        -0.29095000028610229     
  0.13650000000000001        -0.17519269883632660     
  0.13680000000000003         -8.0600969493389130E-002
  0.13710000000000000         -5.8454768732190132E-003
  0.13740000000000002          4.8915237188339233E-002
  0.13769999999999999          8.7664775550365448E-002
  0.13800000000000001         0.11459712684154510     
  0.13829999999999998         0.13166044652462006     
  0.13860000000000000         0.14373099803924561     
  0.13890000000000002         0.15113098919391632     
  0.13919999999999999         0.15506614744663239     
  0.13950000000000001         0.15644945204257965     
  0.13979999999999998         0.15227593481540680     
  0.14010000000000000         0.14440320432186127     
  0.14040000000000002         0.13138179481029510     
  0.14069999999999999         0.11305381357669830     
  0.14100000000000001          9.2977762222290039E-002
  0.14130000000000004          7.0286899805068970E-002
  0.14160000000000000          4.9280557781457901E-002
  0.14189999999999997          3.1954038888216019E-002
  0.14219999999999999          1.8604220822453499E-002
  0.14250000000000002          1.2871142476797104E-002
  0.14279999999999998          1.1812827549874783E-002
  0.14310000000000000          1.5721721574664116E-002
  0.14339999999999997          2.3248014971613884E-002
  0.14369999999999999          2.9373725876212120E-002
  0.14400000000000002          3.4553587436676025E-002
  0.14429999999999998          3.4416217356920242E-002
  0.14460000000000001          2.8408549726009369E-002
  0.14490000000000003          1.7924735322594643E-002
  0.14520000000000000          1.7189413774758577E-003
  0.14550000000000002         -1.5416080132126808E-002
  0.14579999999999999         -3.1969904899597168E-002
  0.14610000000000001         -4.5287158340215683E-002
  0.14640000000000003         -5.1285114139318466E-002
  0.14670000000000000         -5.0353936851024628E-002
  0.14699999999999996         -4.0824782103300095E-002
  0.14729999999999999         -2.4167988449335098E-002
  0.14760000000000001         -3.5940357483923435E-003
  0.14789999999999998          1.9025953486561775E-002
  0.14820000000000000          3.9094638079404831E-002