  -1.4999999999999999E-002     0.0000000000000000     
  -1.4700000000000000E-002     0.0000000000000000     
  -1.4400000000000000E-002     0.0000000000000000     
  -1.4100000000000000E-002     0.0000000000000000     
  -1.3800000000000000E-002     0.0000000000000000     
  -1.3500000000000000E-002     0.0000000000000000     
  -1.3200000000000000E-002     0.0000000000000000     
  -1.2899999999999998E-002     0.0000000000000000     
  -1.2600000000000000E-002     0.0000000000000000     
  -1.2299999999999998E-002     0.0000000000000000     
  -1.2000000000000000E-002     0.0000000000000000     
  -1.1699999999999999E-002     0.0000000000000000     
  -1.1399999999999999E-002     0.0000000000000000     
  -1.1099999999999999E-002     0.0000000000000000     
  -1.0799999999999999E-002     0.0000000000000000     
  -1.0499999999999999E-002     0.0000000000000000     
  -1.0199999999999999E-002     0.0000000000000000     
  -9.8999999999999991E-003     0.0000000000000000     
  -9.5999999999999992E-003     0.0000000000000000     
  -9.2999999999999992E-003     0.0000000000000000     
  -8.9999999999999993E-003     0.0000000000000000     
  -8.6999999999999994E-003     0.0000000000000000     
  -8.3999999999999995E-003     0.0000000000000000     
  -8.0999999999999996E-003     0.0000000000000000     
  -7.7999999999999988E-003     0.0000000000000000     
  -7.4999999999999997E-003     0.0000000000000000     
  -7.1999999999999998E-003     0.0000000000000000     
  -6.8999999999999981E-003     0.0000000000000000     
  -6.5999999999999982E-003     0.0000000000000000     
  -6.3000000000000000E-003     0.0000000000000000     
  -6.0000000000000001E-003     0.0000000000000000     
  -5.6999999999999985E-003     0.0000000000000000     
  -5.3999999999999986E-003     0.0000000000000000     
  -5.1000000000000004E-003     0.0000000000000000     
  -4.7999999999999987E-003     0.0000000000000000     
  -4.5000000000000005E-003     0.0000000000000000     
  -4.1999999999999989E-003     0.0000000000000000     
  -3.8999999999999990E-003     0.0000000000000000     
  -3.5999999999999990E-003     0.0000000000000000     
  -3.2999999999999991E-003     0.0000000000000000     
  -2.9999999999999992E-003     0.0000000000000000     
  -2.6999999999999993E-003     0.0000000000000000     
  -2.3999999999999994E-003     0.0000000000000000     
  -2.0999999999999977E-003     0.0000000000000000     
  -1.7999999999999995E-003     0.0000000000000000     
  -1.4999999999999979E-003     0.0000000000000000     
  -1.1999999999999997E-003     0.0000000000000000     
  -8.9999999999999976E-004     0.0000000000000000     
  -5.9999999999999810E-004     0.0000000000000000     
  -2.9999999999999992E-004     0.0000000000000000     
   0.0000000000000000          0.0000000000000000     
   3.0000000000000165E-004     0.0000000000000000     
   5.9999999999999984E-004     0.0000000000000000     
   9.0000000000000149E-004     0.0000000000000000     
   1.2000000000000031E-003     0.0000000000000000     
   1.5000000000000013E-003     0.0000000000000000     
   1.8000000000000030E-003     0.0000000000000000     
   2.1000000000000012E-003     0.0000000000000000     
   2.3999999999999994E-003     0.0000000000000000     
   2.7000000000000010E-003     0.0000000000000000     
   2.9999999999999992E-003     0.0000000000000000     
   3.3000000000000008E-003     0.0000000000000000     
   3.6000000000000025E-003     0.0000000000000000     
   3.9000000000000007E-003     0.0000000000000000     
   4.2000000000000023E-003     0.0000000000000000     
   4.5000000000000005E-003     0.0000000000000000     
   4.7999999999999987E-003     0.0000000000000000     
   5.1000000000000004E-003     0.0000000000000000     
   5.4000000000000020E-003     0.0000000000000000     
   5.7000000000000037E-003     0.0000000000000000     
   5.9999999999999984E-003     0.0000000000000000     
   6.3000000000000000E-003     0.0000000000000000     
   6.6000000000000017E-003     0.0000000000000000     
   6.9000000000000034E-003     0.0000000000000000     
   7.2000000000000015E-003     0.0000000000000000     
   7.5000000000000032E-003     3.9492352033959347E-036
   7.8000000000000014E-003    -1.0023233699595290E-034
   8.0999999999999996E-003     4.7198513459063799E-034
   8.4000000000000012E-003     4.5367697538047394E-033
   8.7000000000000029E-003    -6.3820773895832717E-032
   9.0000000000000011E-003     2.6186884970358677E-031
   9.2999999999999992E-003     1.1181029550332208E-030
   9.6000000000000009E-003    -1.7931281973883985E-029
   9.8999999999999991E-003     6.9740300606036913E-029
   1.0200000000000001E-002     1.3262106467739842E-028
   1.0500000000000002E-002    -2.4813117106011441E-027
   1.0800000000000004E-002     1.0081593064917955E-026
   1.1099999999999999E-002    -4.4489490160850466E-027
   1.1400000000000000E-002    -1.4311300070960989E-025
   1.1700000000000002E-002     7.6128982215308483E-025
   1.2000000000000004E-002    -1.8679652339325011E-024
   1.2300000000000002E-002     5.4919884854285296E-025
   1.2600000000000000E-002     1.5129048963923581E-023
   1.2900000000000002E-002    -7.4016616237240161E-023
   1.3200000000000000E-002     2.2970937886794166E-022
   1.3500000000000002E-002    -6.0664347720227176E-022
   1.3800000000000003E-002     1.7580760625986020E-021
   1.4100000000000001E-002    -6.5416993093420158E-021
   1.4400000000000000E-002     2.7232879566171196E-020
   1.4700000000000001E-002    -1.0367745442185548E-019
   1.4999999999999999E-002     3.1413114339890348E-019
   1.5300000000000001E-002    -5.6767761418046840E-019
   1.5600000000000003E-002    -1.0144986607953813E-018
   1.5899999999999997E-002     1.6500737825550705E-017
   1.6199999999999999E-002    -1.0459334886263512E-016
   1.6500000000000001E-002     5.1000499616803705E-016
   1.6800000000000002E-002    -2.1279379811906451E-015
   1.7100000000000004E-002     7.7291485386411785E-015
   1.7400000000000006E-002    -2.3468150640577716E-014
   1.7700000000000000E-002     5.0001042667174520E-014
   1.8000000000000002E-002     3.2995660240522917E-015
   1.8300000000000004E-002    -7.5572718655908533E-013
   1.8600000000000005E-002     4.8862120946568943E-012
   1.8900000000000000E-002    -2.0368576617024736E-011
   1.9200000000000002E-002     5.9740691560339343E-011
   1.9500000000000003E-002    -1.0315362453106047E-010
   1.9799999999999998E-002    -4.6813872223161468E-011
   2.0100000000000000E-002     9.6382768433045385E-010
   2.0400000000000001E-002    -3.0133309181223922E-009
   2.0700000000000003E-002     3.1372486830605339E-009
   2.0999999999999998E-002     8.7276559312954305E-009
   2.1299999999999999E-002    -3.4964358519573580E-008
   2.1600000000000001E-002     2.2586972292515384E-008
   2.1900000000000003E-002     1.1350982731528347E-007
   2.2200000000000004E-002    -2.0409112266861484E-007
   2.2500000000000006E-002    -2.7117212653138267E-007
   2.2800000000000001E-002     7.2015143359749345E-007
   2.3100000000000002E-002     8.5884607869957108E-007
   2.3400000000000004E-002    -1.8334276319365017E-006
   2.3699999999999999E-002    -3.7216398141026730E-006
   2.4000000000000000E-002     3.4262618555658264E-006
   2.4300000000000002E-002     2.4070472136372700E-005
   2.4599999999999997E-002     5.4622330935671926E-005
   2.4900000000000005E-002     9.0913403255399317E-005
   2.5200000000000000E-002     1.3711325300391763E-004
   2.5499999999999995E-002     2.0683143520727754E-004
   2.5800000000000003E-002     3.2056038617156446E-004
   2.6099999999999998E-002     5.0220987759530544E-004
   2.6400000000000007E-002     7.7920226613059640E-004
   2.6700000000000002E-002     1.1892978800460696E-003
   2.6999999999999996E-002     1.7868357244879007E-003
   2.7300000000000005E-002     2.6471945457160473E-003
   2.7600000000000000E-002     3.8717775605618954E-003
   2.7900000000000008E-002     5.5907801724970341E-003
   2.8200000000000003E-002     7.9644126817584038E-003
   2.8499999999999998E-002     1.1184369213879108E-002
   2.8800000000000006E-002     1.5476762317121029E-002
   2.9100000000000001E-002     2.1101316437125206E-002
   2.9400000000000003E-002     2.8336724266409874E-002
   2.9700000000000004E-002     3.7460569292306900E-002
   3.0000000000000006E-002     4.8728860914707184E-002
   3.0300000000000001E-002     6.2342204153537750E-002
   3.0600000000000002E-002     7.8394897282123566E-002
   3.0900000000000004E-002     9.6813604235649109E-002
   3.1199999999999999E-002    0.11729425191879272     
   3.1500000000000007E-002    0.13923883438110352     
   3.1800000000000002E-002    0.16168838739395142     
   3.2099999999999997E-002    0.18326650559902191     
   3.2400000000000005E-002    0.20216043293476105     
   3.2700000000000000E-002    0.21612085402011871     
   3.3000000000000002E-002    0.22251728177070618     
   3.3300000000000003E-002    0.21844407916069031     
   3.3599999999999998E-002    0.20087730884552002     
   3.3900000000000000E-002    0.16692687571048737     
   3.4200000000000001E-002    0.11412103474140167     
   3.4500000000000003E-002     4.0725339204072952E-002
   3.4799999999999998E-002    -5.3910370916128159E-002
   3.5099999999999999E-002   -0.16906389594078064     
   3.5400000000000001E-002   -0.30235350131988525     
   3.5699999999999996E-002   -0.44956797361373901     
   3.6000000000000004E-002   -0.60469448566436768     
   3.6299999999999999E-002   -0.75998473167419434     
   3.6600000000000008E-002   -0.90633064508438110     
   3.6900000000000002E-002    -1.0337553024291992     
   3.7199999999999997E-002    -1.1320167779922485     
   3.7500000000000006E-002    -1.1914705038070679     
   3.7800000000000000E-002    -1.2037837505340576     
   3.8100000000000009E-002    -1.1627616882324219     
   3.8400000000000004E-002    -1.0650864839553833     
   3.8699999999999998E-002   -0.91072493791580200     
   3.9000000000000007E-002   -0.70326220989227295     
   3.9300000000000002E-002   -0.44988796114921570     
   3.9600000000000003E-002   -0.16098304092884064     
   3.9900000000000005E-002    0.15035501122474670     
   4.0200000000000000E-002    0.46927583217620850     
   4.0500000000000001E-002    0.78012579679489136     
   4.0800000000000003E-002     1.0675153732299805     
   4.1100000000000005E-002     1.3174692392349243     
   4.1399999999999999E-002     1.5182768106460571     
   4.1700000000000008E-002     1.6612563133239746     
   4.2000000000000003E-002     1.7413307428359985     
   4.2299999999999997E-002     1.7570383548736572     
   4.2600000000000006E-002     1.7106426954269409     
   4.2900000000000001E-002     1.6075870990753174     
   4.3200000000000002E-002     1.4559428691864014     
   4.3500000000000004E-002     1.2657660245895386     
   4.3799999999999999E-002     1.0481154918670654     
   4.4100000000000000E-002    0.81440889835357666     
   4.4400000000000002E-002    0.57559627294540405     
   4.4700000000000004E-002    0.34149673581123352     
   4.4999999999999998E-002    0.12052866816520691     
   4.5300000000000000E-002    -8.0895550549030304E-002
   4.5600000000000002E-002   -0.25812664628028870     
   4.5899999999999996E-002   -0.40841156244277954     
   4.6200000000000005E-002   -0.53073745965957642     
   4.6500000000000000E-002   -0.62535756826400757     
   4.6799999999999994E-002   -0.69379591941833496     
   4.7100000000000003E-002   -0.73820322751998901     
   4.7399999999999998E-002   -0.76119619607925415     
   4.7700000000000006E-002   -0.76562887430191040     
   4.8000000000000001E-002   -0.75414854288101196     
   4.8300000000000010E-002   -0.72933816909790039     
   4.8600000000000004E-002   -0.69338583946228027     
   4.8899999999999999E-002   -0.64816790819168091     
   4.9200000000000008E-002   -0.59532243013381958     
   4.9500000000000002E-002   -0.53615814447402954     
   4.9800000000000011E-002   -0.47201544046401978     
   5.0100000000000006E-002   -0.40416538715362549     
   5.0400000000000000E-002   -0.33406537771224976     
   5.0700000000000009E-002   -0.26353901624679565     
   5.1000000000000004E-002   -0.19468423724174500     
   5.1299999999999998E-002   -0.13022577762603760     
   5.1600000000000007E-002    -7.3302820324897766E-002
   5.1900000000000002E-002    -2.7535647153854370E-002
   5.2200000000000010E-002     3.0693500302731991E-003
   5.2500000000000005E-002     1.4586991630494595E-002
   5.2800000000000000E-002     3.2146950252354145E-003
   5.3099999999999994E-002    -3.4061655402183533E-002
   5.3400000000000003E-002    -9.9099844694137573E-002
   5.3699999999999998E-002   -0.19221273064613342     
   5.4000000000000006E-002   -0.31140828132629395     
   5.4300000000000001E-002   -0.45238149166107178     
   5.4599999999999996E-002   -0.60806918144226074     
   5.4900000000000004E-002   -0.76877349615097046     
   5.5199999999999999E-002   -0.92259383201599121     
   5.5499999999999994E-002    -1.0557351112365723     
   5.5800000000000002E-002    -1.1537424325942993     
   5.6099999999999997E-002    -1.2023718357086182     
   5.6400000000000006E-002    -1.1888830661773682     
   5.6700000000000000E-002    -1.1034995317459106     
   5.6999999999999995E-002   -0.94034564495086670     
   5.7300000000000004E-002   -0.69864487648010254     
   5.7599999999999998E-002   -0.38319724798202515     
   5.7900000000000007E-002    -4.5374520123004913E-003
   5.8200000000000002E-002    0.42134118080139160     
   5.8499999999999996E-002    0.87399470806121826     
   5.8800000000000005E-002     1.3296756744384766     
   5.9100000000000000E-002     1.7630676031112671     
   5.9400000000000008E-002     2.1491949558258057     
   5.9700000000000003E-002     2.4651041030883789     
   6.0000000000000012E-002     2.6918699741363525     
   6.0300000000000006E-002     2.8157591819763184     
   6.0600000000000001E-002     2.8293030261993408     
   6.0900000000000010E-002     2.7317178249359131     
   6.1200000000000004E-002     2.5286095142364502     
   6.1500000000000013E-002     2.2316741943359375     
   6.1800000000000008E-002     1.8572556972503662     
   6.2100000000000002E-002     1.4252786636352539     
   6.2399999999999997E-002    0.95754724740982056     
   6.2700000000000006E-002    0.47602844238281250     
   6.3000000000000000E-002     1.8362533301115036E-003
   6.3300000000000009E-002   -0.44655513763427734     
   6.3600000000000004E-002   -0.85362172126770020     
   6.3899999999999998E-002    -1.2077096700668335     
   6.4199999999999993E-002    -1.5011559724807739     
   6.4500000000000002E-002    -1.7297272682189941     
   6.4800000000000010E-002    -1.8929679393768311     
   6.5100000000000005E-002    -1.9929318428039551     
   6.5400000000000000E-002    -2.0338239669799805     
   6.5700000000000008E-002    -2.0216271877288818     
   6.5999999999999989E-002    -1.9627928733825684     
   6.6299999999999998E-002    -1.8646930456161499     
   6.6600000000000006E-002    -1.7345800399780273     
   6.6900000000000001E-002    -1.5795542001724243     
   6.7199999999999996E-002    -1.4070485830307007     
   6.7500000000000004E-002    -1.2238144874572754     
   6.7800000000000013E-002    -1.0369515419006348     
   6.8099999999999994E-002   -0.85334026813507080     
   6.8400000000000002E-002   -0.67940950393676758     
   6.8700000000000011E-002   -0.52172273397445679     
   6.8999999999999992E-002   -0.38549953699111938     
   6.9300000000000000E-002   -0.27519750595092773     
   6.9600000000000009E-002   -0.19364692270755768     
   6.9900000000000004E-002   -0.14107231795787811     
   7.0199999999999999E-002   -0.11573766171932220     
   7.0500000000000007E-002   -0.11248228698968887     
   7.0800000000000016E-002   -0.12345670163631439     
   7.1099999999999997E-002   -0.13836485147476196     
   7.1400000000000005E-002   -0.14429204165935516     
   7.1700000000000000E-002   -0.12793894112110138     
   7.1999999999999995E-002    -7.5663536787033081E-002
   7.2300000000000003E-002     2.4468783289194107E-002
   7.2600000000000012E-002    0.18093907833099365     
   7.2900000000000006E-002    0.39841571450233459     
   7.3200000000000001E-002    0.67518389225006104     
   7.3499999999999996E-002     1.0036330223083496     
   7.3800000000000004E-002     1.3696967363357544     
   7.4099999999999999E-002     1.7528364658355713     
   7.4400000000000008E-002     2.1283750534057617     
   7.4700000000000003E-002     2.4680883884429932     
   7.5000000000000011E-002     2.7431268692016602     
   7.5299999999999992E-002     2.9265770912170410     
   7.5600000000000001E-002     2.9951422214508057     
   7.5900000000000009E-002     2.9325802326202393     
   7.6200000000000004E-002     2.7306087017059326     
   7.6499999999999999E-002     2.3903141021728516     
   7.6800000000000007E-002     1.9229522943496704     
   7.7099999999999988E-002     1.3484621047973633     
   7.7399999999999997E-002    0.69504117965698242     
   7.7700000000000005E-002    -3.3308900892734528E-003
   7.8000000000000014E-002   -0.70957642793655396     
   7.8299999999999995E-002    -1.3858418464660645     
   7.8600000000000003E-002    -1.9968402385711670     
   7.8900000000000012E-002    -2.5120804309844971     
   7.9199999999999993E-002    -2.9078428745269775     
   7.9500000000000001E-002    -3.1690678596496582     
   7.9800000000000010E-002    -3.2895448207855225     
   8.0100000000000018E-002    -3.2720673084259033     
   8.0399999999999999E-002    -3.1277978420257568     
   8.0700000000000008E-002    -2.8743901252746582     
   8.1000000000000003E-002    -2.5346391201019287     
   8.1299999999999997E-002    -2.1342127323150635     
   8.1600000000000006E-002    -1.6993366479873657     
   8.1900000000000014E-002    -1.2551654577255249     
   8.2199999999999995E-002   -0.82358938455581665     
   8.2500000000000004E-002   -0.42214536666870117     
   8.2799999999999999E-002    -6.3114665448665619E-002
   8.3100000000000007E-002    0.24720647931098938     
   8.3400000000000002E-002    0.50796246528625488     
   8.3700000000000011E-002    0.72348034381866455     
   8.4000000000000005E-002    0.90240639448165894     
   8.4300000000000000E-002     1.0560145378112793     
   8.4599999999999995E-002     1.1970331668853760     
   8.4900000000000003E-002     1.3379700183868408     
   8.5199999999999998E-002     1.4892244338989258     
   8.5500000000000007E-002     1.6580975055694580     
   8.5800000000000001E-002     1.8470160961151123     
   8.6100000000000010E-002     2.0530583858489990     
   8.6399999999999991E-002     2.2677216529846191     
   8.6699999999999999E-002     2.4766907691955566     
   8.7000000000000008E-002     2.6614456176757812     
   8.7300000000000003E-002     2.7999951839447021     
   8.7599999999999997E-002     2.8691549301147461     
   8.7900000000000006E-002     2.8470849990844727     
   8.8200000000000014E-002     2.7148642539978027     
   8.8499999999999995E-002     2.4597830772399902     
   8.8800000000000004E-002     2.0766375064849854     
   8.9100000000000013E-002     1.5689871311187744     
   8.9399999999999993E-002    0.95062822103500366     
   8.9700000000000002E-002    0.24391432106494904     
   9.0000000000000011E-002   -0.52019172906875610     
   9.0299999999999991E-002    -1.3046919107437134     
   9.0600000000000000E-002    -2.0695209503173828     
   9.0900000000000009E-002    -2.7736980915069580     
   9.1200000000000017E-002    -3.3795533180236816     
   9.1499999999999998E-002    -3.8549413681030273     
   9.1800000000000007E-002    -4.1758446693420410     
   9.2100000000000001E-002    -4.3284673690795898     
   9.2399999999999996E-002    -4.3093600273132324     
   9.2700000000000005E-002    -4.1257576942443848     
   9.3000000000000013E-002    -3.7942008972167969     
   9.3300000000000008E-002    -3.3385550975799561     
   9.3600000000000003E-002    -2.7880337238311768     
   9.3899999999999997E-002    -2.1738893985748291     
   9.4200000000000006E-002    -1.5273967981338501     
   9.4500000000000001E-002   -0.87734431028366089     
   9.4800000000000009E-002   -0.24803596735000610     
   9.5100000000000004E-002    0.34114113450050354     
   9.5399999999999999E-002    0.87672185897827148     
   9.5699999999999993E-002     1.3501739501953125     
   9.6000000000000002E-002     1.7571371793746948     
   9.6300000000000011E-002     2.0962975025177002     
   9.6600000000000005E-002     2.3673660755157471     
   9.6900000000000000E-002     2.5704147815704346     
   9.7200000000000009E-002     2.7044806480407715     
   9.7499999999999989E-002     2.7669019699096680     
   9.7799999999999998E-002     2.7541177272796631     
   9.8100000000000007E-002     2.6614334583282471     
   9.8400000000000015E-002     2.4847393035888672     
   9.8699999999999996E-002     2.2217142581939697     
   9.9000000000000005E-002     1.8731476068496704     
   9.9300000000000013E-002     1.4448782205581665     
   9.9599999999999994E-002    0.94808584451675415     
   9.9900000000000003E-002    0.40035498142242432     
  0.10020000000000001        -0.17507682740688324     
  0.10049999999999999        -0.75040054321289062     
  0.10080000000000000         -1.2944754362106323     
  0.10110000000000001         -1.7758040428161621     
  0.10140000000000000         -2.1644573211669922     
  0.10170000000000000         -2.4349656105041504     
  0.10200000000000001         -2.5689125061035156     
  0.10230000000000002         -2.5561828613281250     
  0.10260000000000000         -2.3968112468719482     
  0.10290000000000001         -2.1006553173065186     
  0.10320000000000000         -1.6869317293167114     
  0.10350000000000001         -1.1831126213073730     
  0.10380000000000000        -0.62205970287322998     
  0.10410000000000001         -4.0169477462768555E-002
  0.10440000000000001         0.52587014436721802     
  0.10470000000000000          1.0415529012680054     
  0.10500000000000000          1.4764809608459473     
  0.10530000000000000          1.8069038391113281     
  0.10560000000000000          2.0162754058837891     
  0.10590000000000001          2.0961790084838867     
  0.10620000000000000          2.0462546348571777     
  0.10650000000000001          1.8735197782516479     
  0.10679999999999999          1.5919358730316162     
  0.10710000000000000          1.2207667827606201     
  0.10740000000000001         0.78378885984420776     
  0.10770000000000000         0.30813899636268616     
  0.10800000000000000        -0.17722922563552856     
  0.10830000000000001        -0.64218711853027344     
  0.10859999999999999         -1.0572659969329834     
  0.10890000000000000         -1.3947032690048218     
  0.10920000000000001         -1.6296974420547485     
  0.10950000000000001         -1.7422832250595093     
  0.10979999999999999         -1.7183420658111572     
  0.11009999999999999         -1.5512779951095581     
  0.11040000000000001         -1.2429690361022949     
  0.11070000000000001        -0.80451601743698120     
  0.11100000000000000        -0.25662958621978760     
  0.11130000000000000         0.37118047475814819     
  0.11160000000000002          1.0416525602340698     
  0.11190000000000001          1.7117303609848022     
  0.11220000000000001          2.3353240489959717     
  0.11250000000000000          2.8663322925567627     
  0.11280000000000000          3.2621185779571533     
  0.11309999999999999          3.4867379665374756     
  0.11340000000000001          3.5138511657714844     
  0.11369999999999998          3.3292293548583984     
  0.11400000000000000          2.9325044155120850     
  0.11430000000000000          2.3375835418701172     
  0.11460000000000002          1.5723553895950317     
  0.11489999999999999         0.67746299505233765     
  0.11520000000000001        -0.29647332429885864     
  0.11550000000000001         -1.2914258241653442     
  0.11580000000000000         -2.2461800575256348     
  0.11609999999999999         -3.1002264022827148     
  0.11640000000000002         -3.7974326610565186     
  0.11670000000000001         -4.2907271385192871     
  0.11700000000000001         -4.5447239875793457     
  0.11730000000000000         -4.5387687683105469     
  0.11760000000000000         -4.2689757347106934     
  0.11789999999999999         -3.7479951381683350     
  0.11820000000000001         -3.0058150291442871     
  0.11850000000000001         -2.0872435569763184     
  0.11880000000000000         -1.0494223833084106     
  0.11910000000000000          4.1300617158412933E-002
  0.11940000000000002          1.1147997379302979     
  0.11970000000000001          2.1008605957031250     
  0.12000000000000001          2.9350421428680420     
  0.12030000000000000          3.5630183219909668     
  0.12060000000000000          3.9439554214477539     
  0.12089999999999999          4.0549097061157227     
  0.12119999999999999          3.8913474082946777     
  0.12150000000000001          3.4682369232177734     
  0.12180000000000001          2.8189129829406738     
  0.12210000000000000          1.9916467666625977     
  0.12239999999999999          1.0472213029861450     
  0.12270000000000002          5.2800938487052917E-002
  0.12300000000000001        -0.92260831594467163     
  0.12330000000000001         -1.8134106397628784     
  0.12360000000000000         -2.5633108615875244     
  0.12390000000000000         -3.1282820701599121     
  0.12419999999999999         -3.4808082580566406     
  0.12450000000000001         -3.6106846332550049     
  0.12480000000000001         -3.5249068737030029     
  0.12509999999999999         -3.2469794750213623     
  0.12540000000000001         -2.8130044937133789     
  0.12570000000000003         -2.2685763835906982     
  0.12600000000000000         -1.6638687849044800     
  0.12630000000000002         -1.0485277175903320     
  0.12659999999999999        -0.46790993213653564     
  0.12690000000000001          4.1508719325065613E-002
  0.12719999999999998         0.45431143045425415     
  0.12750000000000000         0.75782012939453125     
  0.12780000000000002         0.95219457149505615     
  0.12809999999999999          1.0486022233963013     
  0.12840000000000001          1.0676033496856689     
  0.12869999999999998          1.0349763631820679     
  0.12900000000000000         0.97835439443588257     
  0.12930000000000003         0.92327940464019775     
  0.12959999999999999         0.88970583677291870     
  0.12990000000000002         0.88990771770477295     
  0.13019999999999998         0.92627251148223877     
  0.13050000000000000         0.99202185869216919     
  0.13080000000000003          1.0718275308609009     
  0.13109999999999999          1.1441922187805176     
  0.13140000000000002          1.1850128173828125     
  0.13169999999999998          1.1705489158630371     
  0.13200000000000001          1.0819914340972900     
  0.13229999999999997         0.90815073251724243     
  0.13260000000000000         0.64785939455032349     
  0.13290000000000002         0.31148523092269897     
  0.13319999999999999         -8.0163858830928802E-002
  0.13350000000000001        -0.49664455652236938     
  0.13380000000000003        -0.90139615535736084     
  0.13410000000000000         -1.2555831670761108     
  0.13440000000000002         -1.5219843387603760     
  0.13469999999999999         -1.6701167821884155     
  0.13500000000000001         -1.6792341470718384     
  0.13529999999999998         -1.5416207313537598     
  0.13560000000000000         -1.2636419534683228     
  0.13590000000000002        -0.86507993936538696     
  0.13619999999999999        -0.37822484970092773     
  0.13650000000000001         0.15619143843650818     
  0.13680000000000003         0.69270038604736328     
  0.13710000000000000          1.1855386495590210     
  0.13740000000000002          1.5938171148300171     
  0.13769999999999999          1.8848043680191040     
  0.13800000000000001          2.0375359058380127     
  0.13829999999999998          2.0440521240234375     
  0.13860000000000000          1.9095206260681152     
  0.13890000000000002          1.6513367891311646     
  0.13919999999999999          1.2962899208068848     
  0.13950000000000001         0.87780082225799561     
  0.13979999999999998         0.43205884099006653     
  0.14010000000000000         -5.4722037166357040E-003
  0.14040000000000002        -0.40317597985267639     
  0.14069999999999999        -0.73562204837799072     
  0.14100000000000001        -0.98473197221755981     
  0.14130000000000004         -1.1406893730163574     
  0.14160000000000000         -1.2008037567138672     
  0.14189999999999997         -1.1686601638793945     
  0.14219999999999999         -1.0528472661972046     
  0.14250000000000002        -0.86469995975494385     
  0.14279999999999998        -0.61731392145156860     
  0.14310000000000000        -0.32373645901679993     
  0.14339999999999997          3.4260414540767670E-003
  0.14369999999999999         0.35238817334175110     
  0.14400000000000002         0.71254396438598633     
  0.14429999999999998          1.0732278823852539     
  0.14460000000000001          1.4241082668304443     
  0.14490000000000003          1.7543424367904663     
  0.14520000000000000          2.0523626804351807     
  0.14550000000000002          2.3066301345825195     
  0.14579999999999999          2.5050506591796875     
  0.14610000000000001          2.6366465091705322     
  0.14640000000000003          2.6923501491546631     
  0.14670000000000000          2.6656801700592041     
  0.14699999999999996          2.5543279647827148     
  0.14729999999999999          2.3598980903625488     
  0.14760000000000001          2.0888869762420654     
  0.14789999999999998          1.7517207860946655     
  0.14820000000000000          1.3617129325866699     