  -1.4999999999999999E-002     0.0000000000000000     
  -1.4700000000000000E-002     0.0000000000000000     
  -1.4400000000000000E-002     0.0000000000000000     
  -1.4100000000000000E-002     0.0000000000000000     
  -1.3800000000000000E-002     0.0000000000000000     
  -1.3500000000000000E-002     0.0000000000000000     
  -1.3200000000000000E-002     0.0000000000000000     
  -1.2899999999999998E-002     0.0000000000000000     
  -1.2600000000000000E-002     0.0000000000000000     
  -1.2299999999999998E-002     0.0000000000000000     
  -1.2000000000000000E-002     0.0000000000000000     
  -1.1699999999999999E-002     0.0000000000000000     
  -1.1399999999999999E-002     0.0000000000000000     
  -1.1099999999999999E-002     0.0000000000000000     
  -1.0799999999999999E-002     0.0000000000000000     
  -1.0499999999999999E-002     0.0000000000000000     
  -1.0199999999999999E-002     0.0000000000000000     
  -9.8999999999999991E-003     0.0000000000000000     
  -9.5999999999999992E-003     0.0000000000000000     
  -9.2999999999999992E-003     0.0000000000000000     
  -8.9999999999999993E-003     0.0000000000000000     
  -8.6999999999999994E-003     0.0000000000000000     
  -8.3999999999999995E-003     0.0000000000000000     
  -8.0999999999999996E-003     0.0000000000000000     
  -7.7999999999999988E-003     0.0000000000000000     
  -7.4999999999999997E-003     0.0000000000000000     
  -7.1999999999999998E-003     0.0000000000000000     
  -6.8999999999999981E-003     0.0000000000000000     
  -6.5999999999999982E-003     0.0000000000000000     
  -6.3000000000000000E-003     0.0000000000000000     
  -6.0000000000000001E-003     0.0000000000000000     
  -5.6999999999999985E-003     0.0000000000000000     
  -5.3999999999999986E-003     0.0000000000000000     
  -5.1000000000000004E-003    -9.4015782043828052E-037
  -4.7999999999999987E-003     2.9679123011710381E-036
  -4.5000000000000005E-003     2.0533439753850529E-035
  -4.1999999999999989E-003    -2.7978547158195908E-034
  -3.8999999999999990E-003     1.3313391878023986E-036
  -3.5999999999999990E-003     2.9846640943812764E-033
  -3.2999999999999991E-003    -2.6439690973145143E-033
  -2.9999999999999992E-003    -1.8374161013910807E-032
  -2.6999999999999993E-003     2.7103308594720188E-032
  -2.3999999999999994E-003     1.7659456334380629E-031
  -2.0999999999999977E-003    -7.4885549405857303E-031
  -1.7999999999999995E-003     1.0665960839643705E-030
  -1.4999999999999979E-003    -5.3499423331064776E-031
  -1.1999999999999997E-003     4.0463524820841241E-032
  -8.9999999999999976E-004     1.9042481861851889E-029
  -5.9999999999999810E-004    -1.6897278774765090E-028
  -2.9999999999999992E-004     6.7536152025589713E-028
   0.0000000000000000         -1.3798213382625577E-027
   3.0000000000000165E-004     3.2587437623461732E-028
   5.9999999999999984E-004     6.9032224036039439E-027
   9.0000000000000149E-004    -2.1677198177717603E-026
   1.2000000000000031E-003     2.5109590524604535E-026
   1.5000000000000013E-003     4.6969104934577611E-026
   1.8000000000000030E-003    -3.1059544319950070E-025
   2.1000000000000012E-003     8.6287982256551250E-025
   2.3999999999999994E-003    -1.5636782127844397E-024
   2.7000000000000010E-003     1.5874695674326133E-024
   2.9999999999999992E-003     1.3891867164997569E-024
   3.3000000000000008E-003    -1.0075355147309919E-023
   3.6000000000000025E-003     3.6033399102068124E-024
   3.9000000000000007E-003     1.9682821745603876E-022
   4.2000000000000023E-003    -1.3867752641646658E-021
   4.5000000000000005E-003     5.9916569176337137E-021
   4.7999999999999987E-003    -1.9089178191248668E-020
   5.1000000000000004E-003     4.5777419100777649E-020
   5.4000000000000020E-003    -7.2964121955487926E-020
   5.7000000000000037E-003     4.1255245310170121E-021
   5.9999999999999984E-003     5.3652366586624857E-019
   6.3000000000000000E-003    -2.7836687292134638E-018
   6.6000000000000017E-003     1.0657259354512750E-017
   6.9000000000000034E-003    -3.6948880795877964E-017
   7.2000000000000015E-003     1.2555908190329396E-016
   7.5000000000000032E-003    -4.3608580728969355E-016
   7.8000000000000014E-003     1.5840397027920561E-015
   8.0999999999999996E-003    -6.0581888559007278E-015
   8.4000000000000012E-003     2.4064651570824928E-014
   8.7000000000000029E-003    -9.5941165439723114E-014
   9.0000000000000011E-003     3.6574901635978707E-013
   9.2999999999999992E-003    -1.2560293517066556E-012
   9.6000000000000009E-003     3.5606812637256624E-012
   9.8999999999999991E-003    -6.7112418053461020E-012
   1.0200000000000001E-002    -1.7763711508689273E-012
   1.0500000000000002E-002     7.8757292354403319E-011
   1.0800000000000004E-002    -3.5886829619080629E-010
   1.1099999999999999E-002     8.6936347010180270E-010
   1.1400000000000000E-002    -5.7201848813193124E-010
   1.1700000000000002E-002    -4.0220502484089593E-009
   1.2000000000000004E-002     1.5052163959694553E-008
   1.2300000000000002E-002    -1.4453856778118279E-008
   1.2600000000000000E-002    -4.5920014457578873E-008
   1.2900000000000002E-002     1.4025178529664117E-007
   1.3200000000000000E-002     1.2447372910173726E-008
   1.3500000000000002E-002    -5.4506313063029665E-007
   1.3800000000000003E-002     1.9855869481943955E-007
   1.4100000000000001E-002     1.7036853705576505E-006
   1.4400000000000000E-002    -2.6515630224821507E-007
   1.4700000000000001E-002    -5.3037274483358487E-006
   1.4999999999999999E-002    -2.6296077066945145E-006
   1.5300000000000001E-002     2.0745395886478946E-005
   1.5600000000000003E-002     6.6633016103878617E-005
   1.5899999999999997E-002     1.2688875722233206E-004
   1.6199999999999999E-002     1.9911769777536392E-004
   1.6500000000000001E-002     2.9632949735969305E-004
   1.6800000000000002E-002     4.4664117740467191E-004
   1.7100000000000004E-002     6.8934995215386152E-004
   1.7400000000000006E-002     1.0692515643313527E-003
   1.7700000000000000E-002     1.6402138862758875E-003
   1.8000000000000002E-002     2.4773164186626673E-003
   1.8300000000000004E-002     3.6856611259281635E-003
   1.8600000000000005E-002     5.4081128910183907E-003
   1.8900000000000000E-002     7.8319432213902473E-003
   1.9200000000000002E-002     1.1190905235707760E-002
   1.9500000000000003E-002     1.5764525160193443E-002
   1.9799999999999998E-002     2.1876843646168709E-002
   2.0100000000000000E-002     2.9896782711148262E-002
   2.0400000000000001E-002     4.0225535631179810E-002
   2.0700000000000003E-002     5.3257826715707779E-002
   2.0999999999999998E-002     6.9339349865913391E-002
   2.1299999999999999E-002     8.8720187544822693E-002
   2.1600000000000001E-002    0.11148072034120560     
   2.1900000000000003E-002    0.13742874562740326     
   2.2200000000000004E-002    0.16599102318286896     
   2.2500000000000006E-002    0.19610606133937836     
   2.2800000000000001E-002    0.22612670063972473     
   2.3100000000000002E-002    0.25373053550720215     
   2.3400000000000004E-002    0.27588295936584473     
   2.3699999999999999E-002    0.28884878754615784     
   2.4000000000000000E-002    0.28828850388526917     
   2.4300000000000002E-002    0.26944276690483093     
   2.4599999999999997E-002    0.22743035852909088     
   2.4900000000000005E-002    0.15766030550003052     
   2.5200000000000000E-002     5.6357663124799728E-002
   2.5499999999999995E-002    -7.8880481421947479E-002
   2.5800000000000003E-002   -0.24849690496921539     
   2.6099999999999998E-002   -0.45041534304618835     
   2.6400000000000007E-002   -0.67960041761398315     
   2.6700000000000002E-002   -0.92774069309234619     
   2.6999999999999996E-002    -1.1832710504531860     
   2.7300000000000005E-002    -1.4316700696945190     
   2.7600000000000000E-002    -1.6560559272766113     
   2.7900000000000008E-002    -1.8381927013397217     
   2.8200000000000003E-002    -1.9596900939941406     
   2.8499999999999998E-002    -2.0035319328308105     
   2.8800000000000006E-002    -1.9555826187133789     
   2.9100000000000001E-002    -1.8061038255691528     
   2.9400000000000003E-002    -1.5510755777359009     
   2.9700000000000004E-002    -1.1929856538772583     
   3.0000000000000006E-002   -0.74155908823013306     
   3.0300000000000001E-002   -0.21325214207172394     
   3.0600000000000002E-002    0.36923146247863770     
   3.0900000000000004E-002    0.97832185029983521     
   3.1199999999999999E-002     1.5835433006286621     
   3.1500000000000007E-002     2.1532490253448486     
   3.1800000000000002E-002     2.6571283340454102     
   3.2099999999999997E-002     3.0685408115386963     
   3.2400000000000005E-002     3.3659214973449707     
   3.2700000000000000E-002     3.5348753929138184     
   3.3000000000000002E-002     3.5685765743255615     
   3.3300000000000003E-002     3.4680469036102295     
   3.3599999999999998E-002     3.2421374320983887     
   3.3900000000000000E-002     2.9060142040252686     
   3.4200000000000001E-002     2.4803011417388916     
   3.4500000000000003E-002     1.9890908002853394     
   3.4799999999999998E-002     1.4580240249633789     
   3.5099999999999999E-002    0.91285938024520874     
   3.5400000000000001E-002    0.37737962603569031     
   3.5699999999999996E-002   -0.12740045785903931     
   3.6000000000000004E-002   -0.58442813158035278     
   3.6299999999999999E-002   -0.98110783100128174     
   3.6600000000000008E-002    -1.3092074394226074     
   3.6900000000000002E-002    -1.5648556947708130     
   3.7199999999999997E-002    -1.7480888366699219     
   3.7500000000000006E-002    -1.8620067834854126     
   3.7800000000000000E-002    -1.9123769998550415     
   3.8100000000000009E-002    -1.9068347215652466     
   3.8400000000000004E-002    -1.8542690277099609     
   3.8699999999999998E-002    -1.7645448446273804     
   3.9000000000000007E-002    -1.6478116512298584     
   3.9300000000000002E-002    -1.5145438909530640     
   3.9600000000000003E-002    -1.3752543926239014     
   3.9900000000000005E-002    -1.2401384115219116     
   4.0200000000000000E-002    -1.1190993785858154     
   4.0500000000000001E-002    -1.0210918188095093     
   4.0800000000000003E-002   -0.95382118225097656     
   4.1100000000000005E-002   -0.92317229509353638     
   4.1399999999999999E-002   -0.93228632211685181     
   4.1700000000000008E-002   -0.98123276233673096     
   4.2000000000000003E-002    -1.0660474300384521     
   4.2299999999999997E-002    -1.1784100532531738     
   4.2600000000000006E-002    -1.3056683540344238     
   4.2900000000000001E-002    -1.4306858777999878     
   4.3200000000000002E-002    -1.5330439805984497     
   4.3500000000000004E-002    -1.5899773836135864     
   4.3799999999999999E-002    -1.5781872272491455     
   4.4100000000000000E-002    -1.4762344360351562     
   4.4400000000000002E-002    -1.2664412260055542     
   4.4700000000000004E-002   -0.93765747547149658     
   4.4999999999999998E-002   -0.48689502477645874     
   4.5300000000000000E-002     7.9051189124584198E-002
   4.5600000000000002E-002    0.74253815412521362     
   4.5899999999999996E-002     1.4759216308593750     
   4.6200000000000005E-002     2.2421109676361084     
   4.6500000000000000E-002     2.9970669746398926     
   4.6799999999999994E-002     3.6931922435760498     
   4.7100000000000003E-002     4.2821784019470215     
   4.7399999999999998E-002     4.7196850776672363     
   4.7700000000000006E-002     4.9688501358032227     
   4.8000000000000001E-002     5.0032734870910645     
   4.8300000000000010E-002     4.8103222846984863     
   4.8600000000000004E-002     4.3914427757263184     
   4.8899999999999999E-002     3.7629623413085938     
   4.9200000000000008E-002     2.9549787044525146     
   4.9500000000000002E-002     2.0083258152008057     
   4.9800000000000011E-002    0.97226554155349731     
   5.0100000000000006E-002   -0.10005833953619003     
   5.0400000000000000E-002    -1.1554416418075562     
   5.0700000000000009E-002    -2.1443166732788086     
   5.1000000000000004E-002    -3.0244722366333008     
   5.1299999999999998E-002    -3.7630479335784912     
   5.1600000000000007E-002    -4.3382496833801270     
   5.1900000000000002E-002    -4.7398042678833008     
   5.2200000000000010E-002    -4.9678349494934082     
   5.2500000000000005E-002    -5.0316572189331055     
   5.2800000000000000E-002    -4.9471316337585449     
   5.3099999999999994E-002    -4.7340064048767090     
   5.3400000000000003E-002    -4.4135150909423828     
   5.3699999999999998E-002    -4.0056228637695312     
   5.4000000000000006E-002    -3.5275931358337402     
   5.4300000000000001E-002    -2.9925940036773682     
   5.4599999999999996E-002    -2.4096925258636475     
   5.4900000000000004E-002    -1.7845987081527710     
   5.5199999999999999E-002    -1.1205966472625732     
   5.5499999999999994E-002   -0.42076161503791809     
   5.5800000000000002E-002    0.30989766120910645     
   5.6099999999999997E-002     1.0630812644958496     
   5.6400000000000006E-002     1.8252315521240234     
   5.6700000000000000E-002     2.5768449306488037     
   5.6999999999999995E-002     3.2927439212799072     
   5.7300000000000004E-002     3.9426534175872803     
   5.7599999999999998E-002     4.4933457374572754     
   5.7900000000000007E-002     4.9111657142639160     
   5.8200000000000002E-002     5.1648316383361816     
   5.8499999999999996E-002     5.2289924621582031     
   5.8800000000000005E-002     5.0870571136474609     
   5.9100000000000000E-002     4.7334303855895996     
   5.9400000000000008E-002     4.1753897666931152     
   5.9700000000000003E-002     3.4334323406219482     
   6.0000000000000012E-002     2.5406162738800049     
   6.0300000000000006E-002     1.5410974025726318     
   6.0600000000000001E-002    0.48692446947097778     
   6.0900000000000010E-002   -0.56505751609802246     
   6.1200000000000004E-002    -1.5571739673614502     
   6.1500000000000013E-002    -2.4354391098022461     
   6.1800000000000008E-002    -3.1525721549987793     
   6.2100000000000002E-002    -3.6720092296600342     
   6.2399999999999997E-002    -3.9696481227874756     
   6.2700000000000006E-002    -4.0353574752807617     
   6.3000000000000000E-002    -3.8739085197448730     
   6.3300000000000009E-002    -3.5033309459686279     
   6.3600000000000004E-002    -2.9542994499206543     
   6.3899999999999998E-002    -2.2673149108886719     
   6.4199999999999993E-002    -1.4896879196166992     
   6.4500000000000002E-002   -0.67310017347335815     
   6.4800000000000010E-002    0.13078035414218903     
   6.5100000000000005E-002    0.87249666452407837     
   6.5400000000000000E-002     1.5080412626266479     
   6.5700000000000008E-002     2.0019922256469727     
   6.5999999999999989E-002     2.3284201622009277     
   6.6299999999999998E-002     2.4737679958343506     
   6.6600000000000006E-002     2.4368057250976562     
   6.6900000000000001E-002     2.2288384437561035     
   6.7199999999999996E-002     1.8738845586776733     
   6.7500000000000004E-002     1.4058130979537964     
   6.7800000000000013E-002    0.86750912666320801     
   6.8099999999999994E-002    0.30741983652114868     
   6.8400000000000002E-002   -0.22455172240734100     
   6.8700000000000011E-002   -0.67989677190780640     
   6.8999999999999992E-002    -1.0169329643249512     
   6.9300000000000000E-002    -1.2037568092346191     
   6.9600000000000009E-002    -1.2215639352798462     
   6.9900000000000004E-002    -1.0677262544631958     
   7.0199999999999999E-002   -0.75544810295104980     
   7.0500000000000007E-002   -0.31456208229064941     
   7.0800000000000016E-002    0.21110936999320984     
   7.1099999999999997E-002    0.76768761873245239     
   7.1400000000000005E-002     1.2952015399932861     
   7.1700000000000000E-002     1.7341561317443848     
   7.1999999999999995E-002     2.0308539867401123     
   7.2300000000000003E-002     2.1429641246795654     
   7.2600000000000012E-002     2.0448431968688965     
   7.2900000000000006E-002     1.7299998998641968     
   7.3200000000000001E-002     1.2129404544830322     
   7.3499999999999996E-002    0.52844434976577759     
   7.3800000000000004E-002   -0.27148956060409546     
   7.4099999999999999E-002    -1.1215208768844604     
   7.4400000000000008E-002    -1.9496010541915894     
   7.4700000000000003E-002    -2.6836154460906982     
   7.5000000000000011E-002    -3.2579882144927979     
   7.5299999999999992E-002    -3.6205999851226807     
   7.5600000000000001E-002    -3.7374320030212402     
   7.5900000000000009E-002    -3.5960378646850586     
   7.6200000000000004E-002    -3.2071506977081299     
   7.6499999999999999E-002    -2.6032645702362061     
   7.6800000000000007E-002    -1.8357887268066406     
   7.7099999999999988E-002   -0.97027176618576050     
   7.7399999999999997E-002    -7.9729288816452026E-002
   7.7700000000000005E-002    0.76138001680374146     
   7.8000000000000014E-002     1.4844192266464233     
   7.8299999999999995E-002     2.0323634147644043     
   7.8600000000000003E-002     2.3638637065887451     
   7.8900000000000012E-002     2.4571878910064697     
   7.9199999999999993E-002     2.3099544048309326     
   7.9500000000000001E-002     1.9386184215545654     
   7.9800000000000010E-002     1.3762913942337036     
   8.0100000000000018E-002    0.66754871606826782     
   8.0399999999999999E-002   -0.13483679294586182     
   8.0700000000000008E-002   -0.97587537765502930     
   8.1000000000000003E-002    -1.8030196428298950     
   8.1299999999999997E-002    -2.5688652992248535     
   8.1600000000000006E-002    -3.2354245185852051     
   8.1900000000000014E-002    -3.7744238376617432     
   8.2199999999999995E-002    -4.1680865287780762     
   8.2500000000000004E-002    -4.4087615013122559     
   8.2799999999999999E-002    -4.4959254264831543     
   8.3100000000000007E-002    -4.4360060691833496     
   8.3400000000000002E-002    -4.2390613555908203     
   8.3700000000000011E-002    -3.9166724681854248     
   8.4000000000000005E-002    -3.4819502830505371     
   8.4300000000000000E-002    -2.9467329978942871     
   8.4599999999999995E-002    -2.3224782943725586     
   8.4900000000000003E-002    -1.6198805570602417     
   8.5199999999999998E-002   -0.84881925582885742     
   8.5500000000000007E-002    -2.0241044461727142E-002
   8.5800000000000001E-002    0.85467374324798584     
   8.6100000000000010E-002     1.7634383440017700     
   8.6399999999999991E-002     2.6916708946228027     
   8.6699999999999999E-002     3.6248443126678467     
   8.7000000000000008E-002     4.5467481613159180     
   8.7300000000000003E-002     5.4414491653442383     
   8.7599999999999997E-002     6.2938947677612305     
   8.7900000000000006E-002     7.0886979103088379     
   8.8200000000000014E-002     7.8126034736633301     
   8.8499999999999995E-002     8.4525461196899414     
   8.8800000000000004E-002     8.9953851699829102     
   8.9100000000000013E-002     9.4283819198608398     
   8.9399999999999993E-002     9.7362079620361328     
   8.9700000000000002E-002     9.9024190902709961     
   9.0000000000000011E-002     9.9081964492797852     
   9.0299999999999991E-002     9.7318782806396484     
   9.0600000000000000E-002     9.3517122268676758     
   9.0900000000000009E-002     8.7456798553466797     
   9.1200000000000017E-002     7.8951210975646973     
   9.1499999999999998E-002     6.7874541282653809     
   9.1800000000000007E-002     5.4177665710449219     
   9.2100000000000001E-002     3.7934019565582275     
   9.2399999999999996E-002     1.9350030422210693     
   9.2700000000000005E-002   -0.12259971350431442     
   9.3000000000000013E-002    -2.3287146091461182     
   9.3300000000000008E-002    -4.6197066307067871     
   9.3600000000000003E-002    -6.9203076362609863     
   9.3899999999999997E-002    -9.1470785140991211     
   9.4200000000000006E-002    -11.213764190673828     
   9.4500000000000001E-002    -13.034483909606934     
   9.4800000000000009E-002    -14.529929161071777     
   9.5100000000000004E-002    -15.631269454956055     
   9.5399999999999999E-002    -16.283723831176758     
   9.5699999999999993E-002    -16.450962066650391     
   9.6000000000000002E-002    -16.115608215332031     
   9.6300000000000011E-002    -15.281692504882812     
   9.6600000000000005E-002    -13.974206924438477     
   9.6900000000000000E-002    -12.237514495849609     
   9.7200000000000009E-002    -10.135055541992188     
   9.7499999999999989E-002    -7.7450876235961914     
   9.7799999999999998E-002    -5.1593213081359863     
   9.8100000000000007E-002    -2.4781866073608398     
   9.8400000000000015E-002    0.19370856881141663     
   9.8699999999999996E-002     2.7497513294219971     
   9.9000000000000005E-002     5.0886712074279785     
   9.9300000000000013E-002     7.1171445846557617     
   9.9599999999999994E-002     8.7548627853393555     
   9.9900000000000003E-002     9.9393587112426758     
  0.10020000000000001          10.627840995788574     
  0.10049999999999999          10.802564620971680     
  0.10080000000000000          10.469395637512207     
  0.10110000000000001          9.6604185104370117     
  0.10140000000000000          8.4322376251220703     
  0.10170000000000000          6.8621377944946289     
  0.10200000000000001          5.0471944808959961     
  0.10230000000000002          3.0956788063049316     
  0.10260000000000000          1.1235418319702148     
  0.10290000000000001        -0.75264590978622437     
  0.10320000000000000         -2.4239895343780518     
  0.10350000000000001         -3.7932858467102051     
  0.10380000000000000         -4.7835068702697754     
  0.10410000000000001         -5.3404784202575684     
  0.10440000000000001         -5.4371333122253418     
  0.10470000000000000         -5.0759663581848145     
  0.10500000000000000         -4.2874073982238770     
  0.10530000000000000         -3.1298949718475342     
  0.10560000000000000         -1.6849644184112549     
  0.10590000000000001         -5.2515886723995209E-002
  0.10620000000000000          1.6552671194076538     
  0.10650000000000001          3.3220818042755127     
  0.10679999999999999          4.8344135284423828     
  0.10710000000000000          6.0902590751647949     
  0.10740000000000001          7.0052099227905273     
  0.10770000000000000          7.5191826820373535     
  0.10800000000000000          7.6008348464965820     
  0.10830000000000001          7.2487988471984863     
  0.10859999999999999          6.4937906265258789     
  0.10890000000000000          5.3944911956787109     
  0.10920000000000001          4.0341711044311523     
  0.10950000000000001          2.5142779350280762     
  0.10979999999999999         0.94583135843276978     
  0.11009999999999999        -0.55774897336959839     
  0.11040000000000001         -1.8914109468460083     
  0.11070000000000001         -2.9648320674896240     
  0.11100000000000000         -3.7107479572296143     
  0.11130000000000000         -4.0901913642883301     
  0.11160000000000002         -4.0941815376281738     
  0.11190000000000001         -3.7456679344177246     
  0.11220000000000001         -3.0957739353179932     
  0.11250000000000000         -2.2199590206146240     
  0.11280000000000000         -1.2109459638595581     
  0.11309999999999999        -0.16926404833793640     
  0.11340000000000001         0.80354642868041992     
  0.11369999999999998          1.6161897182464600     
  0.11400000000000000          2.1946072578430176     
  0.11430000000000000          2.4883294105529785     
  0.11460000000000002          2.4757876396179199     
  0.11489999999999999          2.1638896465301514     
  0.11520000000000001          1.5886888504028320     
  0.11550000000000001         0.80988955497741699     
  0.11580000000000000         -9.4943657517433167E-002
  0.11609999999999999         -1.0378010272979736     
  0.11640000000000002         -1.9311097860336304     
  0.11670000000000001         -2.6940314769744873     
  0.11700000000000001         -3.2624380588531494     
  0.11730000000000000         -3.5943617820739746     
  0.11760000000000000         -3.6726641654968262     
  0.11789999999999999         -3.5079615116119385     
  0.11820000000000001         -3.1343483924865723     
  0.11850000000000001         -2.6062753200531006     
  0.11880000000000000         -1.9916129112243652     
  0.11910000000000000         -1.3621878623962402     
  0.11940000000000002        -0.78822153806686401     
  0.11970000000000001        -0.32816079258918762     
  0.12000000000000001         -2.3721491917967796E-002
  0.12030000000000000         0.10341911762952805     
  0.12060000000000000          5.5096946656703949E-002
  0.12089999999999999        -0.14816340804100037     
  0.12119999999999999        -0.46787205338478088     
  0.12150000000000001        -0.85431945323944092     
  0.12180000000000001         -1.2545491456985474     
  0.12210000000000000         -1.6160100698471069     
  0.12239999999999999         -1.8959312438964844     
  0.12270000000000002         -2.0636878013610840     
  0.12300000000000001         -2.1039924621582031     
  0.12330000000000001         -2.0185897350311279     
  0.12360000000000000         -1.8221644163131714     
  0.12390000000000000         -1.5416327714920044     
  0.12419999999999999         -1.2102130651473999     
  0.12450000000000001        -0.86231988668441772     
  0.12480000000000001        -0.53063452243804932     
  0.12509999999999999        -0.24035221338272095     
  0.12540000000000001         -7.8370217233896255E-003
  0.12570000000000003         0.16037221252918243     
  0.12600000000000000         0.26840227842330933     
  0.12630000000000002         0.32739514112472534     
  0.12659999999999999         0.35446232557296753     
  0.12690000000000001         0.36937490105628967     
  0.12719999999999998         0.39052766561508179     
  0.12750000000000000         0.43417498469352722     
  0.12780000000000002         0.51111024618148804     
  0.12809999999999999         0.62605607509613037     
  0.12840000000000001         0.77914762496948242     
  0.12869999999999998         0.96415013074874878     
  0.12900000000000000          1.1721099615097046     
  0.12930000000000003          1.3918337821960449     
  0.12959999999999999          1.6105191707611084     
  0.12990000000000002          1.8182078599929810     
  0.13019999999999998          2.0050883293151855     
  0.13050000000000000          2.1643342971801758     
  0.13080000000000003          2.2926001548767090     
  0.13109999999999999          2.3873822689056396     
  0.13140000000000002          2.4505307674407959     
  0.13169999999999998          2.4842934608459473     
  0.13200000000000001          2.4925742149353027     
  0.13229999999999997          2.4813001155853271     
  0.13260000000000000          2.4547348022460938     
  0.13290000000000002          2.4194571971893311     
  0.13319999999999999          2.3803834915161133     
  0.13350000000000001          2.3410978317260742     
  0.13380000000000003          2.3053979873657227     
  0.13410000000000000          2.2727677822113037     
  0.13440000000000002          2.2423539161682129     
  0.13469999999999999          2.2100665569305420     
  0.13500000000000001          2.1692361831665039     
  0.13529999999999998          2.1134874820709229     
  0.13560000000000000          2.0340819358825684     
  0.13590000000000002          1.9248352050781250     
  0.13619999999999999          1.7814209461212158     
  0.13650000000000001          1.6017374992370605     
  0.13680000000000003          1.3889932632446289     
  0.13710000000000000          1.1479130983352661     
  0.13740000000000002         0.88687127828598022     
  0.13769999999999999         0.61511641740798950     
  0.13800000000000001         0.33999535441398621     
  0.13829999999999998          6.7394345998764038E-002
  0.13860000000000000        -0.20251749455928802     
  0.13890000000000002        -0.47365963459014893     
  0.13919999999999999        -0.75433927774429321     
  0.13950000000000001         -1.0569999217987061     
  0.13979999999999998         -1.3929331302642822     
  0.14010000000000000         -1.7726309299468994     
  0.14040000000000002         -2.2006583213806152     
  0.14069999999999999         -2.6737585067749023     
  0.14100000000000001         -3.1808676719665527     
  0.14130000000000004         -3.7013368606567383     
  0.14160000000000000         -4.2098641395568848     
  0.14189999999999997         -4.6780533790588379     
  0.14219999999999999         -5.0795516967773438     
  0.14250000000000002         -5.3953933715820312     
  0.14279999999999998         -5.6158809661865234     
  0.14310000000000000         -5.7457723617553711     
  0.14339999999999997         -5.8018722534179688     
  0.14369999999999999         -5.8125171661376953     
  0.14400000000000002         -5.8128170967102051     
  0.14429999999999998         -5.8368949890136719     
  0.14460000000000001         -5.9134144783020020     
  0.14490000000000003         -6.0558362007141113     
  0.14520000000000000         -6.2595911026000977     
  0.14550000000000002         -6.4980692863464355     
  0.14579999999999999         -6.7226719856262207     
  0.14610000000000001         -6.8690681457519531     
  0.14640000000000003         -6.8613018989562988     
  0.14670000000000000         -6.6246743202209473     
  0.14699999999999996         -6.0955729484558105     
  0.14729999999999999         -5.2306494712829590     
  0.14760000000000001         -4.0183219909667969     
  0.14789999999999998         -2.4806258678436279     
  0.14820000000000000        -0.67585897445678711     