  -1.4999999999999999E-002     0.0000000000000000     
  -1.4700000000000000E-002     0.0000000000000000     
  -1.4400000000000000E-002     0.0000000000000000     
  -1.4100000000000000E-002     0.0000000000000000     
  -1.3800000000000000E-002     0.0000000000000000     
  -1.3500000000000000E-002     0.0000000000000000     
  -1.3200000000000000E-002     0.0000000000000000     
  -1.2899999999999998E-002     0.0000000000000000     
  -1.2600000000000000E-002     0.0000000000000000     
  -1.2299999999999998E-002     0.0000000000000000     
  -1.2000000000000000E-002     0.0000000000000000     
  -1.1699999999999999E-002     0.0000000000000000     
  -1.1399999999999999E-002     0.0000000000000000     
  -1.1099999999999999E-002     0.0000000000000000     
  -1.0799999999999999E-002     0.0000000000000000     
  -1.0499999999999999E-002     0.0000000000000000     
  -1.0199999999999999E-002     0.0000000000000000     
  -9.8999999999999991E-003     0.0000000000000000     
  -9.5999999999999992E-003     0.0000000000000000     
  -9.2999999999999992E-003     0.0000000000000000     
  -8.9999999999999993E-003     0.0000000000000000     
  -8.6999999999999994E-003     0.0000000000000000     
  -8.3999999999999995E-003     0.0000000000000000     
  -8.0999999999999996E-003     0.0000000000000000     
  -7.7999999999999988E-003     0.0000000000000000     
  -7.4999999999999997E-003     0.0000000000000000     
  -7.1999999999999998E-003     0.0000000000000000     
  -6.8999999999999981E-003     0.0000000000000000     
  -6.5999999999999982E-003     0.0000000000000000     
  -6.3000000000000000E-003     0.0000000000000000     
  -6.0000000000000001E-003     0.0000000000000000     
  -5.6999999999999985E-003     0.0000000000000000     
  -5.3999999999999986E-003     0.0000000000000000     
  -5.1000000000000004E-003     0.0000000000000000     
  -4.7999999999999987E-003     0.0000000000000000     
  -4.5000000000000005E-003     0.0000000000000000     
  -4.1999999999999989E-003     0.0000000000000000     
  -3.8999999999999990E-003     0.0000000000000000     
  -3.5999999999999990E-003     0.0000000000000000     
  -3.2999999999999991E-003     0.0000000000000000     
  -2.9999999999999992E-003     0.0000000000000000     
  -2.6999999999999993E-003     0.0000000000000000     
  -2.3999999999999994E-003     0.0000000000000000     
  -2.0999999999999977E-003     0.0000000000000000     
  -1.7999999999999995E-003     0.0000000000000000     
  -1.4999999999999979E-003     0.0000000000000000     
  -1.1999999999999997E-003     0.0000000000000000     
  -8.9999999999999976E-004     0.0000000000000000     
  -5.9999999999999810E-004     0.0000000000000000     
  -2.9999999999999992E-004     0.0000000000000000     
   0.0000000000000000          0.0000000000000000     
   3.0000000000000165E-004     0.0000000000000000     
   5.9999999999999984E-004     0.0000000000000000     
   9.0000000000000149E-004     0.0000000000000000     
   1.2000000000000031E-003     0.0000000000000000     
   1.5000000000000013E-003     0.0000000000000000     
   1.8000000000000030E-003     0.0000000000000000     
   2.1000000000000012E-003     0.0000000000000000     
   2.3999999999999994E-003     0.0000000000000000     
   2.7000000000000010E-003     0.0000000000000000     
   2.9999999999999992E-003     0.0000000000000000     
   3.3000000000000008E-003     0.0000000000000000     
   3.6000000000000025E-003     0.0000000000000000     
   3.9000000000000007E-003     0.0000000000000000     
   4.2000000000000023E-003     0.0000000000000000     
   4.5000000000000005E-003     0.0000000000000000     
   4.7999999999999987E-003     0.0000000000000000     
   5.1000000000000004E-003     0.0000000000000000     
   5.4000000000000020E-003     0.0000000000000000     
   5.7000000000000037E-003     0.0000000000000000     
   5.9999999999999984E-003     0.0000000000000000     
   6.3000000000000000E-003     0.0000000000000000     
   6.6000000000000017E-003    -7.6527460621022103E-037
   6.9000000000000034E-003     6.6892451652166772E-036
   7.2000000000000015E-003     1.3373984938389029E-034
   7.5000000000000032E-003    -2.1284753352155933E-033
   7.8000000000000014E-003     3.8785127538114285E-033
   8.0999999999999996E-003     1.0966472443948370E-031
   8.4000000000000012E-003    -1.1133292254547575E-030
   8.7000000000000029E-003     3.0429459903239123E-030
   9.0000000000000011E-003     2.4839717568920832E-029
   9.2999999999999992E-003    -2.6027886344336510E-028
   9.6000000000000009E-003     7.6227532012044179E-028
   9.8999999999999991E-003     2.6303954438872324E-027
   1.0200000000000001E-002    -3.1428930287712556E-026
   1.0500000000000002E-002     1.0656018156791772E-025
   1.0800000000000004E-002     3.9488823845456697E-026
   1.1099999999999999E-002    -1.8698496254198478E-024
   1.1400000000000000E-002     7.8915436147775402E-024
   1.1700000000000002E-002    -1.0688150187094654E-023
   1.2000000000000004E-002    -4.4740012736781739E-023
   1.2300000000000002E-002     2.8546568899572827E-022
   1.2600000000000000E-002    -6.4902774932767182E-022
   1.2900000000000002E-002    -2.4308391598167595E-022
   1.3200000000000000E-002     6.9484706262231523E-021
   1.3500000000000002E-002    -2.5551817532503297E-020
   1.3800000000000003E-002     4.6504863057206949E-020
   1.4100000000000001E-002    -2.3833335269640177E-021
   1.4400000000000000E-002    -2.5208618680767912E-019
   1.4700000000000001E-002     7.1045379589443144E-019
   1.4999999999999999E-002    -2.1568248503710322E-019
   1.5300000000000001E-002    -5.8117858730485984E-018
   1.5600000000000003E-002     2.7801050696984629E-017
   1.5899999999999997E-002    -8.0957351073201994E-017
   1.6199999999999999E-002     2.1067414052020799E-016
   1.6500000000000001E-002    -9.4682983970420997E-016
   1.6800000000000002E-002     7.0219031327381498E-015
   1.7100000000000004E-002    -4.9280397200045928E-014
   1.7400000000000006E-002     2.8645637836603732E-013
   1.7700000000000000E-002    -1.3757456545498981E-012
   1.8000000000000002E-002     5.4255246129120138E-012
   1.8300000000000004E-002    -1.6896317678316564E-011
   1.8600000000000005E-002     3.6553697568830756E-011
   1.8900000000000000E-002    -2.3931173015467877E-011
   1.9200000000000002E-002    -2.0097987163403275E-010
   1.9500000000000003E-002     9.8288321925821265E-010
   1.9799999999999998E-002    -2.0741386386191607E-009
   2.0100000000000000E-002     2.4351493044250105E-010
   2.0400000000000001E-002     1.1113376885418802E-008
   2.0700000000000003E-002    -2.6185638546394330E-008
   2.0999999999999998E-002    -3.4149896244173306E-009
   2.1299999999999999E-002     1.1577669312146099E-007
   2.1600000000000001E-002    -1.1365284535713727E-007
   2.1900000000000003E-002    -3.3734684734554321E-007
   2.2200000000000004E-002     4.7415193193955929E-007
   2.2500000000000006E-002     1.0339567779737990E-006
   2.2800000000000001E-002    -1.1012012919309200E-006
   2.3100000000000002E-002    -3.7586014514090493E-006
   2.3400000000000004E-002     8.7308995944113121E-007
   2.3699999999999999E-002     1.8917358829639852E-005
   2.4000000000000000E-002     4.8458972742082551E-005
   2.4300000000000002E-002     8.4579434769693762E-005
   2.4599999999999997E-002     1.2916646664962173E-004
   2.4900000000000005E-002     1.9399481243453920E-004
   2.5200000000000000E-002     2.9876484768465161E-004
   2.5499999999999995E-002     4.6752786147408187E-004
   2.5800000000000003E-002     7.2738336166366935E-004
   2.6099999999999998E-002     1.1141612194478512E-003
   2.6400000000000007E-002     1.6794004477560520E-003
   2.6700000000000002E-002     2.4951272644102573E-003
   2.6999999999999996E-002     3.6589999217540026E-003
   2.7300000000000005E-002     5.2978093735873699E-003
   2.7600000000000000E-002     7.5688320212066174E-003
   2.7900000000000008E-002     1.0661045089364052E-002
   2.8200000000000003E-002     1.4797900803387165E-002
   2.8499999999999998E-002     2.0238090306520462E-002
   2.8800000000000006E-002     2.7263430878520012E-002
   2.9100000000000001E-002     3.6159250885248184E-002
   2.9400000000000003E-002     4.7192718833684921E-002
   2.9700000000000004E-002     6.0582701116800308E-002
   3.0000000000000006E-002     7.6451115310192108E-002
   3.0300000000000001E-002     9.4760946929454803E-002
   3.0600000000000002E-002    0.11525105684995651     
   3.0900000000000004E-002    0.13737376034259796     
   3.1199999999999999E-002    0.16022388637065887     
   3.1500000000000007E-002    0.18247738480567932     
   3.1800000000000002E-002    0.20236684381961823     
   3.2099999999999997E-002    0.21766969561576843     
   3.2400000000000005E-002    0.22576402127742767     
   3.2700000000000000E-002    0.22371315956115723     
   3.3000000000000002E-002    0.20842283964157104     
   3.3300000000000003E-002    0.17688913643360138     
   3.3599999999999998E-002    0.12645864486694336     
   3.3900000000000000E-002     5.5197805166244507E-002
   3.4200000000000001E-002    -3.7819821387529373E-002
   3.4500000000000003E-002   -0.15212856233119965     
   3.4799999999999998E-002   -0.28562000393867493     
   3.5099999999999999E-002   -0.43435201048851013     
   3.5400000000000001E-002   -0.59245961904525757     
   3.5699999999999996E-002   -0.75231844186782837     
   3.6000000000000004E-002   -0.90477192401885986     
   3.6299999999999999E-002    -1.0396785736083984     
   3.6600000000000008E-002    -1.1464900970458984     
   3.6900000000000002E-002    -1.2150858640670776     
   3.7199999999999997E-002    -1.2365750074386597     
   3.7500000000000006E-002    -1.2040826082229614     
   3.7800000000000000E-002    -1.1136153936386108     
   3.8100000000000009E-002   -0.96443367004394531     
   3.8400000000000004E-002   -0.75958770513534546     
   3.8699999999999998E-002   -0.50581276416778564     
   3.9000000000000007E-002   -0.21323364973068237     
   3.9300000000000002E-002    0.10501961410045624     
   3.9600000000000003E-002    0.43389201164245605     
   3.9900000000000005E-002    0.75724786520004272     
   4.0200000000000000E-002     1.0590056180953979     
   4.0500000000000001E-002     1.3244088888168335     
   4.0800000000000003E-002     1.5407850742340088     
   4.1100000000000005E-002     1.6985980272293091     
   4.1399999999999999E-002     1.7918424606323242     
   4.1700000000000008E-002     1.8183767795562744     
   4.2000000000000003E-002     1.7798893451690674     
   4.2299999999999997E-002     1.6814742088317871     
   4.2600000000000006E-002     1.5311557054519653     
   4.2900000000000001E-002     1.3390165567398071     
   4.3200000000000002E-002     1.1165118217468262     
   4.3500000000000004E-002    0.87543261051177979     
   4.3799999999999999E-002    0.62736886739730835     
   4.4100000000000000E-002    0.38278263807296753     
   4.4400000000000002E-002    0.15062327682971954     
   4.4700000000000004E-002    -6.1952747404575348E-002
   4.4999999999999998E-002   -0.24992175400257111     
   4.5300000000000000E-002   -0.41003766655921936     
   4.5600000000000002E-002   -0.54098802804946899     
   4.5899999999999996E-002   -0.64289903640747070     
   4.6200000000000005E-002   -0.71707147359848022     
   4.6500000000000000E-002   -0.76578640937805176     
   4.6799999999999994E-002   -0.79167354106903076     
   4.7100000000000003E-002   -0.79767847061157227     
   4.7399999999999998E-002   -0.78668254613876343     
   4.7700000000000006E-002   -0.76131880283355713     
   4.8000000000000001E-002   -0.72406774759292603     
   4.8300000000000010E-002   -0.67690050601959229     
   4.8600000000000004E-002   -0.62162035703659058     
   4.8899999999999999E-002   -0.55979704856872559     
   4.9200000000000008E-002   -0.49278849363327026     
   4.9500000000000002E-002   -0.42217069864273071     
   4.9800000000000011E-002   -0.34950175881385803     
   5.0100000000000006E-002   -0.27674862742424011     
   5.0400000000000000E-002   -0.20628894865512848     
   5.0700000000000009E-002   -0.14091545343399048     
   5.1000000000000004E-002    -8.4016501903533936E-002
   5.1299999999999998E-002    -3.9305478334426880E-002
   5.1600000000000007E-002    -1.0814648121595383E-002
   5.1900000000000002E-002    -2.5514941662549973E-003
   5.2200000000000010E-002    -1.8180137500166893E-002
   5.2500000000000005E-002    -6.0560554265975952E-002
   5.2800000000000000E-002   -0.13125564157962799     
   5.3099999999999994E-002   -0.23010182380676270     
   5.3400000000000003E-002   -0.35464042425155640     
   5.3699999999999998E-002   -0.49987760186195374     
   5.4000000000000006E-002   -0.65806841850280762     
   5.4300000000000001E-002   -0.81891065835952759     
   5.4599999999999996E-002   -0.96977746486663818     
   5.4900000000000004E-002    -1.0964202880859375     
   5.5199999999999999E-002    -1.1840400695800781     
   5.5499999999999994E-002    -1.2182480096817017     
   5.5800000000000002E-002    -1.1866397857666016     
   5.6099999999999997E-002    -1.0798527002334595     
   5.6400000000000006E-002   -0.89288789033889771     
   5.6700000000000000E-002   -0.62616503238677979     
   5.6999999999999995E-002   -0.28568494319915771     
   5.7300000000000004E-002    0.11630669236183167     
   5.7599999999999998E-002    0.56243693828582764     
   5.7900000000000007E-002     1.0307201147079468     
   5.8200000000000002E-002     1.4960544109344482     
   5.8499999999999996E-002     1.9323140382766724     
   5.8800000000000005E-002     2.3137221336364746     
   5.9100000000000000E-002     2.6174449920654297     
   5.9400000000000008E-002     2.8246486186981201     
   5.9700000000000003E-002     2.9225223064422607     
   6.0000000000000012E-002     2.9047684669494629     
   6.0300000000000006E-002     2.7719290256500244     
   6.0600000000000001E-002     2.5315523147583008     
   6.0900000000000010E-002     2.1968145370483398     
   6.1200000000000004E-002     1.7860872745513916     
   6.1500000000000013E-002     1.3207473754882812     
   6.1800000000000008E-002    0.82393044233322144     
   6.2100000000000002E-002    0.31887978315353394     
   6.2399999999999997E-002   -0.17291927337646484     
   6.2700000000000006E-002   -0.63225215673446655     
   6.3000000000000000E-002    -1.0437867641448975     
   6.3300000000000009E-002    -1.3961182832717896     
   6.3600000000000004E-002    -1.6819115877151489     
   6.3899999999999998E-002    -1.8980315923690796     
   6.4199999999999993E-002    -2.0444550514221191     
   6.4500000000000002E-002    -2.1245322227478027     
   6.4800000000000010E-002    -2.1433281898498535     
   6.5100000000000005E-002    -2.1077401638031006     
   6.5400000000000000E-002    -2.0254323482513428     
   6.5700000000000008E-002    -1.9044770002365112     
   6.5999999999999989E-002    -1.7531732320785522     
   6.6299999999999998E-002    -1.5793700218200684     
   6.6600000000000006E-002    -1.3911505937576294     
   6.6900000000000001E-002    -1.1959832906723022     
   6.7199999999999996E-002    -1.0013753175735474     
   6.7500000000000004E-002   -0.81442183256149292     
   6.7800000000000013E-002   -0.64152318239212036     
   6.8099999999999994E-002   -0.48877146840095520     
   6.8400000000000002E-002   -0.36057937145233154     
   6.8700000000000011E-002   -0.26028701663017273     
   6.8999999999999992E-002   -0.18884354829788208     
   6.9300000000000000E-002   -0.14477331936359406     
   6.9600000000000009E-002   -0.12389998137950897     
   6.9900000000000004E-002   -0.11878672987222672     
   7.0199999999999999E-002   -0.11973884701728821     
   7.0500000000000007E-002   -0.11435116082429886     
   7.0800000000000016E-002    -8.9373715221881866E-002
   7.1099999999999997E-002    -3.1321685761213303E-002
   7.1400000000000005E-002     7.2165019810199738E-002
   7.1700000000000000E-002    0.23016031086444855     
   7.1999999999999995E-002    0.44788807630538940     
   7.2300000000000003E-002    0.72455018758773804     
   7.2600000000000012E-002     1.0533086061477661     
   7.2900000000000006E-002     1.4206224679946899     
   7.3200000000000001E-002     1.8066034317016602     
   7.3499999999999996E-002     2.1865751743316650     
   7.3800000000000004E-002     2.5321953296661377     
   7.4099999999999999E-002     2.8142073154449463     
   7.4400000000000008E-002     3.0045676231384277     
   7.4700000000000003E-002     3.0792918205261230     
   7.5000000000000011E-002     3.0208804607391357     
   7.5299999999999992E-002     2.8198914527893066     
   7.5600000000000001E-002     2.4768393039703369     
   7.5900000000000009E-002     2.0019693374633789     
   7.6200000000000004E-002     1.4154162406921387     
   7.6499999999999999E-002    0.74545365571975708     
   7.6800000000000007E-002     2.6644729077816010E-002
   7.7099999999999988E-002   -0.70252948999404907     
   7.7399999999999997E-002    -1.4031497240066528     
   7.7700000000000005E-002    -2.0382819175720215     
   7.8000000000000014E-002    -2.5757410526275635     
   7.8299999999999995E-002    -2.9907102584838867     
   7.8600000000000003E-002    -3.2666203975677490     
   7.8900000000000012E-002    -3.3967611789703369     
   7.9199999999999993E-002    -3.3835439682006836     
   7.9500000000000001E-002    -3.2381367683410645     
   7.9800000000000010E-002    -2.9791102409362793     
   8.0100000000000018E-002    -2.6296956539154053     
   8.0399999999999999E-002    -2.2168824672698975     
   8.0700000000000008E-002    -1.7679388523101807     
   8.1000000000000003E-002    -1.3088746070861816     
   8.1299999999999997E-002   -0.86257088184356689     
   8.1600000000000006E-002   -0.44659405946731567     
   8.1900000000000014E-002    -7.3408521711826324E-002
   8.2199999999999995E-002    0.25135779380798340     
   8.2500000000000004E-002    0.52748012542724609     
   8.2799999999999999E-002    0.76008844375610352     
   8.3100000000000007E-002    0.95879292488098145     
   8.3400000000000002E-002     1.1350204944610596     
   8.3700000000000011E-002     1.3019250631332397     
   8.4000000000000005E-002     1.4709581136703491     
   8.4300000000000000E-002     1.6512414216995239     
   8.4599999999999995E-002     1.8477861881256104     
   8.4900000000000003E-002     2.0599157810211182     
   8.5199999999999998E-002     2.2818326950073242     
   8.5500000000000007E-002     2.5011870861053467     
   8.5800000000000001E-002     2.7010090351104736     
   8.6100000000000010E-002     2.8603000640869141     
   8.6399999999999991E-002     2.9559485912322998     
   8.6699999999999999E-002     2.9653692245483398     
   8.7000000000000008E-002     2.8683521747589111     
   8.7300000000000003E-002     2.6500928401947021     
   8.7599999999999997E-002     2.3026444911956787     
   8.7900000000000006E-002     1.8271273374557495     
   8.8200000000000014E-002     1.2341611385345459     
   8.8499999999999995E-002    0.54382669925689697     
   8.8800000000000004E-002   -0.21503101289272308     
   8.9100000000000013E-002    -1.0069925785064697     
   8.9399999999999993E-002    -1.7919268608093262     
   8.9700000000000002E-002    -2.5290815830230713     
   9.0000000000000011E-002    -3.1789660453796387     
   9.0299999999999991E-002    -3.7073218822479248     
   9.0600000000000000E-002    -4.0876712799072266     
   9.0900000000000009E-002    -4.3023080825805664     
   9.1200000000000017E-002    -4.3448677062988281     
   9.1499999999999998E-002    -4.2188377380371094     
   9.1800000000000007E-002    -3.9377374649047852     
   9.2100000000000001E-002    -3.5230917930603027     
   9.2399999999999996E-002    -3.0016381740570068     
   9.2700000000000005E-002    -2.4041633605957031     
   9.3000000000000013E-002    -1.7612645626068115     
   9.3300000000000008E-002    -1.1024006605148315     
   9.3600000000000003E-002   -0.45355457067489624     
   9.3899999999999997E-002    0.16428461670875549     
   9.4200000000000006E-002    0.73463869094848633     
   9.4500000000000001E-002     1.2460957765579224     
   9.4800000000000009E-002     1.6911509037017822     
   9.5100000000000004E-002     2.0649743080139160     
   9.5399999999999999E-002     2.3645715713500977     
   9.5699999999999993E-002     2.5872271060943604     
   9.6000000000000002E-002     2.7302155494689941     
   9.6300000000000011E-002     2.7900450229644775     
   9.6600000000000005E-002     2.7629685401916504     
   9.6900000000000000E-002     2.6453640460968018     
   9.7200000000000009E-002     2.4353220462799072     
   9.7499999999999989E-002     2.1333587169647217     
   9.7799999999999998E-002     1.7444002628326416     
   9.8100000000000007E-002     1.2785807847976685     
   9.8400000000000015E-002    0.75142234563827515     
   9.8699999999999996E-002    0.18502835929393768     
   9.9000000000000005E-002   -0.39422088861465454     
   9.9300000000000013E-002   -0.95557481050491333     
   9.9599999999999994E-002    -1.4666773080825806     
   9.9900000000000003E-002    -1.8964395523071289     
  0.10020000000000001         -2.2164185047149658     
  0.10049999999999999         -2.4050545692443848     
  0.10080000000000000         -2.4479331970214844     
  0.10110000000000001         -2.3408186435699463     
  0.10140000000000000         -2.0900585651397705     
  0.10170000000000000         -1.7114202976226807     
  0.10200000000000001         -1.2307077646255493     
  0.10230000000000002        -0.68009316921234131     
  0.10260000000000000         -9.6769757568836212E-002
  0.10290000000000001         0.48013702034950256     
  0.10320000000000000          1.0127266645431519     
  0.10350000000000001          1.4664465188980103     
  0.10380000000000000          1.8131657838821411     
  0.10410000000000001          2.0320992469787598     
  0.10440000000000001          2.1115515232086182     
  0.10470000000000000          2.0489156246185303     
  0.10500000000000000          1.8503574132919312     
  0.10530000000000000          1.5305167436599731     
  0.10560000000000000          1.1112366914749146     
  0.10590000000000001         0.62024110555648804     
  0.10620000000000000          8.9072644710540771E-002
  0.10650000000000001        -0.44771164655685425     
  0.10679999999999999        -0.95455312728881836     
  0.10710000000000000         -1.3968982696533203     
  0.10740000000000001         -1.7427235841751099     
  0.10770000000000000         -1.9647178649902344     
  0.10800000000000000         -2.0414848327636719     
  0.10830000000000001         -1.9598091840744019     
  0.10859999999999999         -1.7154123783111572     
  0.10890000000000000         -1.3142822980880737     
  0.10920000000000001        -0.77351915836334229     
  0.10950000000000001        -0.12025644630193710     
  0.10979999999999999         0.60851389169692993     
  0.11009999999999999          1.3682949542999268     
  0.11040000000000001          2.1094245910644531     
  0.11070000000000001          2.7803354263305664     
  0.11100000000000000          3.3311576843261719     
  0.11130000000000000          3.7170469760894775     
  0.11160000000000002          3.9027125835418701     
  0.11190000000000001          3.8643932342529297     
  0.11220000000000001          3.5924971103668213     
  0.11250000000000000          3.0933184623718262     
  0.11280000000000000          2.3886654376983643     
  0.11309999999999999          1.5152957439422607     
  0.11340000000000001         0.52264243364334106     
  0.11369999999999998        -0.53033596277236938     
  0.11400000000000000         -1.5790770053863525     
  0.11430000000000000         -2.5574560165405273     
  0.11460000000000002         -3.4024443626403809     
  0.11489999999999999         -4.0584626197814941     
  0.11520000000000001         -4.4817910194396973     
  0.11550000000000001         -4.6431055068969727     
  0.11580000000000000         -4.5302252769470215     
  0.11609999999999999         -4.1493210792541504     
  0.11640000000000002         -3.5240910053253174     
  0.11670000000000001         -2.6951198577880859     
  0.11700000000000001         -1.7168043851852417     
  0.11730000000000000        -0.65391725301742554     
  0.11760000000000000         0.42281001806259155     
  0.11789999999999999          1.4423984289169312     
  0.11820000000000001          2.3374893665313721     
  0.11850000000000001          3.0501568317413330     
  0.11880000000000000          3.5360670089721680     
  0.11910000000000000          3.7669363021850586     
  0.11940000000000002          3.7335736751556396     
  0.11970000000000001          3.4455626010894775     
  0.12000000000000001          2.9305555820465088     
  0.12030000000000000          2.2319333553314209     
  0.12060000000000000          1.4046336412429810     
  0.12089999999999999         0.51140570640563965     
  0.12119999999999999        -0.38317093253135681     
  0.12150000000000001         -1.2176107168197632     
  0.12180000000000001         -1.9381364583969116     
  0.12210000000000000         -2.5033288002014160     
  0.12239999999999999         -2.8861105442047119     
  0.12270000000000002         -3.0755970478057861     
  0.12300000000000001         -3.0771765708923340     
  0.12330000000000001         -2.9105722904205322     
  0.12360000000000000         -2.6071226596832275     
  0.12390000000000000         -2.2060184478759766     
  0.12419999999999999         -1.7500183582305908     
  0.12450000000000001         -1.2809925079345703     
  0.12480000000000001        -0.83549124002456665     
  0.12509999999999999        -0.44215515255928040     
  0.12540000000000001        -0.11917677521705627     
  0.12570000000000003         0.12682022154331207     
  0.12600000000000000         0.29939943552017212     
  0.12630000000000002         0.41171795129776001     
  0.12659999999999999         0.48304399847984314     
  0.12690000000000001         0.53505176305770874     
  0.12719999999999998         0.58956789970397949     
  0.12750000000000000         0.66346120834350586     
  0.12780000000000002         0.76705467700958252     
  0.12809999999999999         0.90216267108917236     
  0.12840000000000001          1.0608583688735962     
  0.12869999999999998          1.2276704311370850     
  0.12900000000000000          1.3799202442169189     
  0.12930000000000003          1.4920921325683594     
  0.12959999999999999          1.5387787818908691     
  0.12990000000000002          1.4981800317764282     
  0.13019999999999998          1.3567041158676147     
  0.13050000000000000          1.1103222370147705     
  0.13080000000000003         0.76706182956695557     
  0.13109999999999999         0.34638190269470215     
  0.13140000000000002        -0.12194905430078506     
  0.13169999999999998        -0.60035812854766846     
  0.13200000000000001         -1.0476070642471313     
  0.13229999999999997         -1.4229162931442261     
  0.13260000000000000         -1.6906746625900269     
  0.13290000000000002         -1.8244444131851196     
  0.13319999999999999         -1.8101176023483276     
  0.13350000000000001         -1.6470583677291870     
  0.13380000000000003         -1.3493133783340454     
  0.13410000000000000        -0.94325029850006104     
  0.13440000000000002        -0.46503707766532898     
  0.13469999999999999          4.2607404291629791E-002
  0.13500000000000001         0.53595972061157227     
  0.13529999999999998         0.97367733716964722     
  0.13560000000000000          1.3215454816818237     
  0.13590000000000002          1.5553386211395264     
  0.13619999999999999          1.6620604991912842     
  0.13650000000000001          1.6416722536087036     
  0.13680000000000003          1.5046939849853516     
  0.13710000000000000          1.2715965509414673     
  0.13740000000000002         0.96965718269348145     
  0.13769999999999999         0.62900483608245850     
  0.13800000000000001         0.28100016713142395     
  0.13829999999999998         -4.6118877828121185E-002
  0.13860000000000000        -0.32809865474700928     
  0.13890000000000002        -0.54622477293014526     
  0.13919999999999999        -0.68864810466766357     
  0.13950000000000001        -0.74858796596527100     
  0.13979999999999998        -0.72524410486221313     
  0.14010000000000000        -0.62149256467819214     
  0.14040000000000002        -0.44273814558982849     
  0.14069999999999999        -0.19712777435779572     
  0.14100000000000001         0.10653781890869141     
  0.14130000000000004         0.45837828516960144     
  0.14160000000000000         0.84772092103958130     
  0.14189999999999997          1.2631819248199463     
  0.14219999999999999          1.6913841962814331     
  0.14250000000000002          2.1176996231079102     
  0.14279999999999998          2.5257885456085205     
  0.14310000000000000          2.8974843025207520     
  0.14339999999999997          3.2145016193389893     
  0.14369999999999999          3.4583272933959961     
  0.14400000000000002          3.6120922565460205     
  0.14429999999999998          3.6618928909301758     
  0.14460000000000001          3.5977234840393066     
  0.14490000000000003          3.4151339530944824     
  0.14520000000000000          3.1150066852569580     
  0.14550000000000002          2.7040069103240967     
  0.14579999999999999          2.1942083835601807     
  0.14610000000000001          1.6012021303176880     
  0.14640000000000003         0.94339901208877563     
  0.14670000000000000         0.24000537395477295     
  0.14699999999999996        -0.49150133132934570     
  0.14729999999999999         -1.2354900836944580     
  0.14760000000000001         -1.9802134037017822     
  0.14789999999999998         -2.7173349857330322     
  0.14820000000000000         -3.4422714710235596     