  -1.4999999999999999E-002     0.0000000000000000     
  -1.4700000000000000E-002     0.0000000000000000     
  -1.4400000000000000E-002     0.0000000000000000     
  -1.4100000000000000E-002     0.0000000000000000     
  -1.3800000000000000E-002     0.0000000000000000     
  -1.3500000000000000E-002     0.0000000000000000     
  -1.3200000000000000E-002     0.0000000000000000     
  -1.2899999999999998E-002     0.0000000000000000     
  -1.2600000000000000E-002     0.0000000000000000     
  -1.2299999999999998E-002     0.0000000000000000     
  -1.2000000000000000E-002     0.0000000000000000     
  -1.1699999999999999E-002     0.0000000000000000     
  -1.1399999999999999E-002     0.0000000000000000     
  -1.1099999999999999E-002     0.0000000000000000     
  -1.0799999999999999E-002     0.0000000000000000     
  -1.0499999999999999E-002    -1.4302825714362955E-039
  -1.0199999999999999E-002     5.7621993597001052E-037
  -9.8999999999999991E-003    -1.8774869075477276E-035
  -9.5999999999999992E-003     3.6535250029862799E-034
  -9.2999999999999992E-003    -4.1549117462858864E-033
  -8.9999999999999993E-003     3.2570278968561626E-032
  -8.6999999999999994E-003    -1.7232990515411427E-031
  -8.3999999999999995E-003     5.5621706657309281E-031
  -8.0999999999999996E-003    -5.3230116531140184E-031
  -7.7999999999999988E-003    -4.5555014923999378E-030
  -7.4999999999999997E-003     2.8400400005182109E-029
  -7.1999999999999998E-003    -9.5568191065618995E-029
  -6.8999999999999981E-003     2.5516971552404179E-028
  -6.5999999999999982E-003    -7.2612928227449178E-028
  -6.3000000000000000E-003     2.5306991988100081E-027
  -6.0000000000000001E-003    -8.9612281244725457E-027
  -5.6999999999999985E-003     2.4879897367456137E-026
  -5.3999999999999986E-003    -3.2439245766039639E-026
  -5.1000000000000004E-003    -1.3671350960412468E-025
  -4.7999999999999987E-003     1.2357729237129178E-024
  -4.5000000000000005E-003    -5.7452585979194302E-024
  -4.1999999999999989E-003     2.0600203687886948E-023
  -3.8999999999999990E-003    -6.4303265945570418E-023
  -3.5999999999999990E-003     1.8746560949660654E-022
  -3.2999999999999991E-003    -5.2827553266148607E-022
  -2.9999999999999992E-003     1.4345340206007258E-021
  -2.6999999999999993E-003    -3.6604465479915275E-021
  -2.3999999999999994E-003     8.5319442071876628E-021
  -2.0999999999999977E-003    -1.7717988862786446E-020
  -1.7999999999999995E-003     3.1973501038822309E-020
  -1.4999999999999979E-003    -4.8702342554656091E-020
  -1.1999999999999997E-003     6.1334683269947875E-020
  -8.9999999999999976E-004    -7.1369036945954577E-020
  -5.9999999999999810E-004     1.3355177525517144E-019
  -2.9999999999999992E-004    -4.4839896584983890E-019
   0.0000000000000000          1.4570475688176168E-018
   3.0000000000000165E-004    -3.7509917829426682E-018
   5.9999999999999984E-004     7.4407953111476911E-018
   9.0000000000000149E-004    -1.0672033758678111E-017
   1.2000000000000031E-003     7.6011094895677609E-018
   1.5000000000000013E-003     1.2544166749039366E-017
   1.8000000000000030E-003    -6.2471356832125764E-017
   2.1000000000000012E-003     1.4776684333086007E-016
   2.3999999999999994E-003    -2.5439197381551018E-016
   2.7000000000000010E-003     3.4699376008165308E-016
   2.9999999999999992E-003    -4.2825859115980523E-016
   3.3000000000000008E-003     8.5777834643177999E-016
   3.6000000000000025E-003    -3.6748404407605040E-015
   3.9000000000000007E-003     1.7188557707195804E-014
   4.2000000000000023E-003    -6.8932074635708705E-014
   4.5000000000000005E-003     2.3396200339614337E-013
   4.7999999999999987E-003    -6.7662491882470294E-013
   5.1000000000000004E-003     1.6587189971398819E-012
   5.4000000000000020E-003    -3.3032114929607932E-012
   5.7000000000000037E-003     4.2560880671953809E-012
   5.9999999999999984E-003     3.9638747236038533E-012
   6.3000000000000000E-003    -5.5320074693981425E-011
   6.6000000000000017E-003     2.4433222165860144E-010
   6.9000000000000034E-003    -6.9965454720329693E-010
   7.2000000000000015E-003     1.1368662004511899E-009
   7.5000000000000032E-003     5.0213794276425440E-010
   7.8000000000000014E-003    -8.5289553563558189E-009
   8.0999999999999996E-003     2.0418187493713490E-008
   8.4000000000000012E-003    -2.6904344779566764E-009
   8.7000000000000029E-003    -9.1317642709626120E-008
   9.0000000000000011E-003     1.4164457649954019E-007
   9.2999999999999992E-003     2.2426323236175522E-007
   9.6000000000000009E-003    -7.1352209832457999E-007
   9.8999999999999991E-003    -6.3852354522828139E-007
   1.0200000000000001E-002     2.3065982498357665E-006
   1.0500000000000002E-002     2.3606442659013005E-006
   1.0800000000000004E-002    -5.6269478199735248E-006
   1.1099999999999999E-002    -8.5779148765220432E-006
   1.1400000000000000E-002     1.3098336844994730E-005
   1.1700000000000002E-002     5.0791392712904414E-005
   1.2000000000000004E-002     7.3279913310435839E-005
   1.2300000000000002E-002     7.9940048997168001E-005
   1.2600000000000000E-002     1.1687471818233120E-004
   1.2900000000000002E-002     2.1863842112677251E-004
   1.3200000000000000E-002     3.6715165796172115E-004
   1.3500000000000002E-002     5.4258744351817073E-004
   1.3800000000000003E-002     7.9011135462982510E-004
   1.4100000000000001E-002     1.1966394931787055E-003
   1.4400000000000000E-002     1.8163033073290424E-003
   1.4700000000000001E-002     2.6709053507512903E-003
   1.4999999999999999E-002     3.8359489999685997E-003
   1.5300000000000001E-002     5.4707055571154017E-003
   1.5600000000000003E-002     7.7367157748103044E-003
   1.5899999999999997E-002     1.0751465114750447E-002
   1.6199999999999999E-002     1.4664104890581731E-002
   1.6500000000000001E-002     1.9713607534650013E-002
   1.6800000000000002E-002     2.6147460152016189E-002
   1.7100000000000004E-002     3.4118191552911847E-002
   1.7400000000000006E-002     4.3716443737611854E-002
   1.7700000000000000E-002     5.5037272898732947E-002
   1.8000000000000002E-002     6.8097374774671593E-002
   1.8300000000000004E-002     8.2681434602002835E-002
   1.8600000000000005E-002     9.8302795479610072E-002
   1.8900000000000000E-002    0.11427074233982548     
   1.9200000000000002E-002    0.12966224762593015     
   1.9500000000000003E-002    0.14320035853950497     
   1.9799999999999998E-002    0.15321445525757049     
   2.0100000000000000E-002    0.15777673537319625     
   2.0400000000000001E-002    0.15483390724240742     
   2.0700000000000003E-002    0.14224782251211554     
   2.0999999999999998E-002    0.11789862639760074     
   2.1299999999999999E-002     7.9956282960922720E-002
   2.1600000000000001E-002     2.7199890891382195E-002
   2.1900000000000003E-002    -4.0793851637849654E-002
   2.2200000000000004E-002   -0.12352754116428155     
   2.2500000000000006E-002   -0.21935883717893567     
   2.2800000000000001E-002   -0.32528431020232063     
   2.3100000000000002E-002   -0.43694328215771883     
   2.3400000000000004E-002   -0.54888004024808978     
   2.3699999999999999E-002   -0.65478460816992623     
   2.4000000000000000E-002   -0.74770315215754479     
   2.4300000000000002E-002   -0.82055672162307047     
   2.4599999999999997E-002   -0.86685433919483046     
   2.4900000000000005E-002   -0.88124694271436255     
   2.5200000000000000E-002   -0.85990295906060510     
   2.5499999999999995E-002   -0.80093293978748648     
   2.5800000000000003E-002   -0.70489579350444842     
   2.6099999999999998E-002   -0.57497796610282137     
   2.6400000000000007E-002   -0.41672082983598013     
   2.6700000000000002E-002   -0.23756008560830533     
   2.6999999999999996E-002    -4.6474551907679906E-002
   2.7300000000000005E-002    0.14650363776091702     
   2.7600000000000000E-002    0.33113498639848160     
   2.7900000000000008E-002    0.49801561860460986     
   2.8200000000000003E-002    0.63908701324239559     
   2.8499999999999998E-002    0.74816335116981847     
   2.8800000000000006E-002    0.82147192374391054     
   2.9100000000000001E-002    0.85784510778103495     
   2.9400000000000003E-002    0.85880208446465289     
   2.9700000000000004E-002    0.82830443931893427     
   3.0000000000000006E-002    0.77233611891506015     
   3.0300000000000001E-002    0.69840882697943130     
   3.0600000000000002E-002    0.61493008640347568     
   3.0900000000000004E-002    0.53054078685621420     
   3.1199999999999999E-002    0.45341882720328819     
   3.1500000000000007E-002    0.39062925997371067     
   3.1800000000000002E-002    0.34757786216263042     
   3.2099999999999997E-002    0.32747592552068561     
   3.2400000000000005E-002    0.33102753217310799     
   3.2700000000000000E-002    0.35641141663596976     
   3.3000000000000002E-002    0.39927868642455344     
   3.3300000000000003E-002    0.45284712895062462     
   3.3599999999999998E-002    0.50845876150171243     
   3.3900000000000000E-002    0.55637424577082406     
   3.4200000000000001E-002    0.58649668666308230     
   3.4500000000000003E-002    0.58925456331003900     
   3.4799999999999998E-002    0.55686445819743113     
   3.5099999999999999E-002    0.48435506284327712     
   3.5400000000000001E-002    0.37017595510728984     
   3.5699999999999996E-002    0.21682364023846201     
   3.6000000000000004E-002     3.1464406897373287E-002
   3.6299999999999999E-002   -0.17439587759802899     
   3.6600000000000008E-002   -0.38570371605275255     
   3.6900000000000002E-002   -0.58472463557688314     
   3.7199999999999997E-002   -0.75240753222384527     
   3.7500000000000006E-002   -0.87014827069782896     
   3.7800000000000000E-002   -0.92148574894309476     
   3.8100000000000009E-002   -0.89395754046065790     
   3.8400000000000004E-002   -0.78060125917659562     
   3.8699999999999998E-002   -0.58096399884215133     
   3.9000000000000007E-002   -0.30174222290335351     
   3.9300000000000002E-002     4.3108340299193859E-002
   3.9600000000000003E-002    0.43278989226246800     
   3.9900000000000005E-002    0.84111745223411205     
   4.0200000000000000E-002     1.2382521176047590     
   4.0500000000000001E-002     1.5924191535382235     
   4.0800000000000003E-002     1.8722714871552881     
   4.1100000000000005E-002     2.0492604956918683     
   4.1399999999999999E-002     2.0997264091012653     
   4.1700000000000008E-002     2.0067744063508428     
   4.2000000000000003E-002     1.7620202534851153     
   4.2299999999999997E-002     1.3664360154654460     
   4.2600000000000006E-002    0.83074045564990939     
   4.2900000000000001E-002    0.17548250794648546     
   4.3200000000000002E-002   -0.56993397820311387     
   4.3500000000000004E-002    -1.3683350623499209     
   4.3799999999999999E-002    -2.1768430212717362     
   4.4100000000000000E-002    -2.9494455021700503     
   4.4400000000000002E-002    -3.6393242744867820     
   4.4700000000000004E-002    -4.2022149624938550     
   4.4999999999999998E-002    -4.5990852613623758     
   4.5300000000000000E-002    -4.7985873510802435     
   4.5600000000000002E-002    -4.7797535011673631     
   4.5899999999999996E-002    -4.5334633173902859     
   4.6200000000000005E-002    -4.0634837493788893     
   4.6500000000000000E-002    -3.3863711507366006     
   4.6799999999999994E-002    -2.5304794938645330     
   4.7100000000000003E-002    -1.5347286780891594     
   4.7399999999999998E-002   -0.44620356809826589     
   4.7700000000000006E-002    0.68288527031420188     
   4.8000000000000001E-002     1.7978617028845250     
   4.8300000000000010E-002     2.8446709813416788     
   4.8600000000000004E-002     3.7727619085992785     
   4.8899999999999999E-002     4.5376879166243498     
   4.9200000000000008E-002     5.1029569917137962     
   4.9500000000000002E-002     5.4411045581580026     
   4.9800000000000011E-002     5.5346690711518534     
   5.0100000000000006E-002     5.3771460315721811     
   5.0400000000000000E-002     4.9728739095064611     
   5.0700000000000009E-002     4.3361342425621103     
   5.1000000000000004E-002     3.4907181966591594     
   5.1299999999999998E-002     2.4697335267752507     
   5.1600000000000007E-002     1.3142981096793775     
   5.1900000000000002E-002     7.1488074166886406E-002
   5.2200000000000010E-002    -1.2074116717066801     
   5.2500000000000005E-002    -2.4685406166252335     
   5.2800000000000000E-002    -3.6580350143161411     
   5.3099999999999994E-002    -4.7251165319174504     
   5.3400000000000003E-002    -5.6246613714689317     
   5.3699999999999998E-002    -6.3197444981736624     
   5.4000000000000006E-002    -6.7838539538647069     
   5.4300000000000001E-002    -7.0025790785344384     
   5.4599999999999996E-002    -6.9745564613816384     
   5.4900000000000004E-002    -6.7112942995314313     
   5.5199999999999999E-002    -6.2358981893546854     
   5.5499999999999994E-002    -5.5808547847226180     
   5.5800000000000002E-002    -4.7853490547994681     
   5.6099999999999997E-002    -3.8922745468244671     
   5.6400000000000006E-002    -2.9444252048192183     
   5.6700000000000000E-002    -1.9808240705861646     
   5.6999999999999995E-002    -1.0339393406106154     
   5.7300000000000004E-002   -0.12828872618307230     
   5.7599999999999998E-002    0.72108512809492709     
   5.7900000000000007E-002     1.5096663870643923     
   5.8200000000000002E-002     2.2420681355207890     
   5.8499999999999996E-002     2.9296602412445907     
   5.8800000000000005E-002     3.5884515952576379     
   5.9100000000000000E-002     4.2370071868207333     
   5.9400000000000008E-002     4.8928741962520235     
   5.9700000000000003E-002     5.5691769079894300     
   6.0000000000000012E-002     6.2725373846216996     
   6.0300000000000006E-002     7.0016990183680150     
   6.0600000000000001E-002     7.7461808843524409     
   6.0900000000000010E-002     8.4854745598395596     
   6.1200000000000004E-002     9.1899493339696505     
   6.1500000000000013E-002     9.8231092550300900     
   6.1800000000000008E-002     10.343110859300168     
   6.2100000000000002E-002     10.705137251139604     
   6.2399999999999997E-002     10.864261656851795     
   6.2700000000000006E-002     10.778584419619506     
   6.3000000000000000E-002     10.412455055122393     
   6.3300000000000009E-002     9.7385775823310610     
   6.3600000000000004E-002     8.7396555467034602     
   6.3899999999999998E-002     7.4109090013565755     
   6.4199999999999993E-002     5.7613359135647784     
   6.4500000000000002E-002     3.8142993234272353     
   6.4800000000000010E-002     1.6075715461161906     
   6.5100000000000005E-002   -0.80692861909145996     
   6.5400000000000000E-002    -3.3635015926092535     
   6.5700000000000008E-002    -5.9839676673643112     
   6.5999999999999989E-002    -8.5798027515288595     
   6.6299999999999998E-002    -11.055478482701290     
   6.6600000000000006E-002    -13.311115421451461     
   6.6900000000000001E-002    -15.247803152005645     
   6.7199999999999996E-002    -16.772027183290561     
   6.7500000000000004E-002    -17.800074732931193     
   6.7800000000000013E-002    -18.265177950701855     
   6.8099999999999994E-002    -18.122583033572653     
   6.8400000000000002E-002    -17.352612104602372     
   6.8700000000000011E-002    -15.964726307215500     
   6.8999999999999992E-002    -14.000116005379837     
   6.9300000000000000E-002    -11.530994778224702     
   6.9600000000000009E-002    -8.6569731058686585     
   6.9900000000000004E-002    -5.5010968232797097     
   7.0199999999999999E-002    -2.2049377769989889     
   7.0500000000000007E-002     1.0806371350351718     
   7.0800000000000016E-002     4.2049235285027038     
   7.1099999999999997E-002     7.0254040907208548     
   7.1400000000000005E-002     9.4162530400793116     
   7.1700000000000000E-002     11.276767737795922     
   7.1999999999999995E-002     12.536484721528950     
   7.2300000000000003E-002     13.158652023943660     
   7.2600000000000012E-002     13.142423585154631     
   7.2900000000000006E-002     12.520746967640974     
   7.3200000000000001E-002     11.357192800678888     
   7.3499999999999996E-002     9.7418284323558169     
   7.3800000000000004E-002     7.7846657284614480     
   7.4099999999999999E-002     5.6080636314209045     
   7.4400000000000008E-002     3.3387419738975836     
   7.4700000000000003E-002     1.1022001292036805     
   7.5000000000000011E-002   -0.98480467563050667     
   7.5299999999999992E-002    -2.8216358628615410     
   7.5600000000000001E-002    -4.3265238858606949     
   7.5900000000000009E-002    -5.4407760533927387     
   7.6200000000000004E-002    -6.1320988237181382     
   7.6499999999999999E-002    -6.3939951955127583     
   7.6800000000000007E-002    -6.2453334481826914     
   7.7099999999999988E-002    -5.7285085936421147     
   7.7399999999999997E-002    -4.9061058456992628     
   7.7700000000000005E-002    -3.8566186497605628     
   7.8000000000000014E-002    -2.6675946307015010     
   7.8299999999999995E-002    -1.4300802467844704     
   7.8600000000000003E-002   -0.23359232320457579     
   7.8900000000000012E-002    0.84131898847451847     
   7.9199999999999993E-002     1.7286960669533045     
   7.9500000000000001E-002     2.3807134125411054     
   7.9800000000000010E-002     2.7703978987322628     
   8.0100000000000018E-002     2.8921855918757373     
   8.0399999999999999E-002     2.7627900470578810     
   8.0700000000000008E-002     2.4185202082311168     
   8.1000000000000003E-002     1.9091478727289051     
   8.1299999999999997E-002     1.2951074863355316     
   8.1600000000000006E-002    0.64206255363829712     
   8.1900000000000014E-002     1.3345447580798364E-002
   8.2199999999999995E-002   -0.53397334302961763     
   8.2500000000000004E-002   -0.95385270551555124     
   8.2799999999999999E-002    -1.2151826948593678     
   8.3100000000000007E-002    -1.3025509692835495     
   8.3400000000000002E-002    -1.2168550800096618     
   8.3700000000000011E-002   -0.97375955072362075     
   8.4000000000000005E-002   -0.60159277116561327     
   8.4300000000000000E-002   -0.13815780219136720     
   8.4599999999999995E-002    0.37532202079953692     
   8.4900000000000003E-002    0.89687608515932382     
   8.5199999999999998E-002     1.3867047063562978     
   8.5500000000000007E-002     1.8128250365585998     
   8.5800000000000001E-002     2.1520685417423024     
   8.6100000000000010E-002     2.3906121608850270     
   8.6399999999999991E-002     2.5257148582171425     
   8.6699999999999999E-002     2.5636943323176951     
   8.7000000000000008E-002     2.5186159262313481     
   8.7300000000000003E-002     2.4102778115742325     
   8.7599999999999997E-002     2.2607717569146217     
   8.7900000000000006E-002     2.0927313755008257     
   8.8200000000000014E-002     1.9264476375972137     
   8.8499999999999995E-002     1.7774840169593276     
   8.8800000000000004E-002     1.6566540500198244     
   8.9100000000000013E-002     1.5684129462244698     
   8.9399999999999993E-002     1.5113381340891721     
   8.9700000000000002E-002     1.4789614895425700     
   9.0000000000000011E-002     1.4601271028321037     
   9.0299999999999991E-002     1.4423026724814960     
   9.0600000000000000E-002     1.4128331308674191     
   9.0900000000000009E-002     1.3587538736780687     
   9.1200000000000017E-002     1.2703927565721571     
   9.1499999999999998E-002     1.1421854627359025     
   9.1800000000000007E-002    0.97164873029050858     
   9.2100000000000001E-002    0.76073407133712223     
   9.2399999999999996E-002    0.51456977861673892     
   9.2700000000000005E-002    0.23990289409843868     
   9.3000000000000013E-002    -5.5265596809669582E-002
   9.3300000000000008E-002   -0.36329039433477384     
   9.3600000000000003E-002   -0.67803078845262377     
   9.3899999999999997E-002   -0.99574145984204421     
   9.4200000000000006E-002    -1.3153414645255523     
   9.4500000000000001E-002    -1.6369444022622943     
   9.4800000000000009E-002    -1.9623544830257984     
   9.5100000000000004E-002    -2.2938461399768215     
   9.5399999999999999E-002    -2.6313157617699545     
   9.5699999999999993E-002    -2.9732783848114650     
   9.6000000000000002E-002    -3.3156942654762958     
   9.6300000000000011E-002    -3.6507596546780832     
   9.6600000000000005E-002    -3.9697011388423959     
   9.6900000000000000E-002    -4.2628848268870172     
   9.7200000000000009E-002    -4.5211732781511387     
   9.7499999999999989E-002    -4.7390039381068334     
   9.7799999999999998E-002    -4.9146492142929503     
   9.8100000000000007E-002    -5.0508429107075585     
   9.8400000000000015E-002    -5.1548285156800091     
   9.8699999999999996E-002    -5.2361610808314083     
   9.9000000000000005E-002    -5.3054873519477326     
   9.9300000000000013E-002    -5.3708774219955160     
   9.9599999999999994E-002    -5.4340178811834221     
   9.9900000000000003E-002    -5.4897571987190759     
  0.10020000000000001         -5.5235157042198466     
  0.10049999999999999         -5.5115948523284999     
  0.10080000000000000         -5.4246363006854210     
  0.10110000000000001         -5.2296648536578374     
  0.10140000000000000         -4.8954947711612462     
  0.10170000000000000         -4.3989830566693904     
  0.10200000000000001         -3.7281438381067140     
  0.10230000000000002         -2.8866056310133459     
  0.10260000000000000         -1.8944909504507876     
  0.10290000000000001        -0.78639923715423521     
  0.10320000000000000         0.39141163879270735     
  0.10350000000000001          1.5889542176979745     
  0.10380000000000000          2.7608471001881583     
  0.10410000000000001          3.8726310688955010     
  0.10440000000000001          4.9097751569635761     
  0.10470000000000000          5.8821958034056649     
  0.10500000000000000          6.8249143845306151     
  0.10530000000000000          7.7955803272866149     
  0.10560000000000000          8.8657575741611367     
  0.10590000000000001          10.110570159606766     
  0.10620000000000000          11.594419694054295     
  0.10650000000000001          13.353645955827005     
  0.10679999999999999          15.384420527140719     
  0.10710000000000000          17.630734814465427     
  0.10740000000000001          19.976462017330505     
  0.10770000000000000          22.248502141372228     
  0.10800000000000000          24.223999526206683     
  0.10830000000000001          25.645471298699391     
  0.10859999999999999          26.242970584181094     
  0.10890000000000000          25.761013389927029     
  0.10920000000000001          23.988539873521518     
  0.10950000000000001          20.785360006252176     
  0.10979999999999999          16.105683502624743     
  0.11009999999999999          10.015749568444392     
  0.11040000000000001          2.7000112676905701     
  0.11070000000000001         -5.5429514734423719     
  0.11100000000000000         -14.314760384749661     
  0.11130000000000000         -23.143867416100363     
  0.11160000000000002         -31.518275815350989     
  0.11190000000000001         -38.923682438963624     
  0.11220000000000001         -44.885240712289601     
  0.11250000000000000         -49.004504980423121     
  0.11280000000000000         -50.992019492238796     
  0.11309999999999999         -50.691761301323879     
  0.11340000000000001         -48.091656140489533     
  0.11369999999999998         -43.325398731644498     
  0.11400000000000000         -36.661314495398756     
  0.11430000000000000         -28.480396328582970     
  0.11460000000000002         -19.248137393952334     
  0.11489999999999999         -9.4768218713800252     
  0.11520000000000001         0.30923649337955794     
  0.11550000000000001          9.6069463359900595     
  0.11580000000000000          17.970821723143843     
  0.11609999999999999          25.036003048629595     
  0.11640000000000002          30.534039264969010     
  0.11670000000000001          34.304629546167689     
  0.11700000000000001          36.295552321392506     
  0.11730000000000000          36.557935284110272     
  0.11760000000000000          35.232001081318828     
  0.11789999999999999          32.529704123033973     
  0.11820000000000001          28.718956296758250     
  0.11850000000000001          24.097563522729928     
  0.11880000000000000          18.975837519268879     
  0.11910000000000000          13.659629749213821     
  0.11940000000000002          8.4276470337150613     
  0.11970000000000001          3.5226925488924508     
  0.12000000000000001        -0.85588792139695613     
  0.12030000000000000         -4.5635661850773985     
  0.12060000000000000         -7.5105731689204447     
  0.12089999999999999         -9.6592161129837564     
  0.12119999999999999         -11.021234318332944     
  0.12150000000000001         -11.649316815989863     
  0.12180000000000001         -11.630906820915769     
  0.12210000000000000         -11.076930714600309     
  0.12239999999999999         -10.109552749282763     
  0.12270000000000002         -8.8576358470851169     
  0.12300000000000001         -7.4421207696014768     
  0.12330000000000001         -5.9709542460591685     
  0.12360000000000000         -4.5384659436560923     
  0.12390000000000000         -3.2153398459565388     
  0.12419999999999999         -2.0502417140797249     
  0.12450000000000001         -1.0743270984240230     
  0.12480000000000001        -0.29820446614114182     
  0.12509999999999999         0.28115705263114865     
  0.12540000000000001         0.67807456184663950     
  0.12570000000000003         0.91563675089035712     
  0.12600000000000000          1.0180378550610794     
  0.12630000000000002          1.0135664384923846     
  0.12659999999999999         0.92963165310524509     
  0.12690000000000001         0.78927244205007874     
  0.12719999999999998         0.61555635176370060     
  0.12750000000000000         0.42752897855740990     
  0.12780000000000002         0.24034661287039683     
  0.12809999999999999          6.8117192128593018E-002
  0.12840000000000001         -8.0311658740386704E-002
  0.12869999999999998        -0.19794379892026326     
  0.12900000000000000        -0.27999344177485019     
  0.12930000000000003        -0.32662980469924219     
  0.12959999999999999        -0.33876659128163222     
  0.12990000000000002        -0.31975781990909313     
  0.13019999999999998        -0.27729400727446452     
  0.13050000000000000        -0.21790827619761011     
  0.13080000000000003        -0.14835128836010103     
  0.13109999999999999         -7.6792689382350510E-002
  0.13140000000000002         -8.7759041501060953E-003
  0.13169999999999998          5.0546731575800252E-002
  0.13200000000000001          9.9177373801321966E-002
  0.13229999999999997         0.13755014687078626     
  0.13260000000000000         0.16481025280316786     
  0.13290000000000002         0.18446108502063119     
  0.13319999999999999         0.19967319500845715     
  0.13350000000000001         0.21154976496246647     
  0.13380000000000003         0.22360862934836234     
  0.13410000000000000         0.23646137592794592     
  0.13440000000000002         0.24903417352316826     
  0.13469999999999999         0.26065315816372880     
  0.13500000000000001         0.26885104223722855     
  0.13529999999999998         0.27169293351878965     
  0.13560000000000000         0.26694421267759494     
  0.13590000000000002         0.25200106716593185     
  0.13619999999999999         0.22783740509699157     
  0.13650000000000001         0.19580827761715125     
  0.13680000000000003         0.15711477054903566     
  0.13710000000000000         0.11567404077827392     
  0.13740000000000002          7.5755068649342228E-002
  0.13769999999999999          4.0515393692613033E-002
  0.13800000000000001          1.4093347274459989E-002
  0.13829999999999998         -2.2571396201110927E-003
  0.13860000000000000         -7.7714532910012624E-003
  0.13890000000000002         -2.9600296653371494E-003
  0.13919999999999999          8.6926553094083536E-003
  0.13950000000000001          2.4544299118990365E-002
  0.13979999999999998          4.0639332547527003E-002
  0.14010000000000000          5.2714724476573049E-002
  0.14040000000000002          5.9146222451573860E-002
  0.14069999999999999          5.8091817585383315E-002
  0.14100000000000001          4.9747441548190885E-002
  0.14130000000000004          3.7372351768722334E-002
  0.14160000000000000          2.3396093420187780E-002
  0.14189999999999997          1.1818448799994830E-002
  0.14219999999999999          6.2026984848010946E-003
  0.14250000000000002          8.6400852897326325E-003
  0.14279999999999998          2.0485255511291378E-002
  0.14310000000000000          3.9994884156832167E-002
  0.14339999999999997          6.3070751774637057E-002
  0.14369999999999999          8.6049058155398983E-002
  0.14400000000000002         0.10281758540578601     
  0.14429999999999998         0.10728449214387492     
  0.14460000000000001          9.5976263326279287E-002
  0.14490000000000003          6.6998700430950908E-002
  0.14520000000000000          2.1373094983482943E-002
  0.14550000000000002         -3.6810146552876233E-002
  0.14579999999999999        -0.10072971547133389     
  0.14610000000000001        -0.16085844138014460     
  0.14640000000000003        -0.20886577211623170     
  0.14670000000000000        -0.23693138144500558     
  0.14699999999999996        -0.23726834986749701     
  0.14729999999999999        -0.20831565840592159     
  0.14760000000000001        -0.15249908980675464     
  0.14789999999999998         -7.4533947444840098E-002
  0.14820000000000000          1.5115616542014099E-002