  -1.4999999999999999E-002     0.0000000000000000     
  -1.4700000000000000E-002     0.0000000000000000     
  -1.4400000000000000E-002     0.0000000000000000     
  -1.4100000000000000E-002     0.0000000000000000     
  -1.3800000000000000E-002     0.0000000000000000     
  -1.3500000000000000E-002     0.0000000000000000     
  -1.3200000000000000E-002     0.0000000000000000     
  -1.2899999999999998E-002     0.0000000000000000     
  -1.2600000000000000E-002     0.0000000000000000     
  -1.2299999999999998E-002     0.0000000000000000     
  -1.2000000000000000E-002     0.0000000000000000     
  -1.1699999999999999E-002     0.0000000000000000     
  -1.1399999999999999E-002     0.0000000000000000     
  -1.1099999999999999E-002     0.0000000000000000     
  -1.0799999999999999E-002     0.0000000000000000     
  -1.0499999999999999E-002     0.0000000000000000     
  -1.0199999999999999E-002     0.0000000000000000     
  -9.8999999999999991E-003     0.0000000000000000     
  -9.5999999999999992E-003     0.0000000000000000     
  -9.2999999999999992E-003     0.0000000000000000     
  -8.9999999999999993E-003     0.0000000000000000     
  -8.6999999999999994E-003     0.0000000000000000     
  -8.3999999999999995E-003     0.0000000000000000     
  -8.0999999999999996E-003     0.0000000000000000     
  -7.7999999999999988E-003     0.0000000000000000     
  -7.4999999999999997E-003     0.0000000000000000     
  -7.1999999999999998E-003     0.0000000000000000     
  -6.8999999999999981E-003     0.0000000000000000     
  -6.5999999999999982E-003     0.0000000000000000     
  -6.3000000000000000E-003     0.0000000000000000     
  -6.0000000000000001E-003     0.0000000000000000     
  -5.6999999999999985E-003     0.0000000000000000     
  -5.3999999999999986E-003     0.0000000000000000     
  -5.1000000000000004E-003     0.0000000000000000     
  -4.7999999999999987E-003     0.0000000000000000     
  -4.5000000000000005E-003     0.0000000000000000     
  -4.1999999999999989E-003     0.0000000000000000     
  -3.8999999999999990E-003     0.0000000000000000     
  -3.5999999999999990E-003     0.0000000000000000     
  -3.2999999999999991E-003     0.0000000000000000     
  -2.9999999999999992E-003     0.0000000000000000     
  -2.6999999999999993E-003     0.0000000000000000     
  -2.3999999999999994E-003     0.0000000000000000     
  -2.0999999999999977E-003     0.0000000000000000     
  -1.7999999999999995E-003     0.0000000000000000     
  -1.4999999999999979E-003     0.0000000000000000     
  -1.1999999999999997E-003     0.0000000000000000     
  -8.9999999999999976E-004     0.0000000000000000     
  -5.9999999999999810E-004     0.0000000000000000     
  -2.9999999999999992E-004     0.0000000000000000     
   0.0000000000000000          0.0000000000000000     
   3.0000000000000165E-004     0.0000000000000000     
   5.9999999999999984E-004     0.0000000000000000     
   9.0000000000000149E-004     0.0000000000000000     
   1.2000000000000031E-003     0.0000000000000000     
   1.5000000000000013E-003     0.0000000000000000     
   1.8000000000000030E-003     0.0000000000000000     
   2.1000000000000012E-003     0.0000000000000000     
   2.3999999999999994E-003     0.0000000000000000     
   2.7000000000000010E-003     0.0000000000000000     
   2.9999999999999992E-003     0.0000000000000000     
   3.3000000000000008E-003     0.0000000000000000     
   3.6000000000000025E-003     8.6095400979089550E-037
   3.9000000000000007E-003     4.4269982514532711E-036
   4.2000000000000023E-003    -7.4045152540857703E-036
   4.5000000000000005E-003    -5.7505614121114545E-035
   4.7999999999999987E-003    -3.5284125162411419E-034
   5.1000000000000004E-003     6.2758629526524346E-033
   5.4000000000000020E-003    -2.0265560811742638E-032
   5.7000000000000037E-003    -1.6790782466043870E-031
   5.9999999999999984E-003     2.4399360081825959E-030
   6.3000000000000000E-003    -1.2169394604458394E-029
   6.6000000000000017E-003    -2.9088944953471000E-030
   6.9000000000000034E-003     4.1442805729855911E-028
   7.2000000000000015E-003    -2.5317333269171797E-027
   7.5000000000000032E-003     5.1923333227152315E-027
   7.8000000000000014E-003     2.2296178195148061E-026
   8.0999999999999996E-003    -2.1167309919759433E-025
   8.4000000000000012E-003     7.6247656477737669E-025
   8.7000000000000029E-003    -1.0501364688032554E-024
   9.0000000000000011E-003    -3.5471501367888250E-024
   9.2999999999999992E-003     2.6898077430690340E-023
   9.6000000000000009E-003    -9.2500542325218524E-023
   9.8999999999999991E-003     2.1759078404596612E-022
   1.0200000000000001E-002    -4.0624503937227099E-022
   1.0500000000000002E-002     8.6473109846091891E-022
   1.0800000000000004E-002    -3.3098561884833199E-021
   1.1099999999999999E-002     1.6207599207779296E-020
   1.1400000000000000E-002    -7.0872563464904917E-020
   1.1700000000000002E-002     2.5392255361694098E-019
   1.2000000000000004E-002    -6.9174664105245016E-019
   1.2300000000000002E-002     9.6880747850463657E-019
   1.2600000000000000E-002     3.6675579494309831E-018
   1.2900000000000002E-002    -4.0279526841045181E-017
   1.3200000000000000E-002     2.2827537928503394E-016
   1.3500000000000002E-002    -9.9982265610416236E-016
   1.3800000000000003E-002     3.5443979328408318E-015
   1.4100000000000001E-002    -9.2360057522464754E-015
   1.4400000000000000E-002     7.3325541602095590E-015
   1.4700000000000001E-002     1.0511071044582918E-013
   1.4999999999999999E-002    -8.8051289350021822E-013
   1.5300000000000001E-002     4.4514860547684165E-012
   1.5600000000000003E-002    -1.6505505295860701E-011
   1.5899999999999997E-002     4.3514140207756569E-011
   1.6199999999999999E-002    -5.8936029667666645E-011
   1.6500000000000001E-002    -1.1048371939548218E-010
   1.6800000000000002E-002     8.9571816630495960E-010
   1.7100000000000004E-002    -2.3700172935292585E-009
   1.7400000000000006E-002     1.6020744730838032E-009
   1.7700000000000000E-002     9.3103009746187126E-009
   1.8000000000000002E-002    -2.8892799264212954E-008
   1.8300000000000004E-002     9.0576417477450377E-009
   1.8600000000000005E-002     1.0897447566549090E-007
   1.8900000000000000E-002    -1.5009395326615049E-007
   1.9200000000000002E-002    -2.9425768843793776E-007
   1.9500000000000003E-002     5.5972674317672499E-007
   1.9799999999999998E-002     9.3347927077047643E-007
   2.0100000000000000E-002    -1.3501239664037712E-006
   2.0400000000000001E-002    -3.6966662264603656E-006
   2.0700000000000003E-002     1.9198432710254565E-006
   2.0999999999999998E-002     2.1896163161727600E-005
   2.1299999999999999E-002     5.4995558457449079E-005
   2.1600000000000001E-002     9.7001349786296487E-005
   2.1900000000000003E-002     1.4988852490205318E-004
   2.2200000000000004E-002     2.2575342154596001E-004
   2.2500000000000006E-002     3.4636424970813096E-004
   2.2800000000000001E-002     5.3947482956573367E-004
   2.3100000000000002E-002     8.3703198470175266E-004
   2.3400000000000004E-002     1.2808976462110877E-003
   2.3699999999999999E-002     1.9297604449093342E-003
   2.4000000000000000E-002     2.8652101755142212E-003
   2.4300000000000002E-002     4.1983476839959621E-003
   2.4599999999999997E-002     6.0730031691491604E-003
   2.4900000000000005E-002     8.6672194302082062E-003
   2.5200000000000000E-002     1.2195061892271042E-002
   2.5499999999999995E-002     1.6908898949623108E-002
   2.5800000000000003E-002     2.3098073899745941E-002
   2.6099999999999998E-002     3.1075445935130119E-002
   2.6400000000000007E-002     4.1154954582452774E-002
   2.6700000000000002E-002     5.3627744317054749E-002
   2.6999999999999996E-002     6.8721875548362732E-002
   2.7300000000000005E-002     8.6546257138252258E-002
   2.7600000000000000E-002    0.10702506452798843     
   2.7900000000000008E-002    0.12981997430324554     
   2.8200000000000003E-002    0.15425537526607513     
   2.8499999999999998E-002    0.17923906445503235     
   2.8800000000000006E-002    0.20320038497447968     
   2.9100000000000001E-002    0.22405971586704254     
   2.9400000000000003E-002    0.23922538757324219     
   2.9700000000000004E-002    0.24566103518009186     
   3.0000000000000006E-002    0.23998275399208069     
   3.0300000000000001E-002    0.21866910159587860     
   3.0600000000000002E-002    0.17833307385444641     
   3.0900000000000004E-002    0.11606191098690033     
   3.1199999999999999E-002     2.9789915308356285E-002
   3.1500000000000007E-002    -8.1286601722240448E-002
   3.1800000000000002E-002   -0.21635366976261139     
   3.2099999999999997E-002   -0.37263709306716919     
   3.2400000000000005E-002   -0.54518640041351318     
   3.2700000000000000E-002   -0.72686815261840820     
   3.3000000000000002E-002   -0.90846836566925049     
   3.3300000000000003E-002    -1.0791103839874268     
   3.3599999999999998E-002    -1.2268282175064087     
   3.3900000000000000E-002    -1.3393160104751587     
   3.4200000000000001E-002    -1.4049044847488403     
   3.4500000000000003E-002    -1.4135061502456665     
   3.4799999999999998E-002    -1.3575890064239502     
   3.5099999999999999E-002    -1.2330992221832275     
   3.5400000000000001E-002    -1.0399968624114990     
   3.5699999999999996E-002   -0.78271025419235229     
   3.6000000000000004E-002   -0.47003632783889771     
   3.6299999999999999E-002   -0.11480908840894699     
   3.6600000000000008E-002    0.26677149534225464     
   3.6900000000000002E-002    0.65635687112808228     
   3.7199999999999997E-002     1.0345014333724976     
   3.7500000000000006E-002     1.3821365833282471     
   3.7800000000000000E-002     1.6818926334381104     
   3.8100000000000009E-002     1.9192476272583008     
   3.8400000000000004E-002     2.0835819244384766     
   3.8699999999999998E-002     2.1686868667602539     
   3.9000000000000007E-002     2.1730656623840332     
   3.9300000000000002E-002     2.0998339653015137     
   3.9600000000000003E-002     1.9561507701873779     
   3.9900000000000005E-002     1.7525670528411865     
   4.0200000000000000E-002     1.5020608901977539     
   4.0500000000000001E-002     1.2189487218856812     
   4.0800000000000003E-002    0.91787666082382202     
   4.1100000000000005E-002    0.61278897523880005     
   4.1399999999999999E-002    0.31623998284339905     
   4.1700000000000008E-002     3.8659654557704926E-002
   4.2000000000000003E-002   -0.21178480982780457     
   4.2299999999999997E-002   -0.42947578430175781     
   4.2600000000000006E-002   -0.61124289035797119     
   4.2900000000000001E-002   -0.75594133138656616     
   4.3200000000000002E-002   -0.86440336704254150     
   4.3500000000000004E-002   -0.93869179487228394     
   4.3799999999999999E-002   -0.98180925846099854     
   4.4100000000000000E-002   -0.99743086099624634     
   4.4400000000000002E-002   -0.98913145065307617     
   4.4700000000000004E-002   -0.96069175004959106     
   4.4999999999999998E-002   -0.91550356149673462     
   4.5300000000000000E-002   -0.85658210515975952     
   4.5600000000000002E-002   -0.78689259290695190     
   4.5899999999999996E-002   -0.70889914035797119     
   4.6200000000000005E-002   -0.62522161006927490     
   4.6500000000000000E-002   -0.53849303722381592     
   4.6799999999999994E-002   -0.45146766304969788     
   4.7100000000000003E-002   -0.36747503280639648     
   4.7399999999999998E-002   -0.28999558091163635     
   4.7700000000000006E-002   -0.22309236228466034     
   4.8000000000000001E-002   -0.17119111120700836     
   4.8300000000000010E-002   -0.13866728544235229     
   4.8600000000000004E-002   -0.12993414700031281     
   4.8899999999999999E-002   -0.14857269823551178     
   4.9200000000000008E-002   -0.19709631800651550     
   4.9500000000000002E-002   -0.27647492289543152     
   4.9800000000000011E-002   -0.38527044653892517     
   5.0100000000000006E-002   -0.51961636543273926     
   5.0400000000000000E-002   -0.67257821559906006     
   5.0700000000000009E-002   -0.83416652679443359     
   5.1000000000000004E-002   -0.99174880981445312     
   5.1299999999999998E-002    -1.1302032470703125     
   5.1600000000000007E-002    -1.2331779003143311     
   5.1900000000000002E-002    -1.2840658426284790     
   5.2200000000000010E-002    -1.2673897743225098     
   5.2500000000000005E-002    -1.1705793142318726     
   5.2800000000000000E-002   -0.98518353700637817     
   5.3099999999999994E-002   -0.70842683315277100     
   5.3400000000000003E-002   -0.34406355023384094     
   5.3699999999999998E-002     9.7288876771926880E-002
   5.4000000000000006E-002    0.59793180227279663     
   5.4300000000000001E-002     1.1342447996139526     
   5.4599999999999996E-002     1.6778641939163208     
   5.4900000000000004E-002     2.1976094245910645     
   5.5199999999999999E-002     2.6619205474853516     
   5.5499999999999994E-002     3.0409121513366699     
   5.5800000000000002E-002     3.3090772628784180     
   5.6099999999999997E-002     3.4470872879028320     
   5.6400000000000006E-002     3.4433953762054443     
   5.6700000000000000E-002     3.2952473163604736     
   5.6999999999999995E-002     3.0086131095886230     
   5.7300000000000004E-002     2.5978426933288574     
   5.7599999999999998E-002     2.0844304561614990     
   5.7900000000000007E-002     1.4951177835464478     
   5.8200000000000002E-002    0.85998821258544922     
   5.8499999999999996E-002    0.21025961637496948     
   5.8800000000000005E-002   -0.42397737503051758     
   5.9100000000000000E-002    -1.0154763460159302     
   5.9400000000000008E-002    -1.5414712429046631     
   5.9700000000000003E-002    -1.9847381114959717     
   6.0000000000000012E-002    -2.3339674472808838     
   6.0300000000000006E-002    -2.5839617252349854     
   6.0600000000000001E-002    -2.7350482940673828     
   6.0900000000000010E-002    -2.7924365997314453     
   6.1200000000000004E-002    -2.7652769088745117     
   6.1500000000000013E-002    -2.6655735969543457     
   6.1800000000000008E-002    -2.5070786476135254     
   6.2100000000000002E-002    -2.3044428825378418     
   6.2399999999999997E-002    -2.0723116397857666     
   6.2700000000000006E-002    -1.8245146274566650     
   6.3000000000000000E-002    -1.5736877918243408     
   6.3300000000000009E-002    -1.3307369947433472     
   6.3600000000000004E-002    -1.1044363975524902     
   6.3899999999999998E-002   -0.90125423669815063     
   6.4199999999999993E-002   -0.72489011287689209     
   6.4500000000000002E-002   -0.57624369859695435     
   6.4800000000000010E-002   -0.45317849516868591     
   6.5100000000000005E-002   -0.35036745667457581     
   6.5400000000000000E-002   -0.25994467735290527     
   6.5700000000000008E-002   -0.17120561003684998     
   6.5999999999999989E-002    -7.1887910366058350E-002
   6.6299999999999998E-002     5.0874859094619751E-002
   6.6600000000000006E-002    0.20971021056175232     
   6.6900000000000001E-002    0.41469267010688782     
   6.7199999999999996E-002    0.67249268293380737     
   6.7500000000000004E-002    0.98491680622100830     
   6.7800000000000013E-002     1.3471946716308594     
   6.8099999999999994E-002     1.7483023405075073     
   6.8400000000000002E-002     2.1701612472534180     
   6.8700000000000011E-002     2.5885810852050781     
   6.8999999999999992E-002     2.9751224517822266     
   6.9300000000000000E-002     3.2985162734985352     
   6.9600000000000009E-002     3.5279343128204346     
   6.9900000000000004E-002     3.6355316638946533     
   7.0199999999999999E-002     3.5990581512451172     
   7.0500000000000007E-002     3.4049122333526611     
   7.0800000000000016E-002     3.0492446422576904     
   7.1099999999999997E-002     2.5394580364227295     
   7.1400000000000005E-002     1.8944315910339355     
   7.1700000000000000E-002     1.1425899267196655     
   7.1999999999999995E-002    0.32114106416702271     
   7.2300000000000003E-002   -0.52742207050323486     
   7.2600000000000012E-002    -1.3587186336517334     
   7.2900000000000006E-002    -2.1288421154022217     
   7.3200000000000001E-002    -2.7991483211517334     
   7.3499999999999996E-002    -3.3378107547760010     
   7.3800000000000004E-002    -3.7223060131072998     
   7.4099999999999999E-002    -3.9414770603179932     
   7.4400000000000008E-002    -3.9939661026000977     
   7.4700000000000003E-002    -3.8893692493438721     
   7.5000000000000011E-002    -3.6454935073852539     
   7.5299999999999992E-002    -3.2859108448028564     
   7.5600000000000001E-002    -2.8388690948486328     
   7.5900000000000009E-002    -2.3324332237243652     
   7.6200000000000004E-002    -1.7936177253723145     
   7.6499999999999999E-002    -1.2459322214126587     
   7.6800000000000007E-002   -0.70686775445938110     
   7.7099999999999988E-002   -0.18924969434738159     
   7.7399999999999997E-002    0.30046764016151428     
   7.7700000000000005E-002    0.76056373119354248     
   7.8000000000000014E-002     1.1918882131576538     
   7.8299999999999995E-002     1.5979478359222412     
   7.8600000000000003E-002     1.9808372259140015     
   7.8900000000000012E-002     2.3409235477447510     
   7.9199999999999993E-002     2.6752982139587402     
   7.9500000000000001E-002     2.9756290912628174     
   7.9800000000000010E-002     3.2303218841552734     
   8.0100000000000018E-002     3.4232370853424072     
   8.0399999999999999E-002     3.5358703136444092     
   8.0700000000000008E-002     3.5500962734222412     
   8.1000000000000003E-002     3.4485983848571777     
   8.1299999999999997E-002     3.2192802429199219     
   8.1600000000000006E-002     2.8562357425689697     
   8.1900000000000014E-002     2.3612458705902100     
   8.2199999999999995E-002     1.7462767362594604     
   8.2500000000000004E-002     1.0316555500030518     
   8.2799999999999999E-002    0.24675320088863373     
   8.3100000000000007E-002   -0.57209283113479614     
   8.3400000000000002E-002    -1.3849796056747437     
   8.3700000000000011E-002    -2.1496636867523193     
   8.4000000000000005E-002    -2.8262884616851807     
   8.4300000000000000E-002    -3.3796782493591309     
   8.4599999999999995E-002    -3.7815556526184082     
   8.4900000000000003E-002    -4.0139336585998535     
   8.5199999999999998E-002    -4.0685935020446777     
   8.5500000000000007E-002    -3.9483325481414795     
   8.5800000000000001E-002    -3.6663393974304199     
   8.6100000000000010E-002    -3.2436530590057373     
   8.6399999999999991E-002    -2.7086312770843506     
   8.6699999999999999E-002    -2.0936741828918457     
   8.7000000000000008E-002    -1.4329105615615845     
   8.7300000000000003E-002   -0.76089000701904297     
   8.7599999999999997E-002   -0.10943031311035156     
   8.7900000000000006E-002    0.49279758334159851     
   8.8200000000000014E-002     1.0211145877838135     
   8.8499999999999995E-002     1.4562047719955444     
   8.8800000000000004E-002     1.7830858230590820     
   8.9100000000000013E-002     1.9920438528060913     
   8.9399999999999993E-002     2.0785000324249268     
   8.9700000000000002E-002     2.0419507026672363     
   9.0000000000000011E-002     1.8876885175704956     
   9.0299999999999991E-002     1.6255218982696533     
   9.0600000000000000E-002     1.2703101634979248     
   9.0900000000000009E-002    0.84301996231079102     
   9.1200000000000017E-002    0.36835613846778870     
   9.1499999999999998E-002   -0.12388358265161514     
   9.1800000000000007E-002   -0.60097885131835938     
   9.2100000000000001E-002    -1.0297930240631104     
   9.2399999999999996E-002    -1.3769750595092773     
   9.2700000000000005E-002    -1.6136554479598999     
   9.3000000000000013E-002    -1.7167179584503174     
   9.3300000000000008E-002    -1.6711859703063965     
   9.3600000000000003E-002    -1.4736448526382446     
   9.3899999999999997E-002    -1.1313711404800415     
   9.4200000000000006E-002   -0.66437894105911255     
   9.4500000000000001E-002   -0.10405912995338440     
   9.4800000000000009E-002    0.50957185029983521     
   9.5100000000000004E-002     1.1288009881973267     
   9.5399999999999999E-002     1.7038784027099609     
   9.5699999999999993E-002     2.1857898235321045     
   9.6000000000000002E-002     2.5301182270050049     
   9.6300000000000011E-002     2.7023394107818604     
   9.6600000000000005E-002     2.6791465282440186     
   9.6900000000000000E-002     2.4521749019622803     
   9.7200000000000009E-002     2.0288791656494141     
   9.7499999999999989E-002     1.4314831495285034     
   9.7799999999999998E-002    0.69753849506378174     
   9.8100000000000007E-002   -0.12399567663669586     
   9.8400000000000015E-002   -0.97565662860870361     
   9.8699999999999996E-002    -1.7948042154312134     
   9.9000000000000005E-002    -2.5195648670196533     
   9.9300000000000013E-002    -3.0920004844665527     
   9.9599999999999994E-002    -3.4632341861724854     
   9.9900000000000003E-002    -3.5978889465332031     
  0.10020000000000001         -3.4757742881774902     
  0.10049999999999999         -3.0954642295837402     
  0.10080000000000000         -2.4740028381347656     
  0.10110000000000001         -1.6462000608444214     
  0.10140000000000000        -0.66386729478836060     
  0.10170000000000000         0.40942832827568054     
  0.10200000000000001          1.5012884140014648     
  0.10230000000000002          2.5361759662628174     
  0.10260000000000000          3.4419267177581787     
  0.10290000000000001          4.1538062095642090     
  0.10320000000000000          4.6211032867431641     
  0.10350000000000001          4.8105449676513672     
  0.10380000000000000          4.7086787223815918     
  0.10410000000000001          4.3243803977966309     
  0.10440000000000001          3.6864848136901855     
  0.10470000000000000          2.8424010276794434     
  0.10500000000000000          1.8545186519622803     
  0.10530000000000000         0.79359179735183716     
  0.10560000000000000        -0.26506870985031128     
  0.10590000000000001         -1.2491478919982910     
  0.10620000000000000         -2.0950479507446289     
  0.10650000000000001         -2.7512528896331787     
  0.10679999999999999         -3.1841521263122559     
  0.10710000000000000         -3.3781161308288574     
  0.10740000000000001         -3.3364629745483398     
  0.10770000000000000         -3.0811572074890137     
  0.10800000000000000         -2.6478486061096191     
  0.10830000000000001         -2.0838918685913086     
  0.10859999999999999         -1.4426258802413940     
  0.10890000000000000        -0.77800893783569336     
  0.10920000000000001        -0.14145658910274506     
  0.10950000000000001         0.42451700568199158     
  0.10979999999999999         0.88742357492446899     
  0.11009999999999999          1.2269405126571655     
  0.11040000000000001          1.4368504285812378     
  0.11070000000000001          1.5216177701950073     
  0.11100000000000000          1.4966022968292236     
  0.11130000000000000          1.3841822147369385     
  0.11160000000000002          1.2097892761230469     
  0.11190000000000001          1.0004003047943115     
  0.11220000000000001         0.77909272909164429     
  0.11250000000000000         0.56426125764846802     
  0.11280000000000000         0.36780413985252380     
  0.11309999999999999         0.19359806180000305     
  0.11340000000000001          4.0140062570571899E-002
  0.11369999999999998         -9.9953167140483856E-002
  0.11400000000000000        -0.23672209680080414     
  0.11430000000000000        -0.37959229946136475     
  0.11460000000000002        -0.53655934333801270     
  0.11489999999999999        -0.71005982160568237     
  0.11520000000000001        -0.89703303575515747     
  0.11550000000000001         -1.0879575014114380     
  0.11580000000000000         -1.2668113708496094     
  0.11609999999999999         -1.4145510196685791     
  0.11640000000000002         -1.5096639394760132     
  0.11670000000000001         -1.5324232578277588     
  0.11700000000000001         -1.4682462215423584     
  0.11730000000000000         -1.3093231916427612     
  0.11760000000000000         -1.0584195852279663     
  0.11789999999999999        -0.72829568386077881     
  0.11820000000000001        -0.34200385212898254     
  0.11850000000000001          6.8272233009338379E-002
  0.11880000000000000         0.46548926830291748     
  0.11910000000000000         0.80977040529251099     
  0.11940000000000002          1.0637748241424561     
  0.11970000000000001          1.1963551044464111     
  0.12000000000000001          1.1854434013366699     
  0.12030000000000000          1.0217176675796509     
  0.12060000000000000         0.70841079950332642     
  0.12089999999999999         0.26173490285873413     
  0.12119999999999999        -0.29085025191307068     
  0.12150000000000001        -0.91390824317932129     
  0.12180000000000001         -1.5666680335998535     
  0.12210000000000000         -2.2075536251068115     
  0.12239999999999999         -2.7973129749298096     
  0.12270000000000002         -3.3019785881042480     
  0.12300000000000001         -3.6955344676971436     
  0.12330000000000001         -3.9601891040802002     
  0.12360000000000000         -4.0871086120605469     
  0.12390000000000000         -4.0752129554748535     
  0.12419999999999999         -3.9297342300415039     
  0.12450000000000001         -3.6609106063842773     
  0.12480000000000001         -3.2811312675476074     
  0.12509999999999999         -2.8047380447387695     
  0.12540000000000001         -2.2455878257751465     
  0.12570000000000003         -1.6167472600936890     
  0.12600000000000000        -0.93076306581497192     
  0.12630000000000002        -0.19822575151920319     
  0.12659999999999999         0.57020503282546997     
  0.12690000000000001          1.3646123409271240     
  0.12719999999999998          2.1753859519958496     
  0.12750000000000000          2.9922819137573242     
  0.12780000000000002          3.8051509857177734     
  0.12809999999999999          4.6036939620971680     
  0.12840000000000001          5.3771514892578125     
  0.12869999999999998          6.1151614189147949     
  0.12900000000000000          6.8068156242370605     
  0.12930000000000003          7.4407534599304199     
  0.12959999999999999          8.0050220489501953     
  0.12990000000000002          8.4858102798461914     
  0.13019999999999998          8.8677568435668945     
  0.13050000000000000          9.1329669952392578     
  0.13080000000000003          9.2611494064331055     
  0.13109999999999999          9.2300968170166016     
  0.13140000000000002          9.0161247253417969     
  0.13169999999999998          8.5967302322387695     
  0.13200000000000001          7.9515886306762695     
  0.13229999999999997          7.0651917457580566     
  0.13260000000000000          5.9304461479187012     
  0.13290000000000002          4.5493922233581543     
  0.13319999999999999          2.9364778995513916     
  0.13350000000000001          1.1199271678924561     
  0.13380000000000003        -0.85952794551849365     
  0.13410000000000000         -2.9471399784088135     
  0.13440000000000002         -5.0774683952331543     
  0.13469999999999999         -7.1782226562500000     
  0.13500000000000001         -9.1703710556030273     
  0.13529999999999998         -10.977312088012695     
  0.13560000000000000         -12.525480270385742     
  0.13590000000000002         -13.749757766723633     
  0.13619999999999999         -14.598956108093262     
  0.13650000000000001         -15.034604072570801     
  0.13680000000000003         -15.037397384643555     
  0.13710000000000000         -14.605135917663574     
  0.13740000000000002         -13.752217292785645     
  0.13769999999999999         -12.511553764343262     
  0.13800000000000001         -10.927689552307129     
  0.13829999999999998         -9.0585412979125977     
  0.13860000000000000         -6.9705829620361328     
  0.13890000000000002         -4.7346539497375488     
  0.13919999999999999         -2.4273943901062012     
  0.13950000000000001        -0.12369751930236816     
  0.13979999999999998          2.1017937660217285     
  0.14010000000000000          4.1782388687133789     
  0.14040000000000002          6.0412354469299316     
  0.14069999999999999          7.6313929557800293     
  0.14100000000000001          8.9003219604492188     
  0.14130000000000004          9.8083848953247070     
  0.14160000000000000          10.328212738037109     
  0.14189999999999997          10.446711540222168     
  0.14219999999999999          10.164151191711426     
  0.14250000000000002          9.4980859756469727     
  0.14279999999999998          8.4811305999755859     
  0.14310000000000000          7.1617016792297363     
  0.14339999999999997          5.6035017967224121     
  0.14369999999999999          3.8812983036041260     
  0.14400000000000002          2.0800490379333496     
  0.14429999999999998         0.28924620151519775     
  0.14460000000000001         -1.4008268117904663     
  0.14490000000000003         -2.9035038948059082     
  0.14520000000000000         -4.1418061256408691     
  0.14550000000000002         -5.0517592430114746     
  0.14579999999999999         -5.5874428749084473     
  0.14610000000000001         -5.7229447364807129     
  0.14640000000000003         -5.4546275138854980     
  0.14670000000000000         -4.8022036552429199     
  0.14699999999999996         -3.8070011138916016     
  0.14729999999999999         -2.5306413173675537     
  0.14760000000000001         -1.0510547161102295     
  0.14789999999999998         0.54123365879058838     
  0.14820000000000000          2.1485097408294678     