  -1.4999999999999999E-002     0.0000000000000000     
  -1.4700000000000000E-002     0.0000000000000000     
  -1.4400000000000000E-002     0.0000000000000000     
  -1.4100000000000000E-002     0.0000000000000000     
  -1.3800000000000000E-002     0.0000000000000000     
  -1.3500000000000000E-002     0.0000000000000000     
  -1.3200000000000000E-002     0.0000000000000000     
  -1.2899999999999998E-002     0.0000000000000000     
  -1.2600000000000000E-002     0.0000000000000000     
  -1.2299999999999998E-002     0.0000000000000000     
  -1.2000000000000000E-002     0.0000000000000000     
  -1.1699999999999999E-002     0.0000000000000000     
  -1.1399999999999999E-002     0.0000000000000000     
  -1.1099999999999999E-002     0.0000000000000000     
  -1.0799999999999999E-002     0.0000000000000000     
  -1.0499999999999999E-002     0.0000000000000000     
  -1.0199999999999999E-002     0.0000000000000000     
  -9.8999999999999991E-003     0.0000000000000000     
  -9.5999999999999992E-003     0.0000000000000000     
  -9.2999999999999992E-003     0.0000000000000000     
  -8.9999999999999993E-003     0.0000000000000000     
  -8.6999999999999994E-003     0.0000000000000000     
  -8.3999999999999995E-003     0.0000000000000000     
  -8.0999999999999996E-003     0.0000000000000000     
  -7.7999999999999988E-003     0.0000000000000000     
  -7.4999999999999997E-003     0.0000000000000000     
  -7.1999999999999998E-003     0.0000000000000000     
  -6.8999999999999981E-003     0.0000000000000000     
  -6.5999999999999982E-003     0.0000000000000000     
  -6.3000000000000000E-003     0.0000000000000000     
  -6.0000000000000001E-003     0.0000000000000000     
  -5.6999999999999985E-003     0.0000000000000000     
  -5.3999999999999986E-003     0.0000000000000000     
  -5.1000000000000004E-003     0.0000000000000000     
  -4.7999999999999987E-003     0.0000000000000000     
  -4.5000000000000005E-003     0.0000000000000000     
  -4.1999999999999989E-003     0.0000000000000000     
  -3.8999999999999990E-003     0.0000000000000000     
  -3.5999999999999990E-003     0.0000000000000000     
  -3.2999999999999991E-003     0.0000000000000000     
  -2.9999999999999992E-003     0.0000000000000000     
  -2.6999999999999993E-003     0.0000000000000000     
  -2.3999999999999994E-003     0.0000000000000000     
  -2.0999999999999977E-003     0.0000000000000000     
  -1.7999999999999995E-003     0.0000000000000000     
  -1.4999999999999979E-003     0.0000000000000000     
  -1.1999999999999997E-003     0.0000000000000000     
  -8.9999999999999976E-004     0.0000000000000000     
  -5.9999999999999810E-004     0.0000000000000000     
  -2.9999999999999992E-004     0.0000000000000000     
   0.0000000000000000          0.0000000000000000     
   3.0000000000000165E-004     0.0000000000000000     
   5.9999999999999984E-004     0.0000000000000000     
   9.0000000000000149E-004     0.0000000000000000     
   1.2000000000000031E-003     0.0000000000000000     
   1.5000000000000013E-003     0.0000000000000000     
   1.8000000000000030E-003     0.0000000000000000     
   2.1000000000000012E-003     0.0000000000000000     
   2.3999999999999994E-003     0.0000000000000000     
   2.7000000000000010E-003     0.0000000000000000     
   2.9999999999999992E-003     0.0000000000000000     
   3.3000000000000008E-003     0.0000000000000000     
   3.6000000000000025E-003     0.0000000000000000     
   3.9000000000000007E-003     0.0000000000000000     
   4.2000000000000023E-003     0.0000000000000000     
   4.5000000000000005E-003     0.0000000000000000     
   4.7999999999999987E-003     0.0000000000000000     
   5.1000000000000004E-003     0.0000000000000000     
   5.4000000000000020E-003     0.0000000000000000     
   5.7000000000000037E-003     0.0000000000000000     
   5.9999999999999984E-003     0.0000000000000000     
   6.3000000000000000E-003     0.0000000000000000     
   6.6000000000000017E-003     0.0000000000000000     
   6.9000000000000034E-003     0.0000000000000000     
   7.2000000000000015E-003     0.0000000000000000     
   7.5000000000000032E-003     0.0000000000000000     
   7.8000000000000014E-003     0.0000000000000000     
   8.0999999999999996E-003     0.0000000000000000     
   8.4000000000000012E-003    -6.5644326544588127E-037
   8.7000000000000029E-003     4.0294993552915377E-035
   9.0000000000000011E-003    -1.3401573469378591E-034
   9.2999999999999992E-003    -1.5271832506406112E-033
   9.6000000000000009E-003     2.0802135779326611E-032
   9.8999999999999991E-003    -6.5755802166495318E-032
   1.0200000000000001E-002    -5.9288986915644320E-031
   1.0500000000000002E-002     6.6891955542582025E-030
   1.0800000000000004E-002    -1.7595605926272212E-029
   1.1099999999999999E-002    -1.1323026032951087E-028
   1.1400000000000000E-002     1.0748572649166387E-027
   1.1700000000000002E-002    -2.8875363655980830E-027
   1.2000000000000004E-002    -7.1213740291486416E-027
   1.2300000000000002E-002     8.5405095294403715E-026
   1.2600000000000000E-002    -3.0501274852896147E-025
   1.2900000000000002E-002     3.1825715613384663E-025
   1.3200000000000000E-002     2.0807561243808903E-024
   1.3500000000000002E-002    -1.3142269641966444E-023
   1.3800000000000003E-002     4.2809670101705923E-023
   1.4100000000000001E-002    -9.5583985033561239E-023
   1.4400000000000000E-002     1.5501740303252369E-022
   1.4700000000000001E-002    -2.0585426295938171E-022
   1.4999999999999999E-002     3.3258567615090007E-022
   1.5300000000000001E-002     1.9688594945252646E-022
   1.5600000000000003E-002    -1.4677124435274396E-020
   1.5899999999999997E-002     1.4607437053606217E-019
   1.6199999999999999E-002    -9.7100105809155063E-019
   1.6500000000000001E-002     5.1780567495824285E-018
   1.6800000000000002E-002    -2.4005393489942152E-017
   1.7100000000000004E-002     1.0183481401633408E-016
   1.7400000000000006E-002    -4.1100677637804942E-016
   1.7700000000000000E-002     1.6249481118917682E-015
   1.8000000000000002E-002    -6.3906581815439869E-015
   1.8300000000000004E-002     2.4921564310376003E-014
   1.8600000000000005E-002    -9.4249274725823062E-014
   1.8900000000000000E-002     3.3257066805320035E-013
   1.9200000000000002E-002    -1.0328860163000275E-012
   1.9500000000000003E-002     2.5295507875833234E-012
   1.9799999999999998E-002    -3.2660846683435496E-012
   2.0100000000000000E-002    -8.9411351586465848E-012
   2.0400000000000001E-002     7.8419354343495229E-011
   2.0700000000000003E-002    -2.8808824770187869E-010
   2.0999999999999998E-002     5.8216303999714114E-010
   2.1299999999999999E-002    -8.7169535478714977E-011
   2.1600000000000001E-002    -3.5281864096958770E-009
   2.1900000000000003E-002     1.0601444166979945E-008
   2.2200000000000004E-002    -6.9623942167140740E-009
   2.2500000000000006E-002    -3.7182246614975156E-008
   2.2800000000000001E-002     9.1768725951624219E-008
   2.3100000000000002E-002     3.1293723168346332E-008
   2.3400000000000004E-002    -3.6514074963633902E-007
   2.3699999999999999E-002     7.1636492293691845E-008
   2.4000000000000000E-002     1.1081280035796226E-006
   2.4300000000000002E-002    -2.3456962594536890E-008
   2.4599999999999997E-002    -3.2656548683007713E-006
   2.4900000000000005E-002    -2.1801602088089567E-006
   2.5200000000000000E-002     1.0685601409932133E-005
   2.5499999999999995E-002     3.5569937608670443E-005
   2.5800000000000003E-002     6.7027096520178020E-005
   2.6099999999999998E-002     1.0422224295325577E-004
   2.6400000000000007E-002     1.5589527902193367E-004
   2.6700000000000002E-002     2.3851188598200679E-004
   2.6999999999999996E-002     3.7332621286623180E-004
   2.7300000000000005E-002     5.8385636657476425E-004
   2.7600000000000000E-002     8.9948467211797833E-004
   2.7900000000000008E-002     1.3628909364342690E-003
   2.8200000000000003E-002     2.0344920922070742E-003
   2.8499999999999998E-002     2.9969734605401754E-003
   2.8800000000000006E-002     4.3593398295342922E-003
   2.9100000000000001E-002     6.2586055137217045E-003
   2.9400000000000003E-002     8.8611431419849396E-003
   2.9700000000000004E-002     1.2364617548882961E-002
   3.0000000000000006E-002     1.7000719904899597E-002
   3.0300000000000001E-002     2.3029362782835960E-002
   3.0600000000000002E-002     3.0720314010977745E-002
   3.0900000000000004E-002     4.0334753692150116E-002
   3.1199999999999999E-002     5.2101891487836838E-002
   3.1500000000000007E-002     6.6180221736431122E-002
   3.1800000000000002E-002     8.2603372633457184E-002
   3.2099999999999997E-002    0.10121840983629227     
   3.2400000000000005E-002    0.12162770330905914     
   3.2700000000000000E-002    0.14312849938869476     
   3.3000000000000002E-002    0.16464717686176300     
   3.3300000000000003E-002    0.18470244109630585     
   3.3599999999999998E-002    0.20139068365097046     
   3.3900000000000000E-002    0.21241059899330139     
   3.4200000000000001E-002    0.21513617038726807     
   3.4500000000000003E-002    0.20672245323657990     
   3.4799999999999998E-002    0.18431462347507477     
   3.5099999999999999E-002    0.14528666436672211     
   3.5400000000000001E-002     8.7527684867382050E-002
   3.5699999999999996E-002     9.7652431577444077E-003
   3.6000000000000004E-002    -8.8130749762058258E-002
   3.6299999999999999E-002   -0.20487599074840546     
   3.6600000000000008E-002   -0.33752712607383728     
   3.6900000000000002E-002   -0.48141056299209595     
   3.7199999999999997E-002   -0.63014584779739380     
   3.7500000000000006E-002   -0.77585709095001221     
   3.7800000000000000E-002   -0.90953028202056885     
   3.8100000000000009E-002    -1.0215595960617065     
   3.8400000000000004E-002    -1.1024081707000732     
   3.8699999999999998E-002    -1.1433597803115845     
   3.9000000000000007E-002    -1.1372863054275513     
   3.9300000000000002E-002    -1.0793168544769287     
   3.9600000000000003E-002   -0.96751070022583008     
   3.9900000000000005E-002   -0.80314666032791138     
   4.0200000000000000E-002   -0.59090077877044678     
   4.0500000000000001E-002   -0.33878356218338013     
   4.0800000000000003E-002    -5.7543050497770309E-002
   4.1100000000000005E-002    0.23975738883018494     
   4.1399999999999999E-002    0.53881287574768066     
   4.1700000000000008E-002    0.82497179508209229     
   4.2000000000000003E-002     1.0841608047485352     
   4.2299999999999997E-002     1.3040943145751953     
   4.2600000000000006E-002     1.4747886657714844     
   4.2900000000000001E-002     1.5893574953079224     
   4.3200000000000002E-002     1.6443344354629517     
   4.3500000000000004E-002     1.6396160125732422     
   4.3799999999999999E-002     1.5784901380538940     
   4.4100000000000000E-002     1.4669502973556519     
   4.4400000000000002E-002     1.3132437467575073     
   4.4700000000000004E-002     1.1271401643753052     
   4.4999999999999998E-002    0.91904640197753906     
   4.5300000000000000E-002    0.69950807094573975     
   4.5600000000000002E-002    0.47832036018371582     
   4.5899999999999996E-002    0.26414781808853149     
   4.6200000000000005E-002     6.4162746071815491E-002
   4.6500000000000000E-002   -0.11627751588821411     
   4.6799999999999994E-002   -0.27345222234725952     
   4.7100000000000003E-002   -0.40542194247245789     
   4.7399999999999998E-002   -0.51169133186340332     
   4.7700000000000006E-002   -0.59285342693328857     
   4.8000000000000001E-002   -0.65061992406845093     
   4.8300000000000010E-002   -0.68707233667373657     
   4.8600000000000004E-002   -0.70474648475646973     
   4.8899999999999999E-002   -0.70623099803924561     
   4.9200000000000008E-002   -0.69390457868576050     
   4.9500000000000002E-002   -0.67008340358734131     
   4.9800000000000011E-002   -0.63658183813095093     
   5.0100000000000006E-002   -0.59500038623809814     
   5.0400000000000000E-002   -0.54667127132415771     
   5.0700000000000009E-002   -0.49260506033897400     
   5.1000000000000004E-002   -0.43386027216911316     
   5.1299999999999998E-002   -0.37138774991035461     
   5.1600000000000007E-002   -0.30635961890220642     
   5.1900000000000002E-002   -0.24027583003044128     
   5.2200000000000010E-002   -0.17493171989917755     
   5.2500000000000005E-002   -0.11274906247854233     
   5.2800000000000000E-002    -5.6568913161754608E-002
   5.3099999999999994E-002    -9.7804693505167961E-003
   5.3400000000000003E-002     2.3783801123499870E-002
   5.3699999999999998E-002     4.0213391184806824E-002
   5.4000000000000006E-002     3.5626187920570374E-002
   5.4300000000000001E-002     6.7601203918457031E-003
   5.4599999999999996E-002    -4.8722803592681885E-002
   5.4900000000000004E-002   -0.13172851502895355     
   5.5199999999999999E-002   -0.24115619063377380     
   5.5499999999999994E-002   -0.37368881702423096     
   5.5800000000000002E-002   -0.52338832616806030     
   5.6099999999999997E-002   -0.68174588680267334     
   5.6400000000000006E-002   -0.83791035413742065     
   5.6700000000000000E-002   -0.97911256551742554     
   5.6999999999999995E-002    -1.0915682315826416     
   5.7300000000000004E-002    -1.1613448858261108     
   5.7599999999999998E-002    -1.1756513118743896     
   5.7900000000000007E-002    -1.1240267753601074     
   5.8200000000000002E-002   -0.99949008226394653     
   5.8499999999999996E-002   -0.79957729578018188     
   5.8800000000000005E-002   -0.52697503566741943     
   5.9100000000000000E-002   -0.18986387550830841     
   5.9400000000000008E-002    0.19842576980590820     
   5.9700000000000003E-002    0.61985617876052856     
   6.0000000000000012E-002     1.0530617237091064     
   6.0300000000000006E-002     1.4746779203414917     
   6.0600000000000001E-002     1.8609522581100464     
   6.0900000000000010E-002     2.1897599697113037     
   6.1200000000000004E-002     2.4418842792510986     
   6.1500000000000013E-002     2.6027793884277344     
   6.1800000000000008E-002     2.6634624004364014     
   6.2100000000000002E-002     2.6208372116088867     
   6.2399999999999997E-002     2.4781563282012939     
   6.2700000000000006E-002     2.2441110610961914     
   6.3000000000000000E-002     1.9322078227996826     
   6.3300000000000009E-002     1.5596449375152588     
   6.3600000000000004E-002     1.1455717086791992     
   6.3899999999999998E-002    0.71016889810562134     
   6.4199999999999993E-002    0.27284270524978638     
   6.4500000000000002E-002   -0.14889992773532867     
   6.4800000000000010E-002   -0.53981721401214600     
   6.5100000000000005E-002   -0.88837873935699463     
   6.5400000000000000E-002    -1.1861218214035034     
   6.5700000000000008E-002    -1.4281127452850342     
   6.5999999999999989E-002    -1.6126571893692017     
   6.6299999999999998E-002    -1.7402700185775757     
   6.6600000000000006E-002    -1.8138971328735352     
   6.6900000000000001E-002    -1.8377503156661987     
   6.7199999999999996E-002    -1.8168666362762451     
   6.7500000000000004E-002    -1.7570266723632812     
   6.7800000000000013E-002    -1.6639310121536255     
   6.8099999999999994E-002    -1.5434626340866089     
   6.8400000000000002E-002    -1.4014840126037598     
   6.8700000000000011E-002    -1.2437142133712769     
   6.8999999999999992E-002    -1.0761954784393311     
   6.9300000000000000E-002   -0.90494465827941895     
   6.9600000000000009E-002   -0.73616659641265869     
   6.9900000000000004E-002   -0.57624584436416626     
   7.0199999999999999E-002   -0.43124571442604065     
   7.0500000000000007E-002   -0.30682644248008728     
   7.0800000000000016E-002   -0.20780672132968903     
   7.1099999999999997E-002   -0.13738502562046051     
   7.1400000000000005E-002    -9.6971839666366577E-002
   7.1700000000000000E-002    -8.5394695401191711E-002
   7.1999999999999995E-002    -9.8684005439281464E-002
   7.2300000000000003E-002   -0.13009236752986908     
   7.2600000000000012E-002   -0.16989855468273163     
   7.2900000000000006E-002   -0.20629520714282990     
   7.3200000000000001E-002   -0.22587193548679352     
   7.3499999999999996E-002   -0.21473397314548492     
   7.3800000000000004E-002   -0.16011202335357666     
   7.4099999999999999E-002    -5.1454067230224609E-002
   7.4400000000000008E-002    0.11793322861194611     
   7.4700000000000003E-002    0.34969061613082886     
   7.5000000000000011E-002    0.63979321718215942     
   7.5299999999999992E-002    0.97770822048187256     
   7.5600000000000001E-002     1.3469352722167969     
   7.5900000000000009E-002     1.7257666587829590     
   7.6200000000000004E-002     2.0883316993713379     
   7.6499999999999999E-002     2.4071316719055176     
   7.6800000000000007E-002     2.6546707153320312     
   7.7099999999999988E-002     2.8061721324920654     
   7.7399999999999997E-002     2.8420364856719971     
   7.7700000000000005E-002     2.7491335868835449     
   7.8000000000000014E-002     2.5230364799499512     
   7.8299999999999995E-002     2.1682276725769043     
   7.8600000000000003E-002     1.6980519294738770     
   7.8900000000000012E-002     1.1344968080520630     
   7.9199999999999993E-002    0.50577604770660400     
   7.9500000000000001E-002   -0.15514656901359558     
   7.9800000000000010E-002   -0.81307810544967651     
   8.0100000000000018E-002    -1.4337742328643799     
   8.0399999999999999E-002    -1.9854083061218262     
   8.0700000000000008E-002    -2.4417450428009033     
   8.1000000000000003E-002    -2.7833240032196045     
   8.1299999999999997E-002    -2.9982714653015137     
   8.1600000000000006E-002    -3.0835797786712646     
   8.1900000000000014E-002    -3.0434739589691162     
   8.2199999999999995E-002    -2.8895659446716309     
   8.2500000000000004E-002    -2.6392197608947754     
   8.2799999999999999E-002    -2.3133299350738525     
   8.3100000000000007E-002    -1.9355067014694214     
   8.3400000000000002E-002    -1.5292087793350220     
   8.3700000000000011E-002    -1.1167097091674805     
   8.4000000000000005E-002   -0.71766275167465210     
   8.4300000000000000E-002   -0.34752020239830017     
   8.4599999999999995E-002    -1.7683669924736023E-002
   8.4900000000000003E-002    0.26556515693664551     
   8.5199999999999998E-002    0.50076788663864136     
   8.5500000000000007E-002    0.69061201810836792     
   8.5800000000000001E-002    0.84197020530700684     
   8.6100000000000010E-002    0.96438652276992798     
   8.6399999999999991E-002     1.0692750215530396     
   8.6699999999999999E-002     1.1688625812530518     
   8.7000000000000008E-002     1.2742526531219482     
   8.7300000000000003E-002     1.3949991464614868     
   8.7599999999999997E-002     1.5372103452682495     
   8.7900000000000006E-002     1.7027084827423096     
   8.8200000000000014E-002     1.8886715173721313     
   8.8499999999999995E-002     2.0865523815155029     
   8.8800000000000004E-002     2.2829983234405518     
   8.9100000000000013E-002     2.4601297378540039     
   8.9399999999999993E-002     2.5967605113983154     
   8.9700000000000002E-002     2.6706507205963135     
   9.0000000000000011E-002     2.6598851680755615     
   9.0299999999999991E-002     2.5456488132476807     
   9.0600000000000000E-002     2.3144829273223877     
   9.0900000000000009E-002     1.9596787691116333     
   9.1200000000000017E-002     1.4835156202316284     
   9.1499999999999998E-002    0.89748829603195190     
   9.1800000000000007E-002    0.22214697301387787     
   9.2100000000000001E-002   -0.51331329345703125     
   9.2399999999999996E-002    -1.2737103700637817     
   9.2700000000000005E-002    -2.0197455883026123     
   9.3000000000000013E-002    -2.7111630439758301     
   9.3300000000000008E-002    -3.3102278709411621     
   9.3600000000000003E-002    -3.7839555740356445     
   9.3899999999999997E-002    -4.1074333190917969     
   9.4200000000000006E-002    -4.2654151916503906     
   9.4500000000000001E-002    -4.2530670166015625     
   9.4800000000000009E-002    -4.0766501426696777     
   9.5100000000000004E-002    -3.7517790794372559     
   9.5399999999999999E-002    -3.3023447990417480     
   9.5699999999999993E-002    -2.7580018043518066     
   9.6000000000000002E-002    -2.1510248184204102     
   9.6300000000000011E-002    -1.5143194198608398     
   9.6600000000000005E-002   -0.87810701131820679     
   9.6900000000000000E-002   -0.26810282468795776     
   9.7200000000000009E-002    0.29551300406455994     
   9.7499999999999989E-002    0.79954648017883301     
   9.7799999999999998E-002     1.2368606328964233     
   9.8100000000000007E-002     1.6058620214462280     
   9.8400000000000015E-002     1.9094017744064331     
   9.8699999999999996E-002     2.1524040699005127     
   9.9000000000000005E-002     2.3407845497131348     
   9.9300000000000013E-002     2.4792373180389404     
   9.9599999999999994E-002     2.5700938701629639     
   9.9900000000000003E-002     2.6129877567291260     
  0.10020000000000001          2.6041386127471924     
  0.10049999999999999          2.5375149250030518     
  0.10080000000000000          2.4058048725128174     
  0.10110000000000001          2.2018435001373291     
  0.10140000000000000          1.9207339286804199     
  0.10170000000000000          1.5612094402313232     
  0.10200000000000001          1.1273647546768188     
  0.10230000000000002         0.62956285476684570     
  0.10260000000000000          8.4693416953086853E-002
  0.10290000000000001        -0.48417338728904724     
  0.10320000000000000         -1.0493124723434448     
  0.10350000000000001         -1.5801419019699097     
  0.10380000000000000         -2.0455479621887207     
  0.10410000000000001         -2.4167113304138184     
  0.10440000000000001         -2.6695566177368164     
  0.10470000000000000         -2.7869644165039062     
  0.10500000000000000         -2.7604885101318359     
  0.10530000000000000         -2.5912687778472900     
  0.10560000000000000         -2.2899065017700195     
  0.10590000000000001         -1.8756418228149414     
  0.10620000000000000         -1.3746761083602905     
  0.10650000000000001        -0.81804209947586060     
  0.10679999999999999        -0.23914155364036560     
  0.10710000000000000         0.32887026667594910     
  0.10740000000000001         0.85528737306594849     
  0.10770000000000000          1.3139400482177734     
  0.10800000000000000          1.6844023466110229     
  0.10830000000000001          1.9526687860488892     
  0.10859999999999999          2.1114394664764404     
  0.10890000000000000          2.1594858169555664     
  0.10920000000000001          2.1010861396789551     
  0.10950000000000001          1.9451380968093872     
  0.10979999999999999          1.7040567398071289     
  0.11009999999999999          1.3931556940078735     
  0.11040000000000001          1.0297360420227051     
  0.11070000000000001         0.63266897201538086     
  0.11100000000000000         0.22200810909271240     
  0.11130000000000000        -0.18150117993354797     
  0.11160000000000002        -0.55656772851943970     
  0.11190000000000001        -0.88221788406372070     
  0.11220000000000001         -1.1384217739105225     
  0.11250000000000000         -1.3070988655090332     
  0.11280000000000000         -1.3736556768417358     
  0.11309999999999999         -1.3280465602874756     
  0.11340000000000001         -1.1663622856140137     
  0.11369999999999998        -0.89181536436080933     
  0.11400000000000000        -0.51524752378463745     
  0.11430000000000000         -5.5713117122650146E-002
  0.11460000000000002         0.46045541763305664     
  0.11489999999999999          1.0006334781646729     
  0.11520000000000001          1.5278671979904175     
  0.11550000000000001          2.0034658908843994     
  0.11580000000000000          2.3893756866455078     
  0.11609999999999999          2.6514828205108643     
  0.11640000000000002          2.7621479034423828     
  0.11670000000000001          2.7026791572570801     
  0.11700000000000001          2.4652142524719238     
  0.11730000000000000          2.0535013675689697     
  0.11760000000000000          1.4833612442016602     
  0.11789999999999999         0.78196382522583008     
  0.11820000000000001         -1.3706125319004059E-002
  0.11850000000000001        -0.85864138603210449     
  0.11880000000000000         -1.7029626369476318     
  0.11910000000000000         -2.4946162700653076     
  0.11940000000000002         -3.1827471256256104     
  0.11970000000000001         -3.7210032939910889     
  0.12000000000000001         -4.0704336166381836     
  0.12030000000000000         -4.2025413513183594     
  0.12060000000000000         -4.1011819839477539     
  0.12089999999999999         -3.7643353939056396     
  0.12119999999999999         -3.2047221660614014     
  0.12150000000000001         -2.4494633674621582     
  0.12180000000000001         -1.5392959117889404     
  0.12210000000000000        -0.52624648809432983     
  0.12239999999999999         0.52915275096893311     
  0.12270000000000002          1.5615361928939819     
  0.12300000000000001          2.5051617622375488     
  0.12330000000000001          3.2978801727294922     
  0.12360000000000000          3.8861832618713379     
  0.12390000000000000          4.2288031578063965     
  0.12419999999999999          4.2999315261840820     
  0.12450000000000001          4.0918459892272949     
  0.12480000000000001          3.6153719425201416     
  0.12509999999999999          2.8998911380767822     
  0.12540000000000001          1.9914599657058716     
  0.12570000000000003         0.94959574937820435     
  0.12600000000000000        -0.15689247846603394     
  0.12630000000000002         -1.2549425363540649     
  0.12659999999999999         -2.2726812362670898     
  0.12690000000000001         -3.1445784568786621     
  0.12719999999999998         -3.8163225650787354     
  0.12750000000000000         -4.2488441467285156     
  0.12780000000000002         -4.4207582473754883     
  0.12809999999999999         -4.3300380706787109     
  0.12840000000000001         -3.9932563304901123     
  0.12869999999999998         -3.4439611434936523     
  0.12900000000000000         -2.7296769618988037     
  0.12930000000000003         -1.9072234630584717     
  0.12959999999999999         -1.0384100675582886     
  0.12990000000000002        -0.18463620543479919     
  0.13019999999999998         0.59820175170898438     
  0.13050000000000000          1.2634338140487671     
  0.13080000000000003          1.7775108814239502     
  0.13109999999999999          2.1215956211090088     
  0.13140000000000002          2.2922124862670898     
  0.13169999999999998          2.3008420467376709     
  0.13200000000000001          2.1711192131042480     
  0.13229999999999997          1.9360117912292480     
  0.13260000000000000          1.6340689659118652     
  0.13290000000000002          1.3047521114349365     
  0.13319999999999999         0.98473227024078369     
  0.13350000000000001         0.70404887199401855     
  0.13380000000000003         0.48330625891685486     
  0.13410000000000000         0.33240443468093872     
  0.13440000000000002         0.25004422664642334     
  0.13469999999999999         0.22490809857845306     
  0.13500000000000001         0.23782281577587128     
  0.13529999999999998         0.26475065946578979     
  0.13560000000000000         0.28059625625610352     
  0.13590000000000002         0.26273313164710999     
  0.13619999999999999         0.19447228312492371     
  0.13650000000000001          6.7889921367168427E-002
  0.13680000000000003        -0.11509945988655090     
  0.13710000000000000        -0.34221395850181580     
  0.13740000000000002        -0.59190368652343750     
  0.13769999999999999        -0.83586025238037109     
  0.13800000000000001         -1.0421506166458130     
  0.13829999999999998         -1.1793030500411987     
  0.13860000000000000         -1.2201658487319946     
  0.13890000000000002         -1.1457114219665527     
  0.13919999999999999        -0.94791811704635620     
  0.13950000000000001        -0.63146328926086426     
  0.13979999999999998        -0.21403273940086365     
  0.14010000000000000         0.27500358223915100     
  0.14040000000000002         0.79717206954956055     
  0.14069999999999999          1.3083814382553101     
  0.14100000000000001          1.7635886669158936     
  0.14130000000000004          2.1214144229888916     
  0.14160000000000000          2.3481626510620117     
  0.14189999999999997          2.4216356277465820     
  0.14219999999999999          2.3330769538879395     
  0.14250000000000002          2.0883426666259766     
  0.14279999999999998          1.7069345712661743     
  0.14310000000000000          1.2198361158370972     
  0.14339999999999997         0.66650670766830444     
  0.14369999999999999          9.0506173670291901E-002
  0.14400000000000002        -0.46435895562171936     
  0.14429999999999998        -0.95837879180908203     
  0.14460000000000001         -1.3592865467071533     
  0.14490000000000003         -1.6444793939590454     
  0.14520000000000000         -1.8026825189590454     
  0.14550000000000002         -1.8334397077560425     
  0.14579999999999999         -1.7464058399200439     
  0.14610000000000001         -1.5589973926544189     
  0.14640000000000003         -1.2938212156295776     
  0.14670000000000000        -0.97643548250198364     
  0.14699999999999996        -0.63198846578598022     
  0.14729999999999999        -0.28364953398704529     
  0.14760000000000001          4.9345139414072037E-002
  0.14789999999999998         0.35256037116050720     
  0.14820000000000000         0.61596912145614624     