  -1.4999999999999999E-002     0.0000000000000000     
  -1.4700000000000000E-002     0.0000000000000000     
  -1.4400000000000000E-002     0.0000000000000000     
  -1.4100000000000000E-002     0.0000000000000000     
  -1.3800000000000000E-002     0.0000000000000000     
  -1.3500000000000000E-002     0.0000000000000000     
  -1.3200000000000000E-002     0.0000000000000000     
  -1.2899999999999998E-002     0.0000000000000000     
  -1.2600000000000000E-002     0.0000000000000000     
  -1.2299999999999998E-002     0.0000000000000000     
  -1.2000000000000000E-002     0.0000000000000000     
  -1.1699999999999999E-002     0.0000000000000000     
  -1.1399999999999999E-002     0.0000000000000000     
  -1.1099999999999999E-002     0.0000000000000000     
  -1.0799999999999999E-002     0.0000000000000000     
  -1.0499999999999999E-002     0.0000000000000000     
  -1.0199999999999999E-002     0.0000000000000000     
  -9.8999999999999991E-003     0.0000000000000000     
  -9.5999999999999992E-003     0.0000000000000000     
  -9.2999999999999992E-003     0.0000000000000000     
  -8.9999999999999993E-003     0.0000000000000000     
  -8.6999999999999994E-003     0.0000000000000000     
  -8.3999999999999995E-003     0.0000000000000000     
  -8.0999999999999996E-003     0.0000000000000000     
  -7.7999999999999988E-003     0.0000000000000000     
  -7.4999999999999997E-003    -2.8125463719540946E-037
  -7.1999999999999998E-003     3.9545360128060072E-037
  -6.8999999999999981E-003     3.6022522693677997E-037
  -6.5999999999999982E-003     4.2390736972425835E-035
  -6.3000000000000000E-003    -3.3114263609839250E-034
  -6.0000000000000001E-003    -3.9033685818595658E-033
  -5.6999999999999985E-003     7.7314414608243854E-032
  -5.3999999999999986E-003    -7.1106104671070887E-031
  -5.1000000000000004E-003     4.0186040445572574E-030
  -4.7999999999999987E-003    -1.3222011615563238E-029
  -4.5000000000000005E-003     1.2633540711790180E-029
  -4.1999999999999989E-003     9.8966486123638732E-029
  -3.8999999999999990E-003    -5.3618390393526187E-028
  -3.5999999999999990E-003     1.2891265045829434E-027
  -3.2999999999999991E-003    -1.4980833553871476E-027
  -2.9999999999999992E-003     6.5693364476901674E-028
  -2.6999999999999993E-003    -5.3104452136006564E-027
  -2.3999999999999994E-003     3.9176826275953876E-026
  -2.0999999999999977E-003    -1.3662534699531407E-025
  -1.7999999999999995E-003     2.8614501991691819E-025
  -1.4999999999999979E-003    -3.4005510857833336E-025
  -1.1999999999999997E-003     5.8908163445475768E-026
  -8.9999999999999976E-004     3.6360423362479758E-025
  -5.9999999999999810E-004     1.1587552198812023E-024
  -2.9999999999999992E-004    -1.1247926674300389E-023
   0.0000000000000000          4.3052563529867094E-023
   3.0000000000000165E-004    -1.0875958404877327E-022
   5.9999999999999984E-004     1.8225557102122929E-022
   9.0000000000000149E-004    -1.0522493814619310E-022
   1.2000000000000031E-003    -5.7661799226726893E-022
   1.5000000000000013E-003     2.8196771565891002E-021
   1.8000000000000030E-003    -8.2266456183765760E-021
   2.1000000000000012E-003     1.8863724622301085E-020
   2.3999999999999994E-003    -3.6028158541302560E-020
   2.7000000000000010E-003     5.5402890142879616E-020
   2.9999999999999992E-003    -4.8124088493325107E-020
   3.3000000000000008E-003    -1.1281479519849740E-019
   3.6000000000000025E-003     9.2160307268080265E-019
   3.9000000000000007E-003    -4.1477540794011856E-018
   4.2000000000000023E-003     1.5682867957972574E-017
   4.5000000000000005E-003    -5.3913104462254382E-017
   4.7999999999999987E-003     1.7300551332973538E-016
   5.1000000000000004E-003    -5.2451885277968028E-016
   5.4000000000000020E-003     1.5134846111428514E-015
   5.7000000000000037E-003    -4.1807784447941976E-015
   5.9999999999999984E-003     1.1123093514775386E-014
   6.3000000000000000E-003    -2.8706654701992143E-014
   6.6000000000000017E-003     7.2409106163275061E-014
   6.9000000000000034E-003    -1.7898006752885276E-013
   7.2000000000000015E-003     4.2619713639356627E-013
   7.5000000000000032E-003    -9.1109238209430288E-013
   7.8000000000000014E-003     1.3564135708729608E-012
   8.0999999999999996E-003     9.4651717019722525E-013
   8.4000000000000012E-003    -1.7589540934892511E-011
   8.7000000000000029E-003     7.7706924228593266E-011
   9.0000000000000011E-003    -1.9927817729303854E-010
   9.2999999999999992E-003     1.9232550274583815E-010
   9.6000000000000009E-003     7.6436046381189726E-010
   9.8999999999999991E-003    -3.7384166873266622E-009
   1.0200000000000001E-002     5.7308251477650174E-009
   1.0500000000000002E-002     7.3204624584377598E-009
   1.0800000000000004E-002    -4.3163424834347097E-008
   1.1099999999999999E-002     3.2085292644978836E-008
   1.1400000000000000E-002     1.4437631534747197E-007
   1.1700000000000002E-002    -2.3632304646525881E-007
   1.2000000000000004E-002    -4.6549808985218988E-007
   1.2300000000000002E-002     7.3411013090662891E-007
   1.2600000000000000E-002     1.5819036889297422E-006
   1.2900000000000002E-002    -1.4460056263487786E-006
   1.3200000000000000E-002    -4.9764353207137901E-006
   1.3500000000000002E-002     2.0699571905424818E-006
   1.3800000000000003E-002     2.2118001652415842E-005
   1.4100000000000001E-002     4.0905553760239854E-005
   1.4400000000000000E-002     4.9879898142535239E-005
   1.4700000000000001E-002     6.6708060330711305E-005
   1.4999999999999999E-002     1.1687547521432862E-004
   1.5300000000000001E-002     2.0279697491787374E-004
   1.5600000000000003E-002     3.1219259835779667E-004
   1.5899999999999997E-002     4.5824065455235541E-004
   1.6199999999999999E-002     6.8822083994746208E-004
   1.6500000000000001E-002     1.0468090185895562E-003
   1.6800000000000002E-002     1.5591118717566133E-003
   1.7100000000000004E-002     2.2645178250968456E-003
   1.7400000000000006E-002     3.2483753748238087E-003
   1.7700000000000000E-002     4.6223266981542110E-003
   1.8000000000000002E-002     6.4869453199207783E-003
   1.8300000000000004E-002     8.9450804516673088E-003
   1.8600000000000005E-002     1.2142607010900974E-002
   1.8900000000000000E-002     1.6258636489510536E-002
   1.9200000000000002E-002     2.1450756117701530E-002
   1.9500000000000003E-002     2.7832128107547760E-002
   1.9799999999999998E-002     3.5497840493917465E-002
   2.0100000000000000E-002     4.4518586248159409E-002
   2.0400000000000001E-002     5.4871279746294022E-002
   2.0700000000000003E-002     6.6367082297801971E-002
   2.0999999999999998E-002     7.8652404248714447E-002
   2.1299999999999999E-002     9.1217249631881714E-002
   2.1600000000000001E-002    0.10334870964288712     
   2.1900000000000003E-002    0.11407420784235001     
   2.2200000000000004E-002    0.12217052280902863     
   2.2500000000000006E-002    0.12625597417354584     
   2.2800000000000001E-002    0.12482855468988419     
   2.3100000000000002E-002    0.11633393168449402     
   2.3400000000000004E-002     9.9268391728401184E-002
   2.3699999999999999E-002     7.2379700839519501E-002
   2.4000000000000000E-002     3.4848567098379135E-002
   2.4300000000000002E-002    -1.3621618971228600E-002
   2.4599999999999997E-002    -7.2645060718059540E-002
   2.4900000000000005E-002   -0.14098991453647614     
   2.5200000000000000E-002   -0.21650542318820953     
   2.5499999999999995E-002   -0.29616120457649231     
   2.5800000000000003E-002   -0.37619370222091675     
   2.6099999999999998E-002   -0.45224407315254211     
   2.6400000000000007E-002   -0.51956135034561157     
   2.6700000000000002E-002   -0.57338082790374756     
   2.6999999999999996E-002   -0.60938036441802979     
   2.7300000000000005E-002   -0.62402373552322388     
   2.7600000000000000E-002   -0.61481779813766479     
   2.7900000000000008E-002   -0.58069789409637451     
   2.8200000000000003E-002   -0.52218919992446899     
   2.8499999999999998E-002   -0.44153204560279846     
   2.8800000000000006E-002   -0.34261134266853333     
   2.9100000000000001E-002   -0.23051723837852478     
   2.9400000000000003E-002   -0.11135239154100418     
   2.9700000000000004E-002     8.1656919792294502E-003
   3.0000000000000006E-002    0.12123081088066101     
   3.0300000000000001E-002    0.22155623137950897     
   3.0600000000000002E-002    0.30384358763694763     
   3.0900000000000004E-002    0.36407208442687988     
   3.1199999999999999E-002    0.39994984865188599     
   3.1500000000000007E-002    0.41100591421127319     
   3.1800000000000002E-002    0.39845150709152222     
   3.2099999999999997E-002    0.36545619368553162     
   3.2400000000000005E-002    0.31671053171157837     
   3.2700000000000000E-002    0.25793665647506714     
   3.3000000000000002E-002    0.19579446315765381     
   3.3300000000000003E-002    0.13729114830493927     
   3.3599999999999998E-002     8.9299671351909637E-002
   3.3900000000000000E-002     5.8302115648984909E-002
   3.4200000000000001E-002     4.9592066556215286E-002
   3.4500000000000003E-002     6.7161217331886292E-002
   3.4799999999999998E-002    0.11340683698654175     
   3.5099999999999999E-002    0.18860150873661041     
   3.5400000000000001E-002    0.29099681973457336     
   3.5699999999999996E-002    0.41651639342308044     
   3.6000000000000004E-002    0.55909579992294312     
   3.6299999999999999E-002    0.71097022294998169     
   3.6600000000000008E-002    0.86246144771575928     
   3.6900000000000002E-002     1.0029003620147705     
   3.7199999999999997E-002     1.1214805841445923     
   3.7500000000000006E-002     1.2073861360549927     
   3.7800000000000000E-002     1.2509192228317261     
   3.8100000000000009E-002     1.2439860105514526     
   3.8400000000000004E-002     1.1809226274490356     
   3.8699999999999998E-002     1.0595805644989014     
   3.9000000000000007E-002    0.88108408451080322     
   3.9300000000000002E-002    0.65010768175125122     
   3.9600000000000003E-002    0.37558376789093018     
   3.9900000000000005E-002     6.9734171032905579E-002
   4.0200000000000000E-002   -0.25216040015220642     
   4.0500000000000001E-002   -0.57253265380859375     
   4.0800000000000003E-002   -0.87285315990447998     
   4.1100000000000005E-002    -1.1341872215270996     
   4.1399999999999999E-002    -1.3391844034194946     
   4.1700000000000008E-002    -1.4733240604400635     
   4.2000000000000003E-002    -1.5252038240432739     
   4.2299999999999997E-002    -1.4884783029556274     
   4.2600000000000006E-002    -1.3623881340026855     
   4.2900000000000001E-002    -1.1516425609588623     
   4.3200000000000002E-002   -0.86681425571441650     
   4.3500000000000004E-002   -0.52360439300537109     
   4.3799999999999999E-002   -0.14209821820259094     
   4.4100000000000000E-002    0.25446805357933044     
   4.4400000000000002E-002    0.64133250713348389     
   4.4700000000000004E-002    0.99336296319961548     
   4.4999999999999998E-002     1.2868686914443970     
   4.5300000000000000E-002     1.5015223026275635     
   4.5600000000000002E-002     1.6208020448684692     
   4.5899999999999996E-002     1.6333222389221191     
   4.6200000000000005E-002     1.5338999032974243     
   4.6500000000000000E-002     1.3232603073120117     
   4.6799999999999994E-002     1.0083585977554321     
   4.7100000000000003E-002    0.60165798664093018     
   4.7399999999999998E-002    0.12028086185455322     
   4.7700000000000006E-002   -0.41420316696166992     
   4.8000000000000001E-002   -0.97737473249435425     
   4.8300000000000010E-002    -1.5431098937988281     
   4.8600000000000004E-002    -2.0849599838256836     
   4.8899999999999999E-002    -2.5770676136016846     
   4.9200000000000008E-002    -2.9948463439941406     
   4.9500000000000002E-002    -3.3169951438903809     
   4.9800000000000011E-002    -3.5260107517242432     
   5.0100000000000006E-002    -3.6082744598388672     
   5.0400000000000000E-002    -3.5553889274597168     
   5.0700000000000009E-002    -3.3645563125610352     
   5.1000000000000004E-002    -3.0381941795349121     
   5.1299999999999998E-002    -2.5841131210327148     
   5.1600000000000007E-002    -2.0155684947967529     
   5.1900000000000002E-002    -1.3508846759796143     
   5.2200000000000010E-002   -0.61261177062988281     
   5.2500000000000005E-002    0.17365805804729462     
   5.2800000000000000E-002    0.97919273376464844     
   5.3099999999999994E-002     1.7736617326736450     
   5.3400000000000003E-002     2.5264210700988770     
   5.3699999999999998E-002     3.2069845199584961     
   5.4000000000000006E-002     3.7864887714385986     
   5.4300000000000001E-002     4.2388696670532227     
   5.4599999999999996E-002     4.5418148040771484     
   5.4900000000000004E-002     4.6779026985168457     
   5.5199999999999999E-002     4.6350927352905273     
   5.5499999999999994E-002     4.4078927040100098     
   5.5800000000000002E-002     3.9984793663024902     
   5.6099999999999997E-002     3.4167294502258301     
   5.6400000000000006E-002     2.6804883480072021     
   5.6700000000000000E-002     1.8157100677490234     
   5.6999999999999995E-002    0.85582679510116577     
   5.7300000000000004E-002   -0.15874469280242920     
   5.7599999999999998E-002    -1.1826339960098267     
   5.7900000000000007E-002    -2.1676719188690186     
   5.8200000000000002E-002    -3.0645573139190674     
   5.8499999999999996E-002    -3.8263268470764160     
   5.8800000000000005E-002    -4.4115896224975586     
   5.9100000000000000E-002    -4.7870249748229980     
   5.9400000000000008E-002    -4.9302282333374023     
   5.9700000000000003E-002    -4.8316431045532227     
   6.0000000000000012E-002    -4.4961924552917480     
   6.0300000000000006E-002    -3.9434015750885010     
   6.0600000000000001E-002    -3.2062437534332275     
   6.0900000000000010E-002    -2.3295848369598389     
   6.1200000000000004E-002    -1.3668419122695923     
   6.1500000000000013E-002   -0.37665528059005737     
   6.1800000000000008E-002    0.58085978031158447     
   6.2100000000000002E-002     1.4491072893142700     
   6.2399999999999997E-002     2.1785011291503906     
   6.2700000000000006E-002     2.7297725677490234     
   6.3000000000000000E-002     3.0762100219726562     
   6.3300000000000009E-002     3.2051451206207275     
   6.3600000000000004E-002     3.1188659667968750     
   6.3899999999999998E-002     2.8331646919250488     
   6.4199999999999993E-002     2.3750939369201660     
   6.4500000000000002E-002     1.7814491987228394     
   6.4800000000000010E-002     1.0956839323043823     
   6.5100000000000005E-002    0.36464285850524902     
   6.5400000000000000E-002   -0.36469975113868713     
   6.5700000000000008E-002    -1.0476440191268921     
   6.5999999999999989E-002    -1.6434319019317627     
   6.6299999999999998E-002    -2.1173908710479736     
   6.6600000000000006E-002    -2.4420490264892578     
   6.6900000000000001E-002    -2.5970957279205322     
   6.7199999999999996E-002    -2.5696721076965332     
   6.7500000000000004E-002    -2.3545057773590088     
   6.7800000000000013E-002    -1.9533596038818359     
   6.8099999999999994E-002    -1.3747525215148926     
   6.8400000000000002E-002   -0.63417887687683105     
   6.8700000000000011E-002    0.24672783911228180     
   6.8999999999999992E-002     1.2400288581848145     
   6.9300000000000000E-002     2.3115630149841309     
   6.9600000000000009E-002     3.4218559265136719     
   6.9900000000000004E-002     4.5266795158386230     
   7.0199999999999999E-002     5.5782818794250488     
   7.0500000000000007E-002     6.5275273323059082     
   7.0800000000000016E-002     7.3257980346679688     
   7.1099999999999997E-002     7.9278206825256348     
   7.1400000000000005E-002     8.2944459915161133     
   7.1700000000000000E-002     8.3948698043823242     
   7.1999999999999995E-002     8.2094726562500000     
   7.2300000000000003E-002     7.7315082550048828     
   7.2600000000000012E-002     6.9681839942932129     
   7.2900000000000006E-002     5.9404311180114746     
   7.3200000000000001E-002     4.6817617416381836     
   7.3499999999999996E-002     3.2373528480529785     
   7.3800000000000004E-002     1.6605827808380127     
   7.4099999999999999E-002     8.9157968759536743E-003
   7.4400000000000008E-002    -1.6580407619476318     
   7.4700000000000003E-002    -3.2832562923431396     
   7.5000000000000011E-002    -4.8165974617004395     
   7.5299999999999992E-002    -6.2156629562377930     
   7.5600000000000001E-002    -7.4494900703430176     
   7.5900000000000009E-002    -8.4985895156860352     
   7.6200000000000004E-002    -9.3548688888549805     
   7.6499999999999999E-002    -10.021193504333496     
   7.6800000000000007E-002    -10.507578849792480     
   7.7099999999999988E-002    -10.829744338989258     
   7.7399999999999997E-002    -11.004751205444336     
   7.7700000000000005E-002    -11.045854568481445     
   7.8000000000000014E-002    -10.962906837463379     
   7.8299999999999995E-002    -10.757062911987305     
   7.8600000000000003E-002    -10.418724060058594     
   7.8900000000000012E-002    -9.9304208755493164     
   7.9199999999999993E-002    -9.2670145034790039     
   7.9500000000000001E-002    -8.3987970352172852     
   7.9800000000000010E-002    -7.2966418266296387     
   8.0100000000000018E-002    -5.9367952346801758     
   8.0399999999999999E-002    -4.3083381652832031     
   8.0700000000000008E-002    -2.4164795875549316     
   8.1000000000000003E-002   -0.28625997900962830     
   8.1299999999999997E-002     2.0314228534698486     
   8.1600000000000006E-002     4.4642233848571777     
   8.1900000000000014E-002     6.9201264381408691     
   8.2199999999999995E-002     9.2892246246337891     
   8.2500000000000004E-002     11.454065322875977     
   8.2799999999999999E-002     13.298504829406738     
   8.3100000000000007E-002     14.714865684509277     
   8.3400000000000002E-002     15.613789558410645     
   8.3700000000000011E-002     15.931715011596680     
   8.4000000000000005E-002     15.638313293457031     
   8.4300000000000000E-002     14.737203598022461     
   8.4599999999999995E-002     13.265195846557617     
   8.4900000000000003E-002     11.295348167419434     
   8.5199999999999998E-002     8.9275407791137695     
   8.5500000000000007E-002     6.2794413566589355     
   8.5800000000000001E-002     3.4841866493225098     
   8.6100000000000010E-002    0.67843317985534668     
   8.6399999999999991E-002    -2.0069448947906494     
   8.6699999999999999E-002    -4.4525551795959473     
   8.7000000000000008E-002    -6.5579695701599121     
   8.7300000000000003E-002    -8.2433471679687500     
   8.7599999999999997E-002    -9.4560394287109375     
   8.7900000000000006E-002    -10.170849800109863     
   8.8200000000000014E-002    -10.384726524353027     
   8.8499999999999995E-002    -10.120979309082031     
   8.8800000000000004E-002    -9.4258222579956055     
   8.9100000000000013E-002    -8.3599815368652344     
   8.9399999999999993E-002    -6.9993500709533691     
   8.9700000000000002E-002    -5.4301633834838867     
   9.0000000000000011E-002    -3.7429096698760986     
   9.0299999999999991E-002    -2.0291419029235840     
   9.0600000000000000E-002   -0.37688046693801880     
   9.0900000000000009E-002     1.1327507495880127     
   9.1200000000000017E-002     2.4301197528839111     
   9.1499999999999998E-002     3.4605596065521240     
   9.1800000000000007E-002     4.1847748756408691     
   9.2100000000000001E-002     4.5824131965637207     
   9.2399999999999996E-002     4.6547360420227051     
   9.2700000000000005E-002     4.4192905426025391     
   9.3000000000000013E-002     3.9121522903442383     
   9.3300000000000008E-002     3.1873507499694824     
   9.3600000000000003E-002     2.3082621097564697     
   9.3899999999999997E-002     1.3466088771820068     
   9.4200000000000006E-002    0.37821218371391296     
   9.4500000000000001E-002   -0.52416735887527466     
   9.4800000000000009E-002    -1.2939043045043945     
   9.5100000000000004E-002    -1.8783417940139771     
   9.5399999999999999E-002    -2.2387518882751465     
   9.5699999999999993E-002    -2.3531672954559326     
   9.6000000000000002E-002    -2.2223632335662842     
   9.6300000000000011E-002    -1.8645087480545044     
   9.6600000000000005E-002    -1.3142497539520264     
   9.6900000000000000E-002   -0.62156575918197632     
   9.7200000000000009E-002    0.15410858392715454     
   9.7499999999999989E-002    0.94859486818313599     
   9.7799999999999998E-002     1.6991440057754517     
   9.8100000000000007E-002     2.3485100269317627     
   9.8400000000000015E-002     2.8491070270538330     
   9.8699999999999996E-002     3.1687405109405518     
   9.9000000000000005E-002     3.2910439968109131     
   9.9300000000000013E-002     3.2157444953918457     
   9.9599999999999994E-002     2.9593210220336914     
   9.9900000000000003E-002     2.5523016452789307     
  0.10020000000000001          2.0343432426452637     
  0.10049999999999999          1.4520132541656494     
  0.10080000000000000         0.85347920656204224     
  0.10110000000000001         0.28285014629364014     
  0.10140000000000000        -0.22118040919303894     
  0.10170000000000000        -0.63017839193344116     
  0.10200000000000001        -0.92801821231842041     
  0.10230000000000002         -1.1104186773300171     
  0.10260000000000000         -1.1846470832824707     
  0.10290000000000001         -1.1674255132675171     
  0.10320000000000000         -1.0834968090057373     
  0.10350000000000001        -0.96214467287063599     
  0.10380000000000000        -0.83250951766967773     
  0.10410000000000001        -0.72298789024353027     
  0.10440000000000001        -0.65617781877517700     
  0.10470000000000000        -0.64827728271484375     
  0.10500000000000000        -0.70818936824798584     
  0.10530000000000000        -0.83580505847930908     
  0.10560000000000000         -1.0240304470062256     
  0.10590000000000001         -1.2594395875930786     
  0.10620000000000000         -1.5238244533538818     
  0.10650000000000001         -1.7970139980316162     
  0.10679999999999999         -2.0581324100494385     
  0.10710000000000000         -2.2885551452636719     
  0.10740000000000001         -2.4726717472076416     
  0.10770000000000000         -2.5998077392578125     
  0.10800000000000000         -2.6645305156707764     
  0.10830000000000001         -2.6660857200622559     
  0.10859999999999999         -2.6091513633728027     
  0.10890000000000000         -2.5017914772033691     
  0.10920000000000001         -2.3543286323547363     
  0.10950000000000001         -2.1784465312957764     
  0.10979999999999999         -1.9853886365890503     
  0.11009999999999999         -1.7850199937820435     
  0.11040000000000001         -1.5851806402206421     
  0.11070000000000001         -1.3911650180816650     
  0.11100000000000000         -1.2051740884780884     
  0.11130000000000000         -1.0272403955459595     
  0.11160000000000002        -0.85637968778610229     
  0.11190000000000001        -0.68919831514358521     
  0.11220000000000001        -0.52187716960906982     
  0.11250000000000000        -0.35032495856285095     
  0.11280000000000000        -0.17134146392345428     
  0.11309999999999999          1.7995022237300873E-002
  0.11340000000000001         0.22125649452209473     
  0.11369999999999998         0.43942761421203613     
  0.11400000000000000         0.67358839511871338     
  0.11430000000000000         0.92447131872177124     
  0.11460000000000002          1.1891279220581055     
  0.11489999999999999          1.4649876356124878     
  0.11520000000000001          1.7485193014144897     
  0.11550000000000001          2.0319504737854004     
  0.11580000000000000          2.3082721233367920     
  0.11609999999999999          2.5705323219299316     
  0.11640000000000002          2.8110265731811523     
  0.11670000000000001          3.0237326622009277     
  0.11700000000000001          3.2054302692413330     
  0.11730000000000000          3.3565747737884521     
  0.11760000000000000          3.4805691242218018     
  0.11789999999999999          3.5817706584930420     
  0.11820000000000001          3.6686756610870361     
  0.11850000000000001          3.7497785091400146     
  0.11880000000000000          3.8288764953613281     
  0.11910000000000000          3.9091796875000000     
  0.11940000000000002          3.9894223213195801     
  0.11970000000000001          4.0613522529602051     
  0.12000000000000001          4.1139411926269531     
  0.12030000000000000          4.1331968307495117     
  0.12060000000000000          4.1046071052551270     
  0.12089999999999999          4.0164117813110352     
  0.12119999999999999          3.8591389656066895     
  0.12150000000000001          3.6322557926177979     
  0.12180000000000001          3.3411180973052979     
  0.12210000000000000          2.9943659305572510     
  0.12239999999999999          2.6077303886413574     
  0.12270000000000002          2.1960053443908691     
  0.12300000000000001          1.7689721584320068     
  0.12330000000000001          1.3338388204574585     
  0.12360000000000000         0.88730043172836304     
  0.12390000000000000         0.41633942723274231     
  0.12419999999999999         -9.8253205418586731E-002
  0.12450000000000001        -0.68200260400772095     
  0.12480000000000001         -1.3585070371627808     
  0.12509999999999999         -2.1479420661926270     
  0.12540000000000001         -3.0608682632446289     
  0.12570000000000003         -4.0893430709838867     
  0.12600000000000000         -5.2116742134094238     
  0.12630000000000002         -6.3901844024658203     
  0.12659999999999999         -7.5685410499572754     
  0.12690000000000001         -8.6867942810058594     
  0.12719999999999998         -9.6823654174804688     
  0.12750000000000000         -10.496902465820312     
  0.12780000000000002         -11.091491699218750     
  0.12809999999999999         -11.445156097412109     
  0.12840000000000001         -11.561322212219238     
  0.12869999999999998         -11.471388816833496     
  0.12900000000000000         -11.225171089172363     
  0.12930000000000003         -10.889010429382324     
  0.12959999999999999         -10.532513618469238     
  0.12990000000000002         -10.214237213134766     
  0.13019999999999998         -9.9761276245117188     
  0.13050000000000000         -9.8250122070312500     
  0.13080000000000003         -9.7268009185791016     
  0.13109999999999999         -9.6085729598999023     
  0.13140000000000002         -9.3514175415039062     
  0.13169999999999998         -8.8053588867187500     
  0.13200000000000001         -7.8069334030151367     
  0.13229999999999997         -6.1896228790283203     
  0.13260000000000000         -3.8140642642974854     
  0.13290000000000002        -0.58869403600692749     
  0.13319999999999999          3.5118575096130371     
  0.13350000000000001          8.4254970550537109     
  0.13380000000000003          14.000274658203125     
  0.13410000000000000          19.991960525512695     
  0.13440000000000002          26.072841644287109     
  0.13469999999999999          31.858493804931641     
  0.13500000000000001          36.929374694824219     
  0.13529999999999998          40.867546081542969     
  0.13560000000000000          43.297313690185547     
  0.13590000000000002          43.914176940917969     
  0.13619999999999999          42.519409179687500     
  0.13650000000000001          39.044784545898438     
  0.13680000000000003          33.558063507080078     
  0.13710000000000000          26.269845962524414     
  0.13740000000000002          17.518571853637695     
  0.13769999999999999          7.7453994750976562     
  0.13800000000000001         -2.5306160449981689     
  0.13829999999999998         -12.757323265075684     
  0.13860000000000000         -22.387172698974609     
  0.13890000000000002         -30.908967971801758     
  0.13919999999999999         -37.893630981445312     
  0.13950000000000001         -43.013107299804688     
  0.13979999999999998         -46.055873870849609     
  0.14010000000000000         -46.945858001708984     
  0.14040000000000002         -45.731468200683594     
  0.14069999999999999         -42.576583862304688     
  0.14100000000000001         -37.749267578125000     
  0.14130000000000004         -31.590799331665039     
  0.14160000000000000         -24.494390487670898     
  0.14189999999999997         -16.878505706787109     
  0.14219999999999999         -9.1548652648925781     
  0.14250000000000002         -1.7118718624114990     
  0.14279999999999998          5.1104307174682617     
  0.14310000000000000          11.038204193115234     
  0.14339999999999997          15.865654945373535     
  0.14369999999999999          19.469058990478516     
  0.14400000000000002          21.803590774536133     
  0.14429999999999998          22.894243240356445     
  0.14460000000000001          22.835672378540039     
  0.14490000000000003          21.771591186523438     
  0.14520000000000000          19.882251739501953     
  0.14550000000000002          17.376762390136719     
  0.14579999999999999          14.466424942016602     
  0.14610000000000001          11.356616020202637     
  0.14640000000000003          8.2386741638183594     
  0.14670000000000000          5.2711181640625000     
  0.14699999999999996          2.5829241275787354     
  0.14729999999999999         0.26640859246253967     
  0.14760000000000001         -1.6258616447448730     
  0.14789999999999998         -3.0694534778594971     
  0.14820000000000000         -4.0725302696228027     