  -1.4999999999999999E-002     0.0000000000000000     
  -1.4700000000000000E-002     0.0000000000000000     
  -1.4400000000000000E-002     0.0000000000000000     
  -1.4100000000000000E-002     3.1514334868339128E-035
  -1.3800000000000000E-002     1.2690284363172169E-031
  -1.3500000000000000E-002     4.8127833752270392E-029
  -1.3200000000000000E-002     9.4223161411856019E-029
  -1.2899999999999998E-002    -8.2186142207673554E-026
  -1.2600000000000000E-002    -1.5860368974211188E-025
  -1.2299999999999998E-002     6.9197608539929750E-024
  -1.2000000000000000E-002     3.9750745190297477E-023
  -1.1699999999999999E-002    -3.4050947471037029E-022
  -1.1399999999999999E-002    -4.3664842023531089E-022
  -1.1099999999999999E-002     3.7538732511492171E-021
  -1.0799999999999999E-002    -6.0620810070349471E-020
  -1.0499999999999999E-002     5.9049957897959472E-019
  -1.0199999999999999E-002    -7.8891146340477984E-019
  -9.8999999999999991E-003    -1.1205168075836237E-017
  -9.5999999999999992E-003     5.7018280924774344E-017
  -9.2999999999999992E-003    -1.0684028904368436E-016
  -8.9999999999999993E-003     3.1575766999639713E-017
  -8.6999999999999994E-003     4.5593607734815728E-016
  -8.3999999999999995E-003    -2.1709750899659257E-015
  -8.0999999999999996E-003     5.3395398454288145E-015
  -7.7999999999999988E-003    -6.2591957035148041E-015
  -7.4999999999999997E-003     2.1919539784870466E-015
  -7.1999999999999998E-003     2.9773081041046569E-015
  -6.8999999999999981E-003    -2.4706517891661187E-014
  -6.5999999999999982E-003     7.2584028631278441E-014
  -6.3000000000000000E-003    -1.6710091494645703E-014
  -6.0000000000000001E-003    -2.6885248584698762E-013
  -5.6999999999999985E-003     4.2370076089141839E-013
  -5.3999999999999986E-003     3.2502803616954457E-013
  -5.1000000000000004E-003    -2.3957537342855773E-012
  -4.7999999999999987E-003     4.4353292739940375E-012
  -4.5000000000000005E-003    -1.4642149255214565E-012
  -4.1999999999999989E-003    -1.1023381860097992E-011
  -3.8999999999999990E-003     2.4627862249548826E-011
  -3.5999999999999990E-003    -1.6122964074938295E-011
  -3.2999999999999991E-003    -2.6261461755217042E-011
  -2.9999999999999992E-003     6.5960258088804125E-011
  -2.6999999999999993E-003    -3.5875535181473239E-011
  -2.3999999999999994E-003    -5.5888387667790695E-011
  -2.0999999999999977E-003     9.2740745638586475E-011
  -1.7999999999999995E-003    -5.7083842860961020E-012
  -1.4999999999999979E-003    -1.4229507849794487E-010
  -1.1999999999999997E-003     2.1427334906398698E-010
  -8.9999999999999976E-004     5.3848332043360259E-011
  -5.9999999999999810E-004    -9.2104263105241557E-010
  -2.9999999999999992E-004     1.9589478927883874E-009
   0.0000000000000000         -9.4863961130897678E-010
   3.0000000000000165E-004    -6.0313110061827047E-009
   5.9999999999999984E-004     1.7409741204232887E-008
   9.0000000000000149E-004    -1.1911030384226251E-008
   1.2000000000000031E-003    -4.2610839301460146E-008
   1.5000000000000013E-003     1.1849718362100248E-007
   1.8000000000000030E-003    -4.7322426866003298E-008
   2.1000000000000012E-003    -3.5443730439510546E-007
   2.3999999999999994E-003     6.8774812689298415E-007
   2.7000000000000010E-003     4.9047406491808943E-007
   2.9999999999999992E-003    -3.0734770462004235E-006
   3.3000000000000008E-003    -1.3332882531358337E-007
   3.6000000000000025E-003     9.8855671240016818E-006
   3.9000000000000007E-003     1.9219771729694912E-007
   4.2000000000000023E-003    -2.7249912818660960E-005
   4.5000000000000005E-003    -7.1126983129943255E-006
   4.7999999999999987E-003     9.2165821115486324E-005
   5.1000000000000004E-003     1.9702318240888417E-004
   5.4000000000000020E-003     2.4683371884748340E-004
   5.7000000000000037E-003     3.1663477420806885E-004
   5.9999999999999984E-003     5.2618357585743070E-004
   6.3000000000000000E-003     8.9323945576325059E-004
   6.6000000000000017E-003     1.3808679068461061E-003
   6.9000000000000034E-003     2.0544901490211487E-003
   7.2000000000000015E-003     3.0971746891736984E-003
   7.5000000000000032E-003     4.6774544753134251E-003
   7.8000000000000014E-003     6.9227437488734722E-003
   8.0999999999999996E-003     1.0067367926239967E-002
   8.4000000000000012E-003     1.4492864720523357E-002
   8.7000000000000029E-003     2.0586855709552765E-002
   9.0000000000000011E-003     2.8743533417582512E-002
   9.2999999999999992E-003     3.9520792663097382E-002
   9.6000000000000009E-003     5.3587835282087326E-002
   9.8999999999999991E-003     7.1521393954753876E-002
   1.0200000000000001E-002     9.3826994299888611E-002
   1.0500000000000002E-002    0.12104480713605881     
   1.0800000000000004E-002    0.15356343984603882     
   1.1099999999999999E-002    0.19132360816001892     
   1.1400000000000000E-002    0.23376092314720154     
   1.1700000000000002E-002    0.27980145812034607     
   1.2000000000000004E-002    0.32763126492500305     
   1.2300000000000002E-002    0.37442854046821594     
   1.2600000000000000E-002    0.41634115576744080     
   1.2900000000000002E-002    0.44861254096031189     
   1.3200000000000000E-002    0.46562707424163818     
   1.3500000000000002E-002    0.46098077297210693     
   1.3800000000000003E-002    0.42782759666442871     
   1.4100000000000001E-002    0.35952973365783691     
   1.4400000000000000E-002    0.25034055113792419     
   1.4700000000000001E-002     9.6012368798255920E-002
   1.4999999999999999E-002   -0.10544878244400024     
   1.5300000000000001E-002   -0.35283473134040833     
   1.5600000000000003E-002   -0.64110434055328369     
   1.5899999999999997E-002   -0.96117442846298218     
   1.6199999999999999E-002    -1.2996662855148315     
   1.6500000000000001E-002    -1.6389342546463013     
   1.6800000000000002E-002    -1.9580501317977905     
   1.7100000000000004E-002    -2.2342166900634766     
   1.7400000000000006E-002    -2.4440708160400391     
   1.7700000000000000E-002    -2.5655026435852051     
   1.8000000000000002E-002    -2.5799262523651123     
   1.8300000000000004E-002    -2.4742712974548340     
   1.8600000000000005E-002    -2.2425475120544434     
   1.8900000000000000E-002    -1.8874063491821289     
   1.9200000000000002E-002    -1.4209818840026855     
   1.9500000000000003E-002   -0.86443823575973511     
   1.9799999999999998E-002   -0.24707686901092529     
   2.0100000000000000E-002    0.39520722627639771     
   2.0400000000000001E-002     1.0223430395126343     
   2.0700000000000003E-002     1.5932148694992065     
   2.0999999999999998E-002     2.0688395500183105     
   2.1299999999999999E-002     2.4156074523925781     
   2.1600000000000001E-002     2.6082994937896729     
   2.1900000000000003E-002     2.6325261592864990     
   2.2200000000000004E-002     2.4863793849945068     
   2.2500000000000006E-002     2.1810901165008545     
   2.2800000000000001E-002     1.7410532236099243     
   2.3100000000000002E-002     1.2025127410888672     
   2.3400000000000004E-002    0.61107194423675537     
   2.3699999999999999E-002     1.8956141546368599E-002
   2.4000000000000000E-002   -0.51841121912002563     
   2.4300000000000002E-002   -0.94659161567687988     
   2.4599999999999997E-002    -1.2159711122512817     
   2.4900000000000005E-002    -1.2855055332183838     
   2.5200000000000000E-002    -1.1261425018310547     
   2.5499999999999995E-002   -0.72335743904113770     
   2.5800000000000003E-002    -7.8446865081787109E-002
   2.6099999999999998E-002    0.79082363843917847     
   2.6400000000000007E-002     1.8504369258880615     
   2.6700000000000002E-002     3.0518724918365479     
   2.6999999999999996E-002     4.3347468376159668     
   2.7300000000000005E-002     5.6298632621765137     
   2.7600000000000000E-002     6.8630261421203613     
   2.7900000000000008E-002     7.9591903686523438     
   2.8200000000000003E-002     8.8462514877319336     
   2.8499999999999998E-002     9.4586553573608398     
   2.8800000000000006E-002     9.7408418655395508     
   2.9100000000000001E-002     9.6500329971313477     
   2.9400000000000003E-002     9.1579742431640625     
   2.9700000000000004E-002     8.2523536682128906     
   3.0000000000000006E-002     6.9374980926513672     
   3.0300000000000001E-002     5.2345132827758789     
   3.0600000000000002E-002     3.1811406612396240     
   3.0900000000000004E-002    0.83064526319503784     
   3.1199999999999999E-002    -1.7492622137069702     
   3.1500000000000007E-002    -4.4783134460449219     
   3.1800000000000002E-002    -7.2658824920654297     
   3.2099999999999997E-002    -10.013527870178223     
   3.2400000000000005E-002    -12.618490219116211     
   3.2700000000000000E-002    -14.977637290954590     
   3.3000000000000002E-002    -16.991617202758789     
   3.3300000000000003E-002    -18.569105148315430     
   3.3599999999999998E-002    -19.631504058837891     
   3.3900000000000000E-002    -20.117763519287109     
   3.4200000000000001E-002    -19.987894058227539     
   3.4500000000000003E-002    -19.225629806518555     
   3.4799999999999998E-002    -17.840923309326172     
   3.5099999999999999E-002    -15.870896339416504     
   3.5400000000000001E-002    -13.378623962402344     
   3.5699999999999996E-002    -10.451357841491699     
   3.6000000000000004E-002    -7.1967306137084961     
   3.6299999999999999E-002    -3.7379145622253418     
   3.6600000000000008E-002   -0.20847222208976746     
   3.6900000000000002E-002     3.2543308734893799     
   3.7199999999999997E-002     6.5167083740234375     
   3.7500000000000006E-002     9.4545516967773438     
   3.7800000000000000E-002     11.958996772766113     
   3.8100000000000009E-002     13.942738533020020     
   3.8400000000000004E-002     15.344097137451172     
   3.8699999999999998E-002     16.129274368286133     
   3.9000000000000007E-002     16.293409347534180     
   3.9300000000000002E-002     15.861398696899414     
   3.9600000000000003E-002     14.885963439941406     
   3.9900000000000005E-002     13.443205833435059     
   4.0200000000000000E-002     11.629176139831543     
   4.0500000000000001E-002     9.5547037124633789     
   4.0800000000000003E-002     7.3384099006652832     
   4.1100000000000005E-002     5.1003956794738770     
   4.1399999999999999E-002     2.9559295177459717     
   4.1700000000000008E-002     1.0089902877807617     
   4.2000000000000003E-002   -0.65292692184448242     
   4.2299999999999997E-002    -1.9631251096725464     
   4.2600000000000006E-002    -2.8796846866607666     
   4.2900000000000001E-002    -3.3867132663726807     
   4.3200000000000002E-002    -3.4933404922485352     
   4.3500000000000004E-002    -3.2322211265563965     
   4.3799999999999999E-002    -2.6568372249603271     
   4.4100000000000000E-002    -1.8366920948028564     
   4.4400000000000002E-002   -0.85043209791183472     
   4.4700000000000004E-002    0.22027918696403503     
   4.4999999999999998E-002     1.2959064245223999     
   4.5300000000000000E-002     2.3053007125854492     
   4.5600000000000002E-002     3.1906058788299561     
   4.5899999999999996E-002     3.9102079868316650     
   4.6200000000000005E-002     4.4401731491088867     
   4.6500000000000000E-002     4.7733035087585449     
   4.6799999999999994E-002     4.9172954559326172     
   4.7100000000000003E-002     4.8921704292297363     
   4.7399999999999998E-002     4.7258901596069336     
   4.7700000000000006E-002     4.4496321678161621     
   4.8000000000000001E-002     4.0942564010620117     
   4.8300000000000010E-002     3.6879291534423828     
   4.8600000000000004E-002     3.2538437843322754     
   4.8899999999999999E-002     2.8084592819213867     
   4.9200000000000008E-002     2.3625719547271729     
   4.9500000000000002E-002     1.9224135875701904     
   4.9800000000000011E-002     1.4896514415740967     
   5.0100000000000006E-002     1.0621660947799683     
   5.0400000000000000E-002    0.63435107469558716     
   5.0700000000000009E-002    0.19552521407604218     
   5.1000000000000004E-002   -0.27188017964363098     
   5.1299999999999998E-002   -0.79354870319366455     
   5.1600000000000007E-002    -1.4056941270828247     
   5.1900000000000002E-002    -2.1556794643402100     
   5.2200000000000010E-002    -3.0999352931976318     
   5.2500000000000005E-002    -4.3001151084899902     
   5.2800000000000000E-002    -5.8160142898559570     
   5.3099999999999994E-002    -7.6955914497375488     
   5.3400000000000003E-002    -9.9639406204223633     
   5.3699999999999998E-002    -12.611701965332031     
   5.4000000000000006E-002    -15.583961486816406     
   5.4300000000000001E-002    -18.772253036499023     
   5.4599999999999996E-002    -22.012712478637695     
   5.4900000000000004E-002    -25.089962005615234     
   5.5199999999999999E-002    -27.746154785156250     
   5.5499999999999994E-002    -29.698385238647461     
   5.5800000000000002E-002    -30.662820816040039     
   5.6099999999999997E-002    -30.380222320556641     
   5.6400000000000006E-002    -28.643680572509766     
   5.6700000000000000E-002    -25.325132369995117     
   5.6999999999999995E-002    -20.397224426269531     
   5.7300000000000004E-002    -13.946702957153320     
   5.7599999999999998E-002    -6.1797580718994141     
   5.7900000000000007E-002     2.5843327045440674     
   5.8200000000000002E-002     11.929372787475586     
   5.8499999999999996E-002     21.368082046508789     
   5.8800000000000005E-002     30.375518798828125     
   5.9100000000000000E-002     38.427516937255859     
   5.9400000000000008E-002     45.040157318115234     
   5.9700000000000003E-002     49.805778503417969     
   6.0000000000000012E-002     52.424831390380859     
   6.0300000000000006E-002     52.730140686035156     
   6.0600000000000001E-002     50.698680877685547     
   6.0900000000000010E-002     46.452465057373047     
   6.1200000000000004E-002     40.249198913574219     
   6.1500000000000013E-002     32.461860656738281     
   6.1800000000000008E-002     23.549037933349609     
   6.2100000000000002E-002     14.020884513854980     
   6.2399999999999997E-002     4.4022307395935059     
   6.2700000000000006E-002    -4.8041734695434570     
   6.3000000000000000E-002    -13.151968955993652     
   6.3300000000000009E-002    -20.275808334350586     
   6.3600000000000004E-002    -25.910249710083008     
   6.3899999999999998E-002    -29.901084899902344     
   6.4199999999999993E-002    -32.205410003662109     
   6.4500000000000002E-002    -32.882415771484375     
   6.4800000000000010E-002    -32.079673767089844     
   6.5100000000000005E-002    -30.013410568237305     
   6.5400000000000000E-002    -26.946121215820312     
   6.5700000000000008E-002    -23.163356781005859     
   6.5999999999999989E-002    -18.951580047607422     
   6.6299999999999998E-002    -14.580318450927734     
   6.6600000000000006E-002    -10.287419319152832     
   6.6900000000000001E-002    -6.2698869705200195     
   6.7199999999999996E-002    -2.6780257225036621     
   6.7500000000000004E-002    0.38685047626495361     
   6.7800000000000013E-002     2.8685247898101807     
   6.8099999999999994E-002     4.7511463165283203     
   6.8400000000000002E-002     6.0538010597229004     
   6.8700000000000011E-002     6.8230867385864258     
   6.8999999999999992E-002     7.1250476837158203     
   6.9300000000000000E-002     7.0388417243957520     
   6.9600000000000009E-002     6.6496181488037109     
   6.9900000000000004E-002     6.0429992675781250     
   7.0199999999999999E-002     5.3006553649902344     
   7.0500000000000007E-002     4.4954214096069336     
   7.0800000000000016E-002     3.6883497238159180     
   7.1099999999999997E-002     2.9279718399047852     
   7.1400000000000005E-002     2.2483427524566650     
   7.1700000000000000E-002     1.6695612668991089     
   7.1999999999999995E-002     1.1988608837127686     
   7.2300000000000003E-002    0.83327096700668335     
   7.2600000000000012E-002    0.56215769052505493     
   7.2900000000000006E-002    0.36996185779571533     
   7.3200000000000001E-002    0.23995240032672882     
   7.3499999999999996E-002    0.15624941885471344     
   7.3800000000000004E-002    0.10522677004337311     
   7.4099999999999999E-002     7.8070759773254395E-002
   7.4400000000000008E-002     6.9819062948226929E-002
   7.4700000000000003E-002     7.7852107584476471E-002
   7.5000000000000011E-002    0.10239160805940628     
   7.5299999999999992E-002    0.14435651898384094     
   7.5600000000000001E-002    0.20251423120498657     
   7.5900000000000009E-002    0.27438145875930786     
   7.6200000000000004E-002    0.35580617189407349     
   7.6499999999999999E-002    0.43956008553504944     
   7.6800000000000007E-002    0.51668632030487061     
   7.7099999999999988E-002    0.57888621091842651     
   7.7399999999999997E-002    0.61962622404098511     
   7.7700000000000005E-002    0.63306403160095215     
   7.8000000000000014E-002    0.61614555120468140     
   7.8299999999999995E-002    0.57109916210174561     
   7.8600000000000003E-002    0.50211155414581299     
   7.8900000000000012E-002    0.41499173641204834     
   7.9199999999999993E-002    0.31755104660987854     
   7.9500000000000001E-002    0.21746504306793213     
   7.9800000000000010E-002    0.12121643871068954     
   8.0100000000000018E-002     3.3801283687353134E-002
   8.0399999999999999E-002    -4.2115427553653717E-002
   8.0700000000000008E-002   -0.10549819469451904     
   8.1000000000000003E-002   -0.15689237415790558     
   8.1299999999999997E-002   -0.19741129875183105     
   8.1600000000000006E-002   -0.22794476151466370     
   8.1900000000000014E-002   -0.24967327713966370     
   8.2199999999999995E-002   -0.26284065842628479     
   8.2500000000000004E-002   -0.26676055788993835     
   8.2799999999999999E-002   -0.26081249117851257     
   8.3100000000000007E-002   -0.24453833699226379     
   8.3400000000000002E-002   -0.21821109950542450     
   8.3700000000000011E-002   -0.18357558548450470     
   8.4000000000000005E-002   -0.14316514134407043     
   8.4300000000000000E-002   -0.10081505030393600     
   8.4599999999999995E-002    -6.1307933181524277E-002
   8.4900000000000003E-002    -2.9725352302193642E-002
   8.5199999999999998E-002    -9.8279705271124840E-003
   8.5500000000000007E-002    -3.6180862225592136E-003
   8.5800000000000001E-002    -1.1642054654657841E-002
   8.6100000000000010E-002    -3.2604880630970001E-002
   8.6399999999999991E-002    -6.2890723347663879E-002
   8.6699999999999999E-002    -9.7078420221805573E-002
   8.7000000000000008E-002   -0.13012020289897919     
   8.7300000000000003E-002   -0.15713773667812347     
   8.7599999999999997E-002   -0.17424425482749939     
   8.7900000000000006E-002   -0.17960758507251740     
   8.8200000000000014E-002   -0.17326450347900391     
   8.8499999999999995E-002   -0.15754601359367371     
   8.8800000000000004E-002   -0.13628235459327698     
   8.9100000000000013E-002   -0.11366820335388184     
   8.9399999999999993E-002    -9.4027042388916016E-002
   8.9700000000000002E-002    -8.0599851906299591E-002
   9.0000000000000011E-002    -7.5361132621765137E-002
   9.0299999999999991E-002    -7.8726157546043396E-002
   9.0600000000000000E-002    -8.8139899075031281E-002
   9.0900000000000009E-002    -9.9956505000591278E-002
   9.1200000000000017E-002   -0.11040040105581284     
   9.1499999999999998E-002   -0.11522198468446732     
   9.1800000000000007E-002   -0.11063276231288910     
   9.2100000000000001E-002    -9.4824947416782379E-002
   9.2399999999999996E-002    -6.7884750664234161E-002
   9.2700000000000005E-002    -3.2026246190071106E-002
   9.3000000000000013E-002     9.4354385510087013E-003
   9.3300000000000008E-002     5.1180604845285416E-002
   9.3600000000000003E-002     8.7076731026172638E-002
   9.3899999999999997E-002    0.11256732046604156     
   9.4200000000000006E-002    0.12357953190803528     
   9.4500000000000001E-002    0.11780025810003281     
   9.4800000000000009E-002     9.6091404557228088E-002
   9.5100000000000004E-002     6.1343144625425339E-002
   9.5399999999999999E-002     1.8332347273826599E-002
   9.5699999999999993E-002    -2.6936084032058716E-002
   9.6000000000000002E-002    -6.7241907119750977E-002
   9.6300000000000011E-002    -9.5541320741176605E-002
   9.6600000000000005E-002   -0.10711422562599182     
   9.6900000000000000E-002    -9.9504739046096802E-002
   9.7200000000000009E-002    -7.2354815900325775E-002
   9.7499999999999989E-002    -2.8653584420681000E-002
   9.7799999999999998E-002     2.5935832411050797E-002
   9.8100000000000007E-002     8.3645157516002655E-002
   9.8400000000000015E-002    0.13569545745849609     
   9.8699999999999996E-002    0.17356227338314056     
   9.9000000000000005E-002    0.19086728990077972     
   9.9300000000000013E-002    0.18356002867221832     
   9.9599999999999994E-002    0.15107560157775879     
   9.9900000000000003E-002     9.7248964011669159E-002
  0.10020000000000001          3.0288444831967354E-002
  0.10049999999999999         -3.9369814097881317E-002
  0.10080000000000000         -9.9686309695243835E-002
  0.10110000000000001        -0.13802088797092438     
  0.10140000000000000        -0.14373108744621277     
  0.10170000000000000        -0.11104713380336761     
  0.10200000000000001         -3.9385542273521423E-002
  0.10230000000000002          6.6103965044021606E-002
  0.10260000000000000         0.19313620030879974     
  0.10290000000000001         0.32399100065231323     
  0.10320000000000000         0.43790027499198914     
  0.10350000000000001         0.51240670680999756     
  0.10380000000000000         0.52755963802337646     
  0.10410000000000001         0.46870228648185730     
  0.10440000000000001         0.32945272326469421     
  0.10470000000000000         0.11358144134283066     
  0.10500000000000000        -0.16516108810901642     
  0.10530000000000000        -0.48227268457412720     
  0.10560000000000000        -0.80490034818649292     
  0.10590000000000001         -1.0959616899490356     
  0.10620000000000000         -1.3177080154418945     
  0.10650000000000001         -1.4369640350341797     
  0.10679999999999999         -1.4285807609558105     
  0.10710000000000000         -1.2795557975769043     
  0.10740000000000001        -0.99197870492935181     
  0.10770000000000000        -0.58263808488845825     
  0.10800000000000000         -8.1760972738265991E-002
  0.10830000000000001         0.46907413005828857     
  0.10859999999999999          1.0219051837921143     
  0.10890000000000000          1.5267314910888672     
  0.10920000000000001          1.9369032382965088     
  0.10950000000000001          2.2143347263336182     
  0.10979999999999999          2.3332943916320801     
  0.11009999999999999          2.2818348407745361     
  0.11040000000000001          2.0633225440979004     
  0.11070000000000001          1.6955770254135132     
  0.11100000000000000          1.2087031602859497     
  0.11130000000000000         0.64096498489379883     
  0.11160000000000002          3.5992011427879333E-002
  0.11190000000000001        -0.56157088279724121     
  0.11220000000000001         -1.1104664802551270     
  0.11250000000000000         -1.5754333734512329     
  0.11280000000000000         -1.9288533926010132     
  0.11309999999999999         -2.1534104347229004     
  0.11340000000000001         -2.2424035072326660     
  0.11369999999999998         -2.1978428363800049     
  0.11400000000000000         -2.0303554534912109     
  0.11430000000000000         -1.7583984136581421     
  0.11460000000000002         -1.4055149555206299     
  0.11489999999999999        -0.99823701381683350     
  0.11520000000000001        -0.56429338455200195     
  0.11550000000000001        -0.13145518302917480     
  0.11580000000000000         0.27488625049591064     
  0.11609999999999999         0.63335359096527100     
  0.11640000000000002         0.92682969570159912     
  0.11670000000000001          1.1438616514205933     
  0.11700000000000001          1.2790517807006836     
  0.11730000000000000          1.3320785760879517     
  0.11760000000000000          1.3086564540863037     
  0.11789999999999999          1.2189744710922241     
  0.11820000000000001          1.0762507915496826     
  0.11850000000000001         0.89539158344268799     
  0.11880000000000000         0.69236099720001221     
  0.11910000000000000         0.48250851035118103     
  0.11940000000000002         0.27947422862052917     
  0.11970000000000001          9.3978375196456909E-002
  0.12000000000000001         -6.6428460180759430E-002
  0.12030000000000000        -0.19688579440116882     
  0.12060000000000000        -0.29538783431053162     
  0.12089999999999999        -0.36236068606376648     
  0.12119999999999999        -0.40040308237075806     
  0.12150000000000001        -0.41316676139831543     
  0.12180000000000001        -0.40419587492942810     
  0.12210000000000000        -0.37775862216949463     
  0.12239999999999999        -0.33841714262962341     
  0.12270000000000002        -0.28992837667465210     
  0.12300000000000001        -0.23609416186809540     
  0.12330000000000001        -0.18027532100677490     
  0.12360000000000000        -0.12549650669097900     
  0.12390000000000000         -7.4841439723968506E-002
  0.12419999999999999         -3.0774768441915512E-002
  0.12450000000000001          4.8272437416017056E-003
  0.12480000000000001          3.0922504141926765E-002
  0.12509999999999999          4.7030333429574966E-002
  0.12540000000000001          5.3392712026834488E-002
  0.12570000000000003          5.1462732255458832E-002
  0.12600000000000000          4.3457910418510437E-002
  0.12630000000000002          3.1384598463773727E-002
  0.12659999999999999          1.7556533217430115E-002
  0.12690000000000001          3.8598913233727217E-003
  0.12719999999999998         -8.2165477797389030E-003
  0.12750000000000000         -1.7462482675909996E-002
  0.12780000000000002         -2.3730183020234108E-002
  0.12809999999999999         -2.7582123875617981E-002
  0.12840000000000001         -2.9490457847714424E-002
  0.12869999999999998         -2.9793174937367439E-002
  0.12900000000000000         -2.8948677703738213E-002
  0.12930000000000003         -2.7231184765696526E-002
  0.12959999999999999         -2.4272508919239044E-002
  0.12990000000000002         -1.9634604454040527E-002
  0.13019999999999998         -1.2776615098118782E-002
  0.13050000000000000         -3.2982167322188616E-003
  0.13080000000000003          8.7278541177511215E-003
  0.13109999999999999          2.2603599354624748E-002
  0.13140000000000002          3.7200264632701874E-002
  0.13169999999999998          5.1401473581790924E-002
  0.13200000000000001          6.3140437006950378E-002
  0.13229999999999997          7.0528835058212280E-002
  0.13260000000000000          7.2870008647441864E-002
  0.13290000000000002          6.9601386785507202E-002
  0.13319999999999999          6.0926280915737152E-002
  0.13350000000000001          4.8039071261882782E-002
  0.13380000000000003          3.2535474747419357E-002
  0.13410000000000000          1.6404112800955772E-002
  0.13440000000000002          1.4954153448343277E-003
  0.13469999999999999         -1.0267403908073902E-002
  0.13500000000000001         -1.8236052244901657E-002
  0.13529999999999998         -2.2629857063293457E-002
  0.13560000000000000         -2.3436089977622032E-002
  0.13590000000000002         -2.1572593599557877E-002
  0.13619999999999999         -1.8839409574866295E-002
  0.13650000000000001         -1.6262909397482872E-002
  0.13680000000000003         -1.4263442717492580E-002
  0.13710000000000000         -1.3034147210419178E-002
  0.13740000000000002         -1.2464936822652817E-002
  0.13769999999999999         -1.1681002564728260E-002
  0.13800000000000001         -9.4239525496959686E-003
  0.13829999999999998         -5.0349314697086811E-003
  0.13860000000000000          1.4791307039558887E-003
  0.13890000000000002          1.0166313499212265E-002
  0.13919999999999999          2.0228365436196327E-002
  0.13950000000000001          3.0048370361328125E-002
  0.13979999999999998          3.7702485918998718E-002
  0.14010000000000000          4.1869629174470901E-002
  0.14040000000000002          4.1450560092926025E-002
  0.14069999999999999          3.5591259598731995E-002
  0.14100000000000001          2.4699466302990913E-002
  0.14130000000000004          1.0339432395994663E-002
  0.14160000000000000         -5.7124467566609383E-003
  0.14189999999999997         -2.1595835685729980E-002
  0.14219999999999999         -3.4889508038759232E-002
  0.14250000000000002         -4.3606970459222794E-002
  0.14279999999999998         -4.7436006367206573E-002
  0.14310000000000000         -4.6331435441970825E-002
  0.14339999999999997         -4.0714651346206665E-002
  0.14369999999999999         -3.2390914857387543E-002
  0.14400000000000002         -2.3078944534063339E-002
  0.14429999999999998         -1.4325412921607494E-002
  0.14460000000000001         -7.4390177614986897E-003
  0.14490000000000003         -3.2284886110574007E-003
  0.14520000000000000         -1.5543526969850063E-003
  0.14550000000000002         -1.0851726401597261E-003
  0.14579999999999999         -9.4417313812300563E-004
  0.14610000000000001         -9.1150650405324996E-006
  0.14640000000000003          2.8036504518240690E-003
  0.14670000000000000          7.8491512686014175E-003
  0.14699999999999996          1.4848042279481888E-002
  0.14729999999999999          2.3019559681415558E-002
  0.14760000000000001          3.0537452548742294E-002
  0.14789999999999998          3.5756785422563553E-002
  0.14820000000000000          3.7261176854372025E-002