  -1.4999999999999999E-002     0.0000000000000000     
  -1.4700000000000000E-002     0.0000000000000000     
  -1.4400000000000000E-002     0.0000000000000000     
  -1.4100000000000000E-002     0.0000000000000000     
  -1.3800000000000000E-002     0.0000000000000000     
  -1.3500000000000000E-002     0.0000000000000000     
  -1.3200000000000000E-002     0.0000000000000000     
  -1.2899999999999998E-002     0.0000000000000000     
  -1.2600000000000000E-002     0.0000000000000000     
  -1.2299999999999998E-002     0.0000000000000000     
  -1.2000000000000000E-002     0.0000000000000000     
  -1.1699999999999999E-002     0.0000000000000000     
  -1.1399999999999999E-002     0.0000000000000000     
  -1.1099999999999999E-002     0.0000000000000000     
  -1.0799999999999999E-002     0.0000000000000000     
  -1.0499999999999999E-002     0.0000000000000000     
  -1.0199999999999999E-002     0.0000000000000000     
  -9.8999999999999991E-003     0.0000000000000000     
  -9.5999999999999992E-003     0.0000000000000000     
  -9.2999999999999992E-003     0.0000000000000000     
  -8.9999999999999993E-003     0.0000000000000000     
  -8.6999999999999994E-003     0.0000000000000000     
  -8.3999999999999995E-003     0.0000000000000000     
  -8.0999999999999996E-003     0.0000000000000000     
  -7.7999999999999988E-003     0.0000000000000000     
  -7.4999999999999997E-003     0.0000000000000000     
  -7.1999999999999998E-003     0.0000000000000000     
  -6.8999999999999981E-003     0.0000000000000000     
  -6.5999999999999982E-003     0.0000000000000000     
  -6.3000000000000000E-003     0.0000000000000000     
  -6.0000000000000001E-003     0.0000000000000000     
  -5.6999999999999985E-003     0.0000000000000000     
  -5.3999999999999986E-003     0.0000000000000000     
  -5.1000000000000004E-003     0.0000000000000000     
  -4.7999999999999987E-003     0.0000000000000000     
  -4.5000000000000005E-003     0.0000000000000000     
  -4.1999999999999989E-003     0.0000000000000000     
  -3.8999999999999990E-003     0.0000000000000000     
  -3.5999999999999990E-003     0.0000000000000000     
  -3.2999999999999991E-003     0.0000000000000000     
  -2.9999999999999992E-003     0.0000000000000000     
  -2.6999999999999993E-003     0.0000000000000000     
  -2.3999999999999994E-003     0.0000000000000000     
  -2.0999999999999977E-003     0.0000000000000000     
  -1.7999999999999995E-003     0.0000000000000000     
  -1.4999999999999979E-003     0.0000000000000000     
  -1.1999999999999997E-003     0.0000000000000000     
  -8.9999999999999976E-004     0.0000000000000000     
  -5.9999999999999810E-004     0.0000000000000000     
  -2.9999999999999992E-004     0.0000000000000000     
   0.0000000000000000          0.0000000000000000     
   3.0000000000000165E-004     0.0000000000000000     
   5.9999999999999984E-004     0.0000000000000000     
   9.0000000000000149E-004     0.0000000000000000     
   1.2000000000000031E-003     0.0000000000000000     
   1.5000000000000013E-003     0.0000000000000000     
   1.8000000000000030E-003     0.0000000000000000     
   2.1000000000000012E-003     0.0000000000000000     
   2.3999999999999994E-003     0.0000000000000000     
   2.7000000000000010E-003     0.0000000000000000     
   2.9999999999999992E-003     0.0000000000000000     
   3.3000000000000008E-003     0.0000000000000000     
   3.6000000000000025E-003     0.0000000000000000     
   3.9000000000000007E-003     0.0000000000000000     
   4.2000000000000023E-003     0.0000000000000000     
   4.5000000000000005E-003     0.0000000000000000     
   4.7999999999999987E-003     0.0000000000000000     
   5.1000000000000004E-003     0.0000000000000000     
   5.4000000000000020E-003     0.0000000000000000     
   5.7000000000000037E-003     0.0000000000000000     
   5.9999999999999984E-003     0.0000000000000000     
   6.3000000000000000E-003     0.0000000000000000     
   6.6000000000000017E-003     0.0000000000000000     
   6.9000000000000034E-003     0.0000000000000000     
   7.2000000000000015E-003     0.0000000000000000     
   7.5000000000000032E-003    -4.2606084753733001E-036
   7.8000000000000014E-003     9.4424350274122004E-035
   8.0999999999999996E-003    -4.7248407684126435E-034
   8.4000000000000012E-003    -2.8233780042538043E-033
   8.7000000000000029E-003     5.2389026681896676E-032
   9.0000000000000011E-003    -2.5606914865572573E-031
   9.2999999999999992E-003    -5.9228881538498074E-031
   9.6000000000000009E-003     1.4091412503646093E-029
   9.8999999999999991E-003    -6.5059604728633242E-029
   1.0200000000000001E-002    -5.2328365201882944E-029
   1.0500000000000002E-002     1.9972024486531854E-027
   1.0800000000000004E-002    -9.1448184288520698E-027
   1.1099999999999999E-002     4.6447513801830971E-027
   1.1400000000000000E-002     1.4287964579308420E-025
   1.1700000000000002E-002    -7.2216153239321743E-025
   1.2000000000000004E-002     1.0740287976472973E-024
   1.2300000000000002E-002     4.9562190077209328E-024
   1.2600000000000000E-002    -3.2647090604105717E-023
   1.2900000000000002E-002     7.0595862916712183E-023
   1.3200000000000000E-002     8.6146204624790856E-023
   1.3500000000000002E-002    -1.1256163107902929E-021
   1.3800000000000003E-002     3.9449782259398923E-021
   1.4100000000000001E-002    -6.7790019982263507E-021
   1.4400000000000000E-002    -2.2582899100782123E-021
   1.4700000000000001E-002     5.3357033381140163E-020
   1.4999999999999999E-002    -1.9817929157669287E-019
   1.5300000000000001E-002     6.1057385657897302E-019
   1.5600000000000003E-002    -2.6089450227851129E-018
   1.5899999999999997E-002     1.4679868451860175E-017
   1.6199999999999999E-002    -8.0019665748256783E-017
   1.6500000000000001E-002     3.8437044892309865E-016
   1.6800000000000002E-002    -1.6251062952946679E-015
   1.7100000000000004E-002     6.0608786090247339E-015
   1.7400000000000006E-002    -1.9457498763239545E-014
   1.7700000000000000E-002     4.9037678214944314E-014
   1.8000000000000002E-002    -6.1875045289250946E-014
   1.8300000000000004E-002    -2.4879008358666410E-013
   1.8600000000000005E-002     2.3023191426246870E-012
   1.8900000000000000E-002    -1.0395596709844579E-011
   1.9200000000000002E-002     3.1275051992629699E-011
   1.9500000000000003E-002    -5.4981540154042108E-011
   1.9799999999999998E-002    -1.4934605635508191E-011
   2.0100000000000000E-002     4.3350503742267676E-010
   2.0400000000000001E-002    -1.2622958234231874E-009
   2.0700000000000003E-002     9.1574092753177183E-010
   2.0999999999999998E-002     4.5801327175354345E-009
   2.1299999999999999E-002    -1.2967943163744167E-008
   2.1600000000000001E-002    -1.5692884769435977E-009
   2.1900000000000003E-002     5.5744539650959268E-008
   2.2200000000000004E-002    -3.5940885823038116E-008
   2.2500000000000006E-002    -1.9868993206273444E-007
   2.2800000000000001E-002     1.1665014199024881E-007
   2.3100000000000002E-002     6.2620699736726237E-007
   2.3400000000000004E-002    -1.1087570328527363E-007
   2.3699999999999999E-002    -1.7397441069988417E-006
   2.4000000000000000E-002    -5.1286838242958765E-007
   2.4300000000000002E-002     5.8414316299604252E-006
   2.4599999999999997E-002     1.3340061741473619E-005
   2.4900000000000005E-002     1.7329677575617097E-005
   2.5200000000000000E-002     2.2023332348908298E-005
   2.5499999999999995E-002     3.7638226785929874E-005
   2.5800000000000003E-002     6.7822584242094308E-005
   2.6099999999999998E-002     1.0811782703967765E-004
   2.6400000000000007E-002     1.6015030269045383E-004
   2.6700000000000002E-002     2.4002317513804883E-004
   2.6999999999999996E-002     3.6750303115695715E-004
   2.7300000000000005E-002     5.5459595751017332E-004
   2.7600000000000000E-002     8.1449857680127025E-004
   2.7900000000000008E-002     1.1780385393649340E-003
   2.8200000000000003E-002     1.6913193976506591E-003
   2.8499999999999998E-002     2.4003328289836645E-003
   2.8800000000000006E-002     3.3509861677885056E-003
   2.9100000000000001E-002     4.6058273874223232E-003
   2.9400000000000003E-002     6.2475274316966534E-003
   2.9700000000000004E-002     8.3607984706759453E-003
   3.0000000000000006E-002     1.1020372621715069E-002
   3.0300000000000001E-002     1.4299436472356319E-002
   3.0600000000000002E-002     1.8272802233695984E-002
   3.0900000000000004E-002     2.2993871942162514E-002
   3.1199999999999999E-002     2.8467254713177681E-002
   3.1500000000000007E-002     3.4643236547708511E-002
   3.1800000000000002E-002     4.1419573128223419E-002
   3.2099999999999997E-002     4.8621546477079391E-002
   3.2400000000000005E-002     5.5973600596189499E-002
   3.2700000000000000E-002     6.3094824552536011E-002
   3.3000000000000002E-002     6.9518133997917175E-002
   3.3300000000000003E-002     7.4700355529785156E-002
   3.3599999999999998E-002     7.8028343617916107E-002
   3.3900000000000000E-002     7.8850843012332916E-002
   3.4200000000000001E-002     7.6536238193511963E-002
   3.4500000000000003E-002     7.0537254214286804E-002
   3.4799999999999998E-002     6.0435019433498383E-002
   3.5099999999999999E-002     4.5991159975528717E-002
   3.5400000000000001E-002     2.7216283604502678E-002
   3.5699999999999996E-002     4.4343359768390656E-003
   3.6000000000000004E-002    -2.1704856306314468E-002
   3.6299999999999999E-002    -5.0249312072992325E-002
   3.6600000000000008E-002    -7.9962030053138733E-002
   3.6900000000000002E-002   -0.10936737805604935     
   3.7199999999999997E-002   -0.13684128224849701     
   3.7500000000000006E-002   -0.16074639558792114     
   3.7800000000000000E-002   -0.17956918478012085     
   3.8100000000000009E-002   -0.19203339517116547     
   3.8400000000000004E-002   -0.19721521437168121     
   3.8699999999999998E-002   -0.19466491043567657     
   3.9000000000000007E-002   -0.18449322879314423     
   3.9300000000000002E-002   -0.16738151013851166     
   3.9600000000000003E-002   -0.14453700184822083     
   3.9900000000000005E-002   -0.11764312535524368     
   4.0200000000000000E-002    -8.8755279779434204E-002
   4.0500000000000001E-002    -6.0155261307954788E-002
   4.0800000000000003E-002    -3.4160945564508438E-002
   4.1100000000000005E-002    -1.2946253642439842E-002
   4.1399999999999999E-002     1.6240315744653344E-003
   4.1700000000000008E-002     8.1204641610383987E-003
   4.2000000000000003E-002     5.6623113341629505E-003
   4.2299999999999997E-002    -5.9493207372725010E-003
   4.2600000000000006E-002    -2.6235170662403107E-002
   4.2900000000000001E-002    -5.4084185510873795E-002
   4.3200000000000002E-002    -8.7801054120063782E-002
   4.3500000000000004E-002   -0.12519423663616180     
   4.3799999999999999E-002   -0.16369040310382843     
   4.4100000000000000E-002   -0.20052503049373627     
   4.4400000000000002E-002   -0.23290397226810455     
   4.4700000000000004E-002   -0.25818851590156555     
   4.4999999999999998E-002   -0.27405309677124023     
   4.5300000000000000E-002   -0.27860146760940552     
   4.5600000000000002E-002   -0.27052396535873413     
   4.5899999999999996E-002   -0.24920710921287537     
   4.6200000000000005E-002   -0.21476335823535919     
   4.6500000000000000E-002   -0.16800022125244141     
   4.6799999999999994E-002   -0.11039001494646072     
   4.7100000000000003E-002    -4.4018704444169998E-002
   4.7399999999999998E-002     2.8589487075805664E-002
   4.7700000000000006E-002    0.10462154448032379     
   4.8000000000000001E-002    0.18118399381637573     
   4.8300000000000010E-002    0.25546512007713318     
   4.8600000000000004E-002    0.32485336065292358     
   4.8899999999999999E-002    0.38713076710700989     
   4.9200000000000008E-002    0.44063943624496460     
   4.9500000000000002E-002    0.48428371548652649     
   4.9800000000000011E-002    0.51746779680252075     
   5.0100000000000006E-002    0.54011565446853638     
   5.0400000000000000E-002    0.55267447233200073     
   5.0700000000000009E-002    0.55594784021377563     
   5.1000000000000004E-002    0.55091094970703125     
   5.1299999999999998E-002    0.53860574960708618     
   5.1600000000000007E-002    0.52007079124450684     
   5.1900000000000002E-002    0.49623218178749084     
   5.2200000000000010E-002    0.46780294179916382     
   5.2500000000000005E-002    0.43523666262626648     
   5.2800000000000000E-002    0.39876830577850342     
   5.3099999999999994E-002    0.35848867893218994     
   5.3400000000000003E-002    0.31436103582382202     
   5.3699999999999998E-002    0.26630562543869019     
   5.4000000000000006E-002    0.21437320113182068     
   5.4300000000000001E-002    0.15887132287025452     
   5.4599999999999996E-002    0.10040112584829330     
   5.4900000000000004E-002     3.9873804897069931E-002
   5.5199999999999999E-002    -2.1378733217716217E-002
   5.5499999999999994E-002    -8.1619940698146820E-002
   5.5800000000000002E-002   -0.13886873424053192     
   5.6099999999999997E-002   -0.19101665914058685     
   5.6400000000000006E-002   -0.23596447706222534     
   5.6700000000000000E-002   -0.27181506156921387     
   5.6999999999999995E-002   -0.29707401990890503     
   5.7300000000000004E-002   -0.31083118915557861     
   5.7599999999999998E-002   -0.31289094686508179     
   5.7900000000000007E-002   -0.30384838581085205     
   5.8200000000000002E-002   -0.28507187962532043     
   5.8499999999999996E-002   -0.25861161947250366     
   5.8800000000000005E-002   -0.22703740000724792     
   5.9100000000000000E-002   -0.19330370426177979     
   5.9400000000000008E-002   -0.16043609380722046     
   5.9700000000000003E-002   -0.13121765851974487     
   6.0000000000000012E-002   -0.10796847939491272     
   6.0300000000000006E-002    -9.2375881969928741E-002
   6.0600000000000001E-002    -8.5370309650897980E-002
   6.0900000000000010E-002    -8.6982317268848419E-002
   6.1200000000000004E-002    -9.6362754702568054E-002
   6.1500000000000013E-002   -0.11189737170934677     
   6.1800000000000008E-002   -0.13140259683132172     
   6.2100000000000002E-002   -0.15232874453067780     
   6.2399999999999997E-002   -0.17193873226642609     
   6.2700000000000006E-002   -0.18757393956184387     
   6.3000000000000000E-002   -0.19693300127983093     
   6.3300000000000009E-002   -0.19822564721107483     
   6.3600000000000004E-002   -0.19025258719921112     
   6.3899999999999998E-002   -0.17254956066608429     
   6.4199999999999993E-002   -0.14543558657169342     
   6.4500000000000002E-002   -0.10990886390209198     
   6.4800000000000010E-002    -6.7555308341979980E-002
   6.5100000000000005E-002    -2.0469704642891884E-002
   6.5400000000000000E-002     2.8918376192450523E-002
   6.5700000000000008E-002     7.8020274639129639E-002
   6.5999999999999989E-002    0.12425737082958221     
   6.6299999999999998E-002    0.16514034569263458     
   6.6600000000000006E-002    0.19840179383754730     
   6.6900000000000001E-002    0.22215496003627777     
   6.7199999999999996E-002    0.23485413193702698     
   6.7500000000000004E-002    0.23526863753795624     
   6.7800000000000013E-002    0.22249080240726471     
   6.8099999999999994E-002    0.19589595496654510     
   6.8400000000000002E-002    0.15513102710247040     
   6.8700000000000011E-002    0.10009329020977020     
   6.8999999999999992E-002     3.0887257307767868E-002
   6.9300000000000000E-002    -5.2045837044715881E-002
   6.9600000000000009E-002   -0.14782798290252686     
   6.9900000000000004E-002   -0.25507679581642151     
   7.0199999999999999E-002   -0.37170910835266113     
   7.0500000000000007E-002   -0.49482628703117371     
   7.0800000000000016E-002   -0.62063658237457275     
   7.1099999999999997E-002   -0.74447119235992432     
   7.1400000000000005E-002   -0.86088567972183228     
   7.1700000000000000E-002   -0.96377027034759521     
   7.1999999999999995E-002    -1.0466992855072021     
   7.2300000000000003E-002    -1.1033415794372559     
   7.2600000000000012E-002    -1.1278567314147949     
   7.2900000000000006E-002    -1.1153397560119629     
   7.3200000000000001E-002    -1.0622997283935547     
   7.3499999999999996E-002   -0.96703970432281494     
   7.3800000000000004E-002   -0.82991665601730347     
   7.4099999999999999E-002   -0.65343761444091797     
   7.4400000000000008E-002   -0.44228172302246094     
   7.4700000000000003E-002   -0.20314271748065948     
   7.5000000000000011E-002     5.5573970079421997E-002
   7.5299999999999992E-002    0.32413110136985779     
   7.5600000000000001E-002    0.59189641475677490     
   7.5900000000000009E-002    0.84791904687881470     
   7.6200000000000004E-002     1.0814038515090942     
   7.6499999999999999E-002     1.2822332382202148     
   7.6800000000000007E-002     1.4414381980895996     
   7.7099999999999988E-002     1.5516827106475830     
   7.7399999999999997E-002     1.6076351404190063     
   7.7700000000000005E-002     1.6062685251235962     
   7.8000000000000014E-002     1.5471118688583374     
   7.8299999999999995E-002     1.4324002265930176     
   7.8600000000000003E-002     1.2670876979827881     
   7.8900000000000012E-002     1.0587363243103027     
   7.9199999999999993E-002    0.81724536418914795     
   7.9500000000000001E-002    0.55437141656875610     
   7.9800000000000010E-002    0.28311991691589355     
   8.0100000000000018E-002     1.6981601715087891E-002
   8.0399999999999999E-002   -0.23091633617877960     
   8.0700000000000008E-002   -0.44860664010047913     
   8.1000000000000003E-002   -0.62615805864334106     
   8.1299999999999997E-002   -0.75653094053268433     
   8.1600000000000006E-002   -0.83588576316833496     
   8.1900000000000014E-002   -0.86371123790740967     
   8.2199999999999995E-002   -0.84295260906219482     
   8.2500000000000004E-002   -0.77971804141998291     
   8.2799999999999999E-002   -0.68246310949325562     
   8.3100000000000007E-002   -0.56103885173797607     
   8.3400000000000002E-002   -0.42595329880714417     
   8.3700000000000011E-002   -0.28738871216773987     
   8.4000000000000005E-002   -0.15413065254688263     
   8.4300000000000000E-002    -3.2901629805564880E-002
   8.4599999999999995E-002     7.1991726756095886E-002
   8.4900000000000003E-002    0.15893429517745972     
   8.5199999999999998E-002    0.22883895039558411     
   8.5500000000000007E-002    0.28476405143737793     
   8.5800000000000001E-002    0.33127504587173462     
   8.6100000000000010E-002    0.37358492612838745     
   8.6399999999999991E-002    0.41671615839004517     
   8.6699999999999999E-002    0.46486777067184448     
   8.7000000000000008E-002    0.52070957422256470     
   8.7300000000000003E-002    0.58467566967010498     
   8.7599999999999997E-002    0.65473926067352295     
   8.7900000000000006E-002    0.72671478986740112     
   8.8200000000000014E-002    0.79444420337677002     
   8.8499999999999995E-002    0.84993696212768555     
   8.8800000000000004E-002    0.88418412208557129     
   8.9100000000000013E-002    0.88818174600601196     
   8.9399999999999993E-002    0.85360836982727051     
   8.9700000000000002E-002    0.77354168891906738     
   9.0000000000000011E-002    0.64331901073455811     
   9.0299999999999991E-002    0.46118021011352539     
   9.0600000000000000E-002    0.22874251008033752     
   9.0900000000000009E-002    -4.8803199082612991E-002
   9.1200000000000017E-002   -0.36283409595489502     
   9.1499999999999998E-002   -0.70147359371185303     
   9.1800000000000007E-002    -1.0500067472457886     
   9.2100000000000001E-002    -1.3917312622070312     
   9.2399999999999996E-002    -1.7088903188705444     
   9.2700000000000005E-002    -1.9836312532424927     
   9.3000000000000013E-002    -2.1989619731903076     
   9.3300000000000008E-002    -2.3398549556732178     
   9.3600000000000003E-002    -2.3942575454711914     
   9.3899999999999997E-002    -2.3537726402282715     
   9.4200000000000006E-002    -2.2142822742462158     
   9.4500000000000001E-002    -1.9762530326843262     
   9.4800000000000009E-002    -1.6448699235916138     
   9.5100000000000004E-002    -1.2299265861511230     
   9.5399999999999999E-002   -0.74541288614273071     
   9.5699999999999993E-002   -0.20887126028537750     
   9.6000000000000002E-002    0.35935443639755249     
   9.6300000000000011E-002    0.93687951564788818     
   9.6600000000000005E-002     1.5003188848495483     
   9.6900000000000000E-002     2.0264477729797363     
   9.7200000000000009E-002     2.4932196140289307     
   9.7499999999999989E-002     2.8805682659149170     
   9.7799999999999998E-002     3.1713078022003174     
   9.8100000000000007E-002     3.3520903587341309     
   9.8400000000000015E-002     3.4139544963836670     
   9.8699999999999996E-002     3.3525643348693848     
   9.9000000000000005E-002     3.1683714389801025     
   9.9300000000000013E-002     2.8667495250701904     
   9.9599999999999994E-002     2.4577002525329590     
   9.9900000000000003E-002     1.9552139043807983     
  0.10020000000000001          1.3765743970870972     
  0.10049999999999999         0.74182993173599243     
  0.10080000000000000          7.3041871190071106E-002
  0.10110000000000001        -0.60664415359497070     
  0.10140000000000000         -1.2740799188613892     
  0.10170000000000000         -1.9067347049713135     
  0.10200000000000001         -2.4830448627471924     
  0.10230000000000002         -2.9833047389984131     
  0.10260000000000000         -3.3904376029968262     
  0.10290000000000001         -3.6902234554290771     
  0.10320000000000000         -3.8715181350708008     
  0.10350000000000001         -3.9266226291656494     
  0.10380000000000000         -3.8518562316894531     
  0.10410000000000001         -3.6477034091949463     
  0.10440000000000001         -3.3186583518981934     
  0.10470000000000000         -2.8733882904052734     
  0.10500000000000000         -2.3250181674957275     
  0.10530000000000000         -1.6910146474838257     
  0.10560000000000000        -0.99244755506515503     
  0.10590000000000001        -0.25359261035919189     
  0.10620000000000000         0.49825525283813477     
  0.10650000000000001          1.2339047193527222     
  0.10679999999999999          1.9237271547317505     
  0.10710000000000000          2.5386872291564941     
  0.10740000000000001          3.0515365600585938     
  0.10770000000000000          3.4384891986846924     
  0.10800000000000000          3.6808898448944092     
  0.10830000000000001          3.7663476467132568     
  0.10859999999999999          3.6895935535430908     
  0.10890000000000000          3.4532217979431152     
  0.10920000000000001          3.0680718421936035     
  0.10950000000000001          2.5530960559844971     
  0.10979999999999999          1.9341615438461304     
  0.11009999999999999          1.2424993515014648     
  0.11040000000000001         0.51348465681076050     
  0.11070000000000001        -0.21527689695358276     
  0.11100000000000000        -0.90665668249130249     
  0.11130000000000000         -1.5263298749923706     
  0.11160000000000002         -2.0444211959838867     
  0.11190000000000001         -2.4370300769805908     
  0.11220000000000001         -2.6879718303680420     
  0.11250000000000000         -2.7897346019744873     
  0.11280000000000000         -2.7433247566223145     
  0.11309999999999999         -2.5579154491424561     
  0.11340000000000001         -2.2502853870391846     
  0.11369999999999998         -1.8435250520706177     
  0.11400000000000000         -1.3653268814086914     
  0.11430000000000000        -0.84602892398834229     
  0.11460000000000002        -0.31664341688156128     
  0.11489999999999999         0.19305370748043060     
  0.11520000000000001         0.65639764070510864     
  0.11550000000000001          1.0515393018722534     
  0.11580000000000000          1.3625952005386353     
  0.11609999999999999          1.5803349018096924     
  0.11640000000000002          1.7025057077407837     
  0.11670000000000001          1.7334964275360107     
  0.11700000000000001          1.6833097934722900     
  0.11730000000000000          1.5662205219268799     
  0.11760000000000000          1.3994326591491699     
  0.11789999999999999          1.2011584043502808     
  0.11820000000000001         0.98860126733779907     
  0.11850000000000001         0.77647966146469116     
  0.11880000000000000         0.57595658302307129     
  0.11910000000000000         0.39378291368484497     
  0.11940000000000002         0.23210856318473816     
  0.11970000000000001          8.8792614638805389E-002
  0.12000000000000001         -4.1689962148666382E-002
  0.12030000000000000        -0.16685511171817780     
  0.12060000000000000        -0.29488813877105713     
  0.12089999999999999        -0.43325674533843994     
  0.12119999999999999        -0.58715438842773438     
  0.12150000000000001        -0.75824815034866333     
  0.12180000000000001        -0.94432210922241211     
  0.12210000000000000         -1.1393860578536987     
  0.12239999999999999         -1.3335416316986084     
  0.12270000000000002         -1.5133382081985474     
  0.12300000000000001         -1.6633892059326172     
  0.12330000000000001         -1.7681133747100830     
  0.12360000000000000         -1.8127106428146362     
  0.12390000000000000         -1.7841714620590210     
  0.12419999999999999         -1.6730417013168335     
  0.12450000000000001         -1.4748476743698120     
  0.12480000000000001         -1.1904247999191284     
  0.12509999999999999        -0.82602858543395996     
  0.12540000000000001        -0.39357641339302063     
  0.12570000000000003          8.9432701468467712E-002
  0.12600000000000000         0.60097348690032959     
  0.12630000000000002          1.1158423423767090     
  0.12659999999999999          1.6070193052291870     
  0.12690000000000001          2.0468800067901611     
  0.12719999999999998          2.4088923931121826     
  0.12750000000000000          2.6698474884033203     
  0.12780000000000002          2.8112912178039551     
  0.12809999999999999          2.8203816413879395     
  0.12840000000000001          2.6912631988525391     
  0.12869999999999998          2.4261527061462402     
  0.12900000000000000          2.0351667404174805     
  0.12930000000000003          1.5356068611145020     
  0.12959999999999999         0.95154768228530884     
  0.12990000000000002         0.31278392672538757     
  0.13019999999999998        -0.34729075431823730     
  0.13050000000000000        -0.99381607770919800     
  0.13080000000000003         -1.5921975374221802     
  0.13109999999999999         -2.1103188991546631     
  0.13140000000000002         -2.5207560062408447     
  0.13169999999999998         -2.8023512363433838     
  0.13200000000000001         -2.9413328170776367     
  0.13229999999999997         -2.9318621158599854     
  0.13260000000000000         -2.7762389183044434     
  0.13290000000000002         -2.4847700595855713     
  0.13319999999999999         -2.0745875835418701     
  0.13350000000000001         -1.5681523084640503     
  0.13380000000000003        -0.99197328090667725     
  0.13410000000000000        -0.37519145011901855     
  0.13440000000000002         0.25227904319763184     
  0.13469999999999999         0.86144065856933594     
  0.13500000000000001          1.4251474142074585     
  0.13529999999999998          1.9190770387649536     
  0.13560000000000000          2.3228795528411865     
  0.13590000000000002          2.6208260059356689     
  0.13619999999999999          2.8020825386047363     
  0.13650000000000001          2.8608608245849609     
  0.13680000000000003          2.7967150211334229     
  0.13710000000000000          2.6148159503936768     
  0.13740000000000002          2.3258178234100342     
  0.13769999999999999          1.9451634883880615     
  0.13800000000000001          1.4925221204757690     
  0.13829999999999998         0.99139809608459473     
  0.13860000000000000         0.46788638830184937     
  0.13890000000000002         -5.1376342773437500E-002
  0.13919999999999999        -0.54057878255844116     
  0.13950000000000001        -0.97593301534652710     
  0.13979999999999998         -1.3376073837280273     
  0.14010000000000000         -1.6115466356277466     
  0.14040000000000002         -1.7903132438659668     
  0.14069999999999999         -1.8731462955474854     
  0.14100000000000001         -1.8661307096481323     
  0.14130000000000004         -1.7820913791656494     
  0.14160000000000000         -1.6391049623489380     
  0.14189999999999997         -1.4586405754089355     
  0.14219999999999999         -1.2638698816299438     
  0.14250000000000002         -1.0782115459442139     
  0.14279999999999998        -0.92336243391036987     
  0.14310000000000000        -0.81695789098739624     
  0.14339999999999997        -0.77157241106033325     
  0.14369999999999999        -0.79425859451293945     
  0.14400000000000002        -0.88561922311782837     
  0.14429999999999998         -1.0392541885375977     
  0.14460000000000001         -1.2421591281890869     
  0.14490000000000003         -1.4758062362670898     
  0.14520000000000000         -1.7167128324508667     
  0.14550000000000002         -1.9373259544372559     
  0.14579999999999999         -2.1080212593078613     
  0.14610000000000001         -2.1989820003509521     
  0.14640000000000003         -2.1818397045135498     
  0.14670000000000000         -2.0315973758697510     
  0.14699999999999996         -1.7291104793548584     
  0.14729999999999999         -1.2631947994232178     
  0.14760000000000001        -0.63191807270050049     
  0.14789999999999998         0.15611809492111206     
  0.14820000000000000          1.0812674760818481     