  -1.4999999999999999E-002     0.0000000000000000     
  -1.4700000000000000E-002    -5.5325444719191443E-030
  -1.4400000000000000E-002    -1.1289539875911702E-023
  -1.4100000000000000E-002    -1.4130968742313456E-020
  -1.3800000000000000E-002    -6.8649900724641375E-019
  -1.3500000000000000E-002     1.9129759348983092E-017
  -1.3200000000000000E-002     3.0446390177796972E-016
  -1.2899999999999998E-002    -1.6647041326667408E-015
  -1.2600000000000000E-002    -1.1517952322698082E-014
  -1.2299999999999998E-002     3.5359153213905536E-014
  -1.2000000000000000E-002     1.5409753280262034E-013
  -1.1699999999999999E-002    -1.5478208450180053E-013
  -1.1399999999999999E-002    -1.4121355994267670E-012
  -1.1099999999999999E-002    -1.7934738980387999E-012
  -1.0799999999999999E-002     1.2623144717005541E-011
  -1.0499999999999999E-002     2.0079247292636992E-011
  -1.0199999999999999E-002    -9.4722313326300878E-011
  -9.8999999999999991E-003    -7.9950820269791834E-012
  -9.5999999999999992E-003     2.9685087721276204E-010
  -9.2999999999999992E-003    -4.2057740623491213E-010
  -8.9999999999999993E-003     3.6413447257466203E-010
  -8.6999999999999994E-003     6.8197908431599785E-010
  -8.3999999999999995E-003    -3.4364655565610747E-009
  -8.0999999999999996E-003     3.2500042657090944E-009
  -7.7999999999999988E-003     3.3015263856128740E-009
  -7.4999999999999997E-003    -8.5670572858020932E-009
  -7.1999999999999998E-003     5.6386357805138232E-009
  -6.8999999999999981E-003     3.6612670673008552E-009
  -6.5999999999999982E-003    -6.6620660099658835E-009
  -6.3000000000000000E-003    -8.5154452378333190E-009
  -6.0000000000000001E-003     4.5162957817979077E-009
  -5.6999999999999985E-003     3.8121900303167422E-008
  -5.3999999999999986E-003    -3.7131009378299495E-008
  -5.1000000000000004E-003    -2.6350981841005705E-008
  -4.7999999999999987E-003     7.2625581992724619E-008
  -4.5000000000000005E-003    -4.3714123876270605E-008
  -4.1999999999999989E-003    -7.7845257351327746E-008
  -3.8999999999999990E-003     6.3343506440105557E-008
  -3.5999999999999990E-003     1.3049304925516481E-007
  -3.2999999999999991E-003     3.7750634618305412E-008
  -2.9999999999999992E-003    -2.5775426593099837E-007
  -2.6999999999999993E-003    -3.6676263448498503E-007
  -2.3999999999999994E-003     5.1281551805004710E-007
  -2.0999999999999977E-003     1.4102964769335813E-006
  -1.7999999999999995E-003    -1.2994921689823968E-006
  -1.4999999999999979E-003    -4.6197037590900436E-006
  -1.1999999999999997E-003     2.5704914605739759E-006
  -8.9999999999999976E-004     1.3212097655923571E-005
  -5.9999999999999810E-004    -1.2981831787328701E-006
  -2.9999999999999992E-004    -3.4151686122640967E-005
   0.0000000000000000         -1.5902240193099715E-005
   3.0000000000000165E-004     1.1034229828510433E-004
   5.9999999999999984E-004     3.0533518292941153E-004
   9.0000000000000149E-004     4.8093553050421178E-004
   1.2000000000000031E-003     6.5116555197164416E-004
   1.5000000000000013E-003     9.6408982062712312E-004
   1.8000000000000030E-003     1.5517184510827065E-003
   2.1000000000000012E-003     2.4603814817965031E-003
   2.3999999999999994E-003     3.7760294508188963E-003
   2.7000000000000010E-003     5.7252054102718830E-003
   2.9999999999999992E-003     8.6106304079294205E-003
   3.3000000000000008E-003     1.2765247374773026E-002
   3.6000000000000025E-003     1.8670747056603432E-002
   3.9000000000000007E-003     2.6991462334990501E-002
   4.2000000000000023E-003     3.8457754999399185E-002
   4.5000000000000005E-003     5.3925920277833939E-002
   4.7999999999999987E-003     7.4511252343654633E-002
   5.1000000000000004E-003    0.10146012902259827     
   5.4000000000000020E-003    0.13598825037479401     
   5.7000000000000037E-003    0.17930828034877777     
   5.9999999999999984E-003    0.23256021738052368     
   6.3000000000000000E-003    0.29651439189910889     
   6.6000000000000017E-003    0.37127968668937683     
   6.9000000000000034E-003    0.45613551139831543     
   7.2000000000000015E-003    0.54919981956481934     
   7.5000000000000032E-003    0.64698201417922974     
   7.8000000000000014E-003    0.74410039186477661     
   8.0999999999999996E-003    0.83311688899993896     
   8.4000000000000012E-003    0.90443414449691772     
   8.7000000000000029E-003    0.94638109207153320     
   9.0000000000000011E-003    0.94545656442642212     
   9.2999999999999992E-003    0.88699483871459961     
   9.6000000000000009E-003    0.75597506761550903     
   9.8999999999999991E-003    0.53816843032836914     
   1.0200000000000001E-002    0.22196985781192780     
   1.0500000000000002E-002   -0.20006199181079865     
   1.0800000000000004E-002   -0.72958081960678101     
   1.1099999999999999E-002    -1.3608901500701904     
   1.1400000000000000E-002    -2.0799002647399902     
   1.1700000000000002E-002    -2.8633780479431152     
   1.2000000000000004E-002    -3.6786496639251709     
   1.2300000000000002E-002    -4.4848403930664062     
   1.2600000000000000E-002    -5.2345943450927734     
   1.2900000000000002E-002    -5.8764429092407227     
   1.3200000000000000E-002    -6.3582935333251953     
   1.3500000000000002E-002    -6.6311941146850586     
   1.3800000000000003E-002    -6.6533584594726562     
   1.4100000000000001E-002    -6.3937368392944336     
   1.4400000000000000E-002    -5.8349146842956543     
   1.4700000000000001E-002    -4.9756236076354980     
   1.4999999999999999E-002    -3.8313374519348145     
   1.5300000000000001E-002    -2.4336497783660889     
   1.5600000000000003E-002   -0.82927268743515015     
   1.5899999999999997E-002    0.92426228523254395     
   1.6199999999999999E-002     2.7614820003509521     
   1.6500000000000001E-002     4.6133632659912109     
   1.6800000000000002E-002     6.4131250381469727     
   1.7100000000000004E-002     8.0981388092041016     
   1.7400000000000006E-002     9.6143712997436523     
   1.7700000000000000E-002     10.919681549072266     
   1.8000000000000002E-002     11.982535362243652     
   1.8300000000000004E-002     12.782882690429688     
   1.8600000000000005E-002     13.311718940734863     
   1.8900000000000000E-002     13.566297531127930     
   1.9200000000000002E-002     13.549849510192871     
   1.9500000000000003E-002     13.268027305603027     
   1.9799999999999998E-002     12.725326538085938     
   2.0100000000000000E-002     11.925705909729004     
   2.0400000000000001E-002     10.870512962341309     
   2.0700000000000003E-002     9.5582780838012695     
   2.0999999999999998E-002     7.9883160591125488     
   2.1299999999999999E-002     6.1610507965087891     
   2.1600000000000001E-002     4.0834259986877441     
   2.1900000000000003E-002     1.7717130184173584     
   2.2200000000000004E-002   -0.74649429321289062     
   2.2500000000000006E-002    -3.4257662296295166     
   2.2800000000000001E-002    -6.2044162750244141     
   2.3100000000000002E-002    -9.0051164627075195     
   2.3400000000000004E-002    -11.731536865234375     
   2.3699999999999999E-002    -14.277111053466797     
   2.4000000000000000E-002    -16.531799316406250     
   2.4300000000000002E-002    -18.384542465209961     
   2.4599999999999997E-002    -19.734146118164062     
   2.4900000000000005E-002    -20.499975204467773     
   2.5200000000000000E-002    -20.627874374389648     
   2.5499999999999995E-002    -20.095985412597656     
   2.5800000000000003E-002    -18.921361923217773     
   2.6099999999999998E-002    -17.159194946289062     
   2.6400000000000007E-002    -14.901718139648438     
   2.6700000000000002E-002    -12.272467613220215     
   2.6999999999999996E-002    -9.4180269241333008     
   2.7300000000000005E-002    -6.4992413520812988     
   2.7600000000000000E-002    -3.6757748126983643     
   2.7900000000000008E-002    -1.0995792150497437     
   2.8200000000000003E-002     1.0980538129806519     
   2.8499999999999998E-002     2.8185937404632568     
   2.8800000000000006E-002     3.9964110851287842     
   2.9100000000000001E-002     4.6055650711059570     
   2.9400000000000003E-002     4.6625771522521973     
   2.9700000000000004E-002     4.2220330238342285     
   3.0000000000000006E-002     3.3731839656829834     
   3.0300000000000001E-002     2.2351338863372803     
   3.0600000000000002E-002    0.95311379432678223     
   3.0900000000000004E-002   -0.31192308664321899     
   3.1199999999999999E-002    -1.3909143209457397     
   3.1500000000000007E-002    -2.1108660697937012     
   3.1800000000000002E-002    -2.3088526725769043     
   3.2099999999999997E-002    -1.8430489301681519     
   3.2400000000000005E-002   -0.59945750236511230     
   3.2700000000000000E-002     1.4930521249771118     
   3.3000000000000002E-002     4.4481921195983887     
   3.3300000000000003E-002     8.2168731689453125     
   3.3599999999999998E-002     12.678881645202637     
   3.3900000000000000E-002     17.638061523437500     
   3.4200000000000001E-002     22.827878952026367     
   3.4500000000000003E-002     27.922624588012695     
   3.4799999999999998E-002     32.554534912109375     
   3.5099999999999999E-002     36.336921691894531     
   3.5400000000000001E-002     38.894577026367188     
   3.5699999999999996E-002     39.899200439453125     
   3.6000000000000004E-002     39.095561981201172     
   3.6299999999999999E-002     36.331718444824219     
   3.6600000000000008E-002     31.583171844482422     
   3.6900000000000002E-002     24.960206985473633     
   3.7199999999999997E-002     16.709241867065430     
   3.7500000000000006E-002     7.2038893699645996     
   3.7800000000000000E-002    -3.0806517601013184     
   3.8100000000000009E-002    -13.599535942077637     
   3.8400000000000004E-002    -23.775024414062500     
   3.8699999999999998E-002    -33.040775299072266     
   3.9000000000000007E-002    -40.883060455322266     
   3.9300000000000002E-002    -46.877979278564453     
   3.9600000000000003E-002    -50.719799041748047     
   3.9900000000000005E-002    -52.242534637451172     
   4.0200000000000000E-002    -51.427627563476562     
   4.0500000000000001E-002    -48.401344299316406     
   4.0800000000000003E-002    -43.419727325439453     
   4.1100000000000005E-002    -36.844036102294922     
   4.1399999999999999E-002    -29.113426208496094     
   4.1700000000000008E-002    -20.707330703735352     
   4.2000000000000003E-002    -12.111512184143066     
   4.2299999999999997E-002    -3.7838068008422852     
   4.2600000000000006E-002     3.8749992847442627     
   4.2900000000000001E-002     10.541453361511230     
   4.3200000000000002E-002     15.984457969665527     
   4.3500000000000004E-002     20.075305938720703     
   4.3799999999999999E-002     22.777652740478516     
   4.4100000000000000E-002     24.141973495483398     
   4.4400000000000002E-002     24.294385910034180     
   4.4700000000000004E-002     23.410810470581055     
   4.4999999999999998E-002     21.700071334838867     
   4.5300000000000000E-002     19.388109207153320     
   4.5600000000000002E-002     16.693294525146484     
   4.5899999999999996E-002     13.818235397338867     
   4.6200000000000005E-002     10.936890602111816     
   4.6500000000000000E-002     8.1889371871948242     
   4.6799999999999994E-002     5.6800346374511719     
   4.7100000000000003E-002     3.4783983230590820     
   4.7399999999999998E-002     1.6232277154922485     
   4.7700000000000006E-002    0.12929244339466095     
   4.8000000000000001E-002    -1.0136142969131470     
   4.8300000000000010E-002    -1.8282895088195801     
   4.8600000000000004E-002    -2.3471207618713379     
   4.8899999999999999E-002    -2.6136724948883057     
   4.9200000000000008E-002    -2.6723964214324951     
   4.9500000000000002E-002    -2.5683946609497070     
   4.9800000000000011E-002    -2.3512411117553711     
   5.0100000000000006E-002    -2.0636372566223145     
   5.0400000000000000E-002    -1.7449313402175903     
   5.0700000000000009E-002    -1.4309046268463135     
   5.1000000000000004E-002    -1.1470949649810791     
   5.1299999999999998E-002   -0.91387248039245605     
   5.1600000000000007E-002   -0.74049019813537598     
   5.1900000000000002E-002   -0.62787938117980957     
   5.2200000000000010E-002   -0.57312256097793579     
   5.2500000000000005E-002   -0.56270295381546021     
   5.2800000000000000E-002   -0.58406430482864380     
   5.3099999999999994E-002   -0.62419188022613525     
   5.3400000000000003E-002   -0.66678327322006226     
   5.3699999999999998E-002   -0.70395672321319580     
   5.4000000000000006E-002   -0.73002243041992188     
   5.4300000000000001E-002   -0.74052768945693970     
   5.4599999999999996E-002   -0.73834061622619629     
   5.4900000000000004E-002   -0.72564011812210083     
   5.5199999999999999E-002   -0.70563423633575439     
   5.5499999999999994E-002   -0.68154233694076538     
   5.5800000000000002E-002   -0.65431374311447144     
   5.6099999999999997E-002   -0.62452155351638794     
   5.6400000000000006E-002   -0.58990883827209473     
   5.6700000000000000E-002   -0.54752528667449951     
   5.6999999999999995E-002   -0.49725517630577087     
   5.7300000000000004E-002   -0.43773028254508972     
   5.7599999999999998E-002   -0.36883831024169922     
   5.7900000000000007E-002   -0.29675474762916565     
   5.8200000000000002E-002   -0.22673597931861877     
   5.8499999999999996E-002   -0.16190464794635773     
   5.8800000000000005E-002   -0.11050508916378021     
   5.9100000000000000E-002    -7.6559729874134064E-002
   5.9400000000000008E-002    -5.9634447097778320E-002
   5.9700000000000003E-002    -5.9423226863145828E-002
   6.0000000000000012E-002    -7.0390798151493073E-002
   6.0300000000000006E-002    -8.6956858634948730E-002
   6.0600000000000001E-002   -0.10032107681035995     
   6.0900000000000010E-002   -0.10328667610883713     
   6.1200000000000004E-002    -9.4886079430580139E-002
   6.1500000000000013E-002    -6.9843739271163940E-002
   6.1800000000000008E-002    -3.0698159709572792E-002
   6.2100000000000002E-002     1.3579819351434708E-002
   6.2399999999999997E-002     5.8052856475114822E-002
   6.2700000000000006E-002     9.3875810503959656E-002
   6.3000000000000000E-002    0.11274039000272751     
   6.3300000000000009E-002    0.10937634855508804     
   6.3600000000000004E-002     8.1906750798225403E-002
   6.3899999999999998E-002     3.3780954778194427E-002
   6.4199999999999993E-002    -3.0359078198671341E-002
   6.4500000000000002E-002   -0.10173167288303375     
   6.4800000000000010E-002   -0.16931508481502533     
   6.5100000000000005E-002   -0.22441606223583221     
   6.5400000000000000E-002   -0.26081082224845886     
   6.5700000000000008E-002   -0.27249142527580261     
   6.5999999999999989E-002   -0.25898554921150208     
   6.6299999999999998E-002   -0.22520981729030609     
   6.6600000000000006E-002   -0.17487451434135437     
   6.6900000000000001E-002   -0.11556079983711243     
   6.7199999999999996E-002    -5.5209673941135406E-002
   6.7500000000000004E-002     1.1737477034330368E-003
   6.7800000000000013E-002     4.7625619918107986E-002
   6.8099999999999994E-002     8.4466286003589630E-002
   6.8400000000000002E-002    0.11207227408885956     
   6.8700000000000011E-002    0.13142074644565582     
   6.8999999999999992E-002    0.14863300323486328     
   6.9300000000000000E-002    0.16496028006076813     
   6.9600000000000009E-002    0.18231025338172913     
   6.9900000000000004E-002    0.20311281085014343     
   7.0199999999999999E-002    0.22333517670631409     
   7.0500000000000007E-002    0.24122172594070435     
   7.0800000000000016E-002    0.25335288047790527     
   7.1099999999999997E-002    0.25409814715385437     
   7.1400000000000005E-002    0.24288970232009888     
   7.1700000000000000E-002    0.21710048615932465     
   7.1999999999999995E-002    0.17753526568412781     
   7.2300000000000003E-002    0.13013041019439697     
   7.2600000000000012E-002     7.8880853950977325E-002
   7.2900000000000006E-002     3.0430199578404427E-002
   7.3200000000000001E-002    -7.8498693183064461E-003
   7.3499999999999996E-002    -3.1438339501619339E-002
   7.3800000000000004E-002    -3.5541743040084839E-002
   7.4099999999999999E-002    -2.0423211157321930E-002
   7.4400000000000008E-002     1.0840737260878086E-002
   7.4700000000000003E-002     5.4475486278533936E-002
   7.5000000000000011E-002    0.10168865323066711     
   7.5299999999999992E-002    0.14363114535808563     
   7.5600000000000001E-002    0.17415896058082581     
   7.5900000000000009E-002    0.18474526703357697     
   7.6200000000000004E-002    0.17182099819183350     
   7.6499999999999999E-002    0.13673715293407440     
   7.6800000000000007E-002     8.0397106707096100E-002
   7.7099999999999988E-002     1.0696511715650558E-002
   7.7399999999999997E-002    -6.2884695827960968E-002
   7.7700000000000005E-002   -0.13134393095970154     
   7.8000000000000014E-002   -0.18291708827018738     
   7.8299999999999995E-002   -0.21113067865371704     
   7.8600000000000003E-002   -0.21081328392028809     
   7.8900000000000012E-002   -0.18013717234134674     
   7.9199999999999993E-002   -0.12567012012004852     
   7.9500000000000001E-002    -5.3823374211788177E-002
   7.9800000000000010E-002     2.3431241512298584E-002
   8.0100000000000018E-002     9.0413168072700500E-002
   8.0399999999999999E-002    0.13571920990943909     
   8.0700000000000008E-002    0.14720305800437927     
   8.1000000000000003E-002    0.11579263210296631     
   8.1299999999999997E-002     4.1793473064899445E-002
   8.1600000000000006E-002    -7.0768751204013824E-002
   8.1900000000000014E-002   -0.21103067696094513     
   8.2199999999999995E-002   -0.35996648669242859     
   8.2500000000000004E-002   -0.49784743785858154     
   8.2799999999999999E-002   -0.60020357370376587     
   8.3100000000000007E-002   -0.64420688152313232     
   8.3400000000000002E-002   -0.61376816034317017     
   8.3700000000000011E-002   -0.49632877111434937     
   8.4000000000000005E-002   -0.29201820492744446     
   8.4300000000000000E-002    -1.0960578918457031E-002
   8.4599999999999995E-002    0.32866466045379639     
   8.4900000000000003E-002    0.69402110576629639     
   8.5199999999999998E-002     1.0496836900711060     
   8.5500000000000007E-002     1.3561552762985229     
   8.5800000000000001E-002     1.5722839832305908     
   8.6100000000000010E-002     1.6667926311492920     
   8.6399999999999991E-002     1.6177525520324707     
   8.6699999999999999E-002     1.4148105382919312     
   8.7000000000000008E-002     1.0653890371322632     
   8.7300000000000003E-002    0.59189116954803467     
   8.7599999999999997E-002     3.0220778658986092E-002
   8.7900000000000006E-002   -0.57219374179840088     
   8.8200000000000014E-002    -1.1639871597290039     
   8.8499999999999995E-002    -1.6917959451675415     
   8.8800000000000004E-002    -2.1071078777313232     
   8.9100000000000013E-002    -2.3752799034118652     
   8.9399999999999993E-002    -2.4717092514038086     
   8.9700000000000002E-002    -2.3886294364929199     
   9.0000000000000011E-002    -2.1378862857818604     
   9.0299999999999991E-002    -1.7407231330871582     
   9.0600000000000000E-002    -1.2333186864852905     
   9.0900000000000009E-002   -0.65953308343887329     
   9.1200000000000017E-002    -6.2796667218208313E-002
   9.1499999999999998E-002    0.51083028316497803     
   9.1800000000000007E-002     1.0237327814102173     
   9.2100000000000001E-002     1.4461240768432617     
   9.2399999999999996E-002     1.7552417516708374     
   9.2700000000000005E-002     1.9430063962936401     
   9.3000000000000013E-002     2.0078294277191162     
   9.3300000000000008E-002     1.9558216333389282     
   9.3600000000000003E-002     1.8035036325454712     
   9.3899999999999997E-002     1.5674520730972290     
   9.4200000000000006E-002     1.2697476148605347     
   9.4500000000000001E-002    0.93377619981765747     
   9.4800000000000009E-002    0.57935357093811035     
   9.5100000000000004E-002    0.22825084626674652     
   9.5399999999999999E-002    -9.9909119307994843E-002
   9.5699999999999993E-002   -0.39109915494918823     
   9.6000000000000002E-002   -0.63212728500366211     
   9.6300000000000011E-002   -0.81405746936798096     
   9.6600000000000005E-002   -0.93318372964859009     
   9.6900000000000000E-002   -0.98828023672103882     
   9.7200000000000009E-002   -0.98356252908706665     
   9.7499999999999989E-002   -0.92711836099624634     
   9.7799999999999998E-002   -0.82787215709686279     
   9.8100000000000007E-002   -0.70001018047332764     
   9.8400000000000015E-002   -0.55590367317199707     
   9.8699999999999996E-002   -0.40665027499198914     
   9.9000000000000005E-002   -0.26687544584274292     
   9.9300000000000013E-002   -0.14212252199649811     
   9.9599999999999994E-002    -3.8080301135778427E-002
   9.9900000000000003E-002     4.0821358561515808E-002
  0.10020000000000001          9.7960203886032104E-002
  0.10049999999999999         0.13422046601772308     
  0.10080000000000000         0.15446224808692932     
  0.10110000000000001         0.16394318640232086     
  0.10140000000000000         0.16483329236507416     
  0.10170000000000000         0.16259482502937317     
  0.10200000000000001         0.15806479752063751     
  0.10230000000000002         0.15110997855663300     
  0.10260000000000000         0.14418503642082214     
  0.10290000000000001         0.13524138927459717     
  0.10320000000000000         0.12313433736562729     
  0.10350000000000001         0.10942600667476654     
  0.10380000000000000          9.4541423022747040E-002
  0.10410000000000001          7.8057467937469482E-002
  0.10440000000000001          6.3139848411083221E-002
  0.10470000000000000          5.0152566283941269E-002
  0.10500000000000000          4.0536653250455856E-002
  0.10530000000000000          3.5747822374105453E-002
  0.10560000000000000          3.3245954662561417E-002
  0.10590000000000001          3.4150667488574982E-002
  0.10620000000000000          3.6286536604166031E-002
  0.10650000000000001          3.6117453128099442E-002
  0.10679999999999999          3.5226788371801376E-002
  0.10710000000000000          3.0415028333663940E-002
  0.10740000000000001          2.1178741008043289E-002
  0.10770000000000000          1.0209733620285988E-002
  0.10800000000000000         -3.0338156502693892E-003
  0.10830000000000001         -1.4971436001360416E-002
  0.10859999999999999         -2.4535883218050003E-002
  0.10890000000000000         -3.1428880989551544E-002
  0.10920000000000001         -3.1858731061220169E-002
  0.10950000000000001         -2.7970723807811737E-002
  0.10979999999999999         -2.1242177113890648E-002
  0.11009999999999999         -1.0658644139766693E-002
  0.11040000000000001          7.9737132182344794E-005
  0.11070000000000001          8.8473632931709290E-003
  0.11100000000000000          1.5352952294051647E-002
  0.11130000000000000          1.7697578296065331E-002
  0.11160000000000002          1.6640935093164444E-002
  0.11190000000000001          1.2662510387599468E-002
  0.11220000000000001          6.5282429568469524E-003
  0.11250000000000000          1.0344858746975660E-003
  0.11280000000000000         -4.6143354848027229E-003
  0.11309999999999999         -9.5617799088358879E-003
  0.11340000000000001         -1.0738529264926910E-002
  0.11369999999999998         -1.1976972222328186E-002
  0.11400000000000000         -1.4128914102911949E-002
  0.11430000000000000         -1.4965622685849667E-002
  0.11460000000000002         -1.8386602401733398E-002
  0.11489999999999999         -2.3934546858072281E-002
  0.11520000000000001         -3.0934266746044159E-002
  0.11550000000000001         -3.9297733455896378E-002
  0.11580000000000000         -4.5636333525180817E-002
  0.11609999999999999         -5.0791915506124496E-002
  0.11640000000000002         -5.1818504929542542E-002
  0.11670000000000001         -4.6741262078285217E-002
  0.11700000000000001         -3.9011627435684204E-002
  0.11730000000000000         -2.6126800104975700E-002
  0.11760000000000000         -9.2909466475248337E-003
  0.11789999999999999          6.4093363471329212E-003
  0.11820000000000001          2.0803211256861687E-002
  0.11850000000000001          3.1818713992834091E-002
  0.11880000000000000          3.7759102880954742E-002
  0.11910000000000000          3.8699842989444733E-002
  0.11940000000000002          3.4373242408037186E-002
  0.11970000000000001          2.6398718357086182E-002
  0.12000000000000001          1.7882248386740685E-002
  0.12030000000000000          8.3956839516758919E-003
  0.12060000000000000          8.8420056272298098E-004
  0.12089999999999999         -2.8962378855794668E-003
  0.12119999999999999         -5.5649448186159134E-003
  0.12150000000000001         -4.5444765128195286E-003
  0.12180000000000001         -2.5288958568125963E-003
  0.12210000000000000         -2.4365109857171774E-003
  0.12239999999999999         -1.8716566264629364E-003
  0.12270000000000002         -4.4844071380794048E-003
  0.12300000000000001         -9.3664452433586121E-003
  0.12330000000000001         -1.4934980310499668E-002
  0.12360000000000000         -2.2085428237915039E-002
  0.12390000000000000         -2.6048297062516212E-002
  0.12419999999999999         -2.7569379657506943E-002
  0.12450000000000001         -2.5482036173343658E-002
  0.12480000000000001         -1.7706839367747307E-002
  0.12509999999999999         -6.9571910426020622E-003
  0.12540000000000001          6.5302741713821888E-003
  0.12570000000000003          2.1088315173983574E-002
  0.12600000000000000          3.2983131706714630E-002
  0.12630000000000002          4.1984260082244873E-002
  0.12659999999999999          4.6714704483747482E-002
  0.12690000000000001          4.4883232563734055E-002
  0.12719999999999998          3.8387581706047058E-002
  0.12750000000000000          2.9358765110373497E-002
  0.12780000000000002          1.7403023317456245E-002
  0.12809999999999999          5.8139059692621231E-003
  0.12840000000000001         -2.9697516001760960E-003
  0.12869999999999998         -9.1411983594298363E-003
  0.12900000000000000         -1.1299211531877518E-002
  0.12930000000000003         -1.1883414350450039E-002
  0.12959999999999999         -9.7470600157976151E-003
  0.12990000000000002         -6.2249563634395599E-003
  0.13019999999999998         -6.5205283463001251E-003
  0.13050000000000000         -7.0249764248728752E-003
  0.13080000000000003         -9.5492592081427574E-003
  0.13109999999999999         -1.6210371628403664E-002
  0.13140000000000002         -2.1281067281961441E-002
  0.13169999999999998         -2.6123059913516045E-002
  0.13200000000000001         -2.8784316033124924E-002
  0.13229999999999997         -2.6417499408125877E-002
  0.13260000000000000         -2.0871032029390335E-002
  0.13290000000000002         -9.0841110795736313E-003
  0.13319999999999999          4.6983268111944199E-003
  0.13350000000000001          1.8683200702071190E-002
  0.13380000000000003          3.3772926777601242E-002
  0.13410000000000000          4.3855551630258560E-002
  0.13440000000000002          4.8246089369058609E-002
  0.13469999999999999          4.7784209251403809E-002
  0.13500000000000001          4.0451120585203171E-002
  0.13529999999999998          2.8180778026580811E-002
  0.13560000000000000          1.3170792721211910E-002
  0.13590000000000002         -2.2616218775510788E-003
  0.13619999999999999         -1.5766471624374390E-002
  0.13650000000000001         -2.5931477546691895E-002
  0.13680000000000003         -3.1678181141614914E-002
  0.13710000000000000         -3.1494963914155960E-002
  0.13740000000000002         -2.8130054473876953E-002
  0.13769999999999999         -2.3728491738438606E-002
  0.13800000000000001         -1.6167743131518364E-002
  0.13829999999999998         -1.1199665255844593E-002
  0.13860000000000000         -9.3448720872402191E-003
  0.13890000000000002         -8.4114605560898781E-003
  0.13919999999999999         -1.0815254412591457E-002
  0.13950000000000001         -1.3085423968732357E-002
  0.13979999999999998         -1.5480409376323223E-002
  0.14010000000000000         -1.6167704015970230E-002
  0.14040000000000002         -1.1226151138544083E-002
  0.14069999999999999         -4.6568834222853184E-003
  0.14100000000000001          5.6615802459418774E-003
  0.14130000000000004          1.9569704309105873E-002
  0.14160000000000000          3.1065113842487335E-002
  0.14189999999999997          4.1096329689025879E-002
  0.14219999999999999          4.7316148877143860E-002
  0.14250000000000002          4.6751249581575394E-002
  0.14279999999999998          4.0004741400480270E-002
  0.14310000000000000          2.7738569304347038E-002
  0.14339999999999997          1.1749533936381340E-002
  0.14369999999999999         -5.2397726103663445E-003
  0.14400000000000002         -2.2476004436612129E-002
  0.14429999999999998         -3.5590384155511856E-002
  0.14460000000000001         -4.2135041207075119E-002
  0.14490000000000003         -4.4695880264043808E-002
  0.14520000000000000         -4.1139986366033554E-002
  0.14550000000000002         -3.1743265688419342E-002
  0.14579999999999999         -2.1897336468100548E-002
  0.14610000000000001         -1.1059508658945560E-002
  0.14640000000000003         -1.4644288457930088E-003
  0.14670000000000000          4.1809212416410446E-003
  0.14699999999999996          7.5231492519378662E-003
  0.14729999999999999          6.6087748855352402E-003
  0.14760000000000001          4.8231678083539009E-003
  0.14789999999999998          3.8664764724671841E-003
  0.14820000000000000          1.6530997818335891E-003