  -1.4999999999999999E-002     0.0000000000000000     
  -1.4700000000000000E-002     0.0000000000000000     
  -1.4400000000000000E-002     0.0000000000000000     
  -1.4100000000000000E-002     0.0000000000000000     
  -1.3800000000000000E-002     0.0000000000000000     
  -1.3500000000000000E-002     0.0000000000000000     
  -1.3200000000000000E-002     0.0000000000000000     
  -1.2899999999999998E-002     0.0000000000000000     
  -1.2600000000000000E-002     0.0000000000000000     
  -1.2299999999999998E-002     0.0000000000000000     
  -1.2000000000000000E-002     0.0000000000000000     
  -1.1699999999999999E-002     0.0000000000000000     
  -1.1399999999999999E-002     0.0000000000000000     
  -1.1099999999999999E-002     0.0000000000000000     
  -1.0799999999999999E-002     0.0000000000000000     
  -1.0499999999999999E-002     0.0000000000000000     
  -1.0199999999999999E-002     0.0000000000000000     
  -9.8999999999999991E-003     0.0000000000000000     
  -9.5999999999999992E-003     0.0000000000000000     
  -9.2999999999999992E-003     0.0000000000000000     
  -8.9999999999999993E-003     0.0000000000000000     
  -8.6999999999999994E-003     0.0000000000000000     
  -8.3999999999999995E-003     0.0000000000000000     
  -8.0999999999999996E-003     0.0000000000000000     
  -7.7999999999999988E-003     0.0000000000000000     
  -7.4999999999999997E-003     0.0000000000000000     
  -7.1999999999999998E-003     0.0000000000000000     
  -6.8999999999999981E-003     0.0000000000000000     
  -6.5999999999999982E-003     0.0000000000000000     
  -6.3000000000000000E-003     0.0000000000000000     
  -6.0000000000000001E-003     0.0000000000000000     
  -5.6999999999999985E-003     0.0000000000000000     
  -5.3999999999999986E-003     0.0000000000000000     
  -5.1000000000000004E-003     0.0000000000000000     
  -4.7999999999999987E-003     0.0000000000000000     
  -4.5000000000000005E-003     0.0000000000000000     
  -4.1999999999999989E-003     0.0000000000000000     
  -3.8999999999999990E-003     0.0000000000000000     
  -3.5999999999999990E-003     0.0000000000000000     
  -3.2999999999999991E-003     0.0000000000000000     
  -2.9999999999999992E-003     0.0000000000000000     
  -2.6999999999999993E-003     0.0000000000000000     
  -2.3999999999999994E-003     0.0000000000000000     
  -2.0999999999999977E-003     0.0000000000000000     
  -1.7999999999999995E-003     0.0000000000000000     
  -1.4999999999999979E-003     0.0000000000000000     
  -1.1999999999999997E-003     0.0000000000000000     
  -8.9999999999999976E-004     0.0000000000000000     
  -5.9999999999999810E-004     0.0000000000000000     
  -2.9999999999999992E-004     0.0000000000000000     
   0.0000000000000000          0.0000000000000000     
   3.0000000000000165E-004     0.0000000000000000     
   5.9999999999999984E-004     0.0000000000000000     
   9.0000000000000149E-004     0.0000000000000000     
   1.2000000000000031E-003     0.0000000000000000     
   1.5000000000000013E-003     0.0000000000000000     
   1.8000000000000030E-003     0.0000000000000000     
   2.1000000000000012E-003     0.0000000000000000     
   2.3999999999999994E-003     0.0000000000000000     
   2.7000000000000010E-003     0.0000000000000000     
   2.9999999999999992E-003     0.0000000000000000     
   3.3000000000000008E-003     0.0000000000000000     
   3.6000000000000025E-003     0.0000000000000000     
   3.9000000000000007E-003     0.0000000000000000     
   4.2000000000000023E-003     0.0000000000000000     
   4.5000000000000005E-003     0.0000000000000000     
   4.7999999999999987E-003     0.0000000000000000     
   5.1000000000000004E-003     0.0000000000000000     
   5.4000000000000020E-003     0.0000000000000000     
   5.7000000000000037E-003     0.0000000000000000     
   5.9999999999999984E-003     0.0000000000000000     
   6.3000000000000000E-003     1.1250936737936088E-037
   6.6000000000000017E-003     6.5457385701210895E-036
   6.9000000000000034E-003    -8.0522458324855871E-035
   7.2000000000000015E-003    -2.6472966414968181E-035
   7.5000000000000032E-003     6.6889451702551877E-033
   7.8000000000000014E-003    -4.7533713539734598E-032
   8.0999999999999996E-003     3.0078588978163661E-032
   8.4000000000000012E-003     2.0370198664452937E-030
   8.7000000000000029E-003    -1.5267925678613055E-029
   9.0000000000000011E-003     2.2775926872134050E-029
   9.2999999999999992E-003     3.4385597932158814E-028
   9.6000000000000009E-003    -2.5291502311307310E-027
   9.8999999999999991E-003     5.2750608614655613E-027
   1.0200000000000001E-002     2.5108072494967710E-026
   1.0500000000000002E-002    -2.1453103794487103E-025
   1.0800000000000004E-002     5.9351661304367509E-025
   1.1099999999999999E-002     3.1605191283924374E-025
   1.1400000000000000E-002    -8.2378495401446442E-024
   1.1700000000000002E-002     2.7740755593200898E-023
   1.2000000000000004E-002    -1.9642681340048644E-023
   1.2300000000000002E-002    -1.7907741227322352E-022
   1.2600000000000000E-002     7.0546697257661939E-022
   1.2900000000000002E-002    -3.2463234873984648E-022
   1.3200000000000000E-002    -7.7579774148916269E-021
   1.3500000000000002E-002     4.3596949816610745E-020
   1.3800000000000003E-002    -1.4996700011487383E-019
   1.4100000000000001E-002     4.1336853259752721E-019
   1.4400000000000000E-002    -1.0917014908340581E-018
   1.4700000000000001E-002     3.2521401566709161E-018
   1.4999999999999999E-002    -1.1210793647817565E-017
   1.5300000000000001E-002     4.0985260660359721E-017
   1.5600000000000003E-002    -1.5326936328823449E-016
   1.5899999999999997E-002     6.1542562883136077E-016
   1.6199999999999999E-002    -2.7947912121985557E-015
   1.6500000000000001E-002     1.3923063342556111E-014
   1.6800000000000002E-002    -6.9798928230074710E-014
   1.7100000000000004E-002     3.2680570018445829E-013
   1.7400000000000006E-002    -1.3580345888164445E-012
   1.7700000000000000E-002     4.7780316813930889E-012
   1.8000000000000002E-002    -1.3183570996519896E-011
   1.8300000000000004E-002     2.2753435254910128E-011
   1.8600000000000005E-002     1.0991373257140587E-011
   1.8900000000000000E-002    -2.4553857599271633E-010
   1.9200000000000002E-002     9.0966434246557191E-010
   1.9500000000000003E-002    -1.5374789646256141E-009
   1.9799999999999998E-002    -9.4835536952986949E-010
   2.0100000000000000E-002     1.1392943811244435E-008
   2.0400000000000001E-002    -2.1135828283168299E-008
   2.0700000000000003E-002    -1.3774773356822343E-008
   2.0999999999999998E-002     1.1101743395373973E-007
   2.1299999999999999E-002    -7.1648273667096857E-008
   2.1600000000000001E-002    -3.5090572865664019E-007
   2.1900000000000003E-002     3.5528765355222716E-007
   2.2200000000000004E-002     1.0709224670530392E-006
   2.2500000000000006E-002    -7.6741908215602350E-007
   2.2800000000000001E-002    -3.6567701659317688E-006
   2.3100000000000002E-002    -1.4425075873861012E-007
   2.3400000000000004E-002     1.6544990735213049E-005
   2.3699999999999999E-002     4.5425337445883932E-005
   2.4000000000000000E-002     8.1446946386353825E-005
   2.4300000000000002E-002     1.2546424457047416E-004
   2.4599999999999997E-002     1.8822012934967877E-004
   2.4900000000000005E-002     2.8889329753914450E-004
   2.5200000000000000E-002     4.5162179957346574E-004
   2.5499999999999995E-002     7.0341411424790917E-004
   2.5800000000000003E-002     1.0792864791818318E-003
   2.6099999999999998E-002     1.6294769574828061E-003
   2.6400000000000007E-002     2.4243856896526417E-003
   2.6700000000000002E-002     3.5598817832735857E-003
   2.6999999999999996E-002     5.1610358651431043E-003
   2.7300000000000005E-002     7.3837037110356940E-003
   2.7600000000000000E-002     1.0415526818865317E-002
   2.7900000000000008E-002     1.4478769746663733E-002
   2.8200000000000003E-002     1.9831370644376900E-002
   2.8499999999999998E-002     2.6756676360222276E-002
   2.8800000000000006E-002     3.5543161061004191E-002
   2.9100000000000001E-002     4.6463609968305120E-002
   2.9400000000000003E-002     5.9745572204561004E-002
   2.9700000000000004E-002     7.5523545011666471E-002
   3.0000000000000006E-002     9.3777589565644082E-002
   3.0300000000000001E-002    0.11426851392602577     
   3.0600000000000002E-002    0.13647154381821869     
   3.0900000000000004E-002    0.15950762617102132     
   3.1199999999999999E-002    0.18208016855926967     
   3.1500000000000007E-002    0.20244250557662813     
   3.1800000000000002E-002    0.21838470905924812     
   3.2099999999999997E-002    0.22729274405456668     
   3.2400000000000005E-002    0.22621495312360995     
   3.2700000000000000E-002    0.21202403761168664     
   3.3000000000000002E-002    0.18165901657006600     
   3.3300000000000003E-002    0.13238581141995454     
   3.3599999999999998E-002     6.2159457057797685E-002
   3.3900000000000000E-002    -3.0054303216761280E-002
   3.4200000000000001E-002   -0.14394669899791279     
   3.4500000000000003E-002   -0.27752944691916337     
   3.4799999999999998E-002   -0.42698903379949016     
   3.5099999999999999E-002   -0.58656200553868132     
   3.5400000000000001E-002   -0.74864532993258948     
   3.5699999999999996E-002   -0.90411340427760223     
   3.6000000000000004E-002    -1.0427022019587220     
   3.6299999999999999E-002    -1.1537449025726616     
   3.6600000000000008E-002    -1.2268828661262035     
   3.6900000000000002E-002    -1.2529264401112101     
   3.7199999999999997E-002    -1.2247082808649665     
   3.7500000000000006E-002    -1.1378301500396901     
   3.7800000000000000E-002   -0.99127541042566136     
   3.8100000000000009E-002   -0.78775742275597693     
   3.8400000000000004E-002   -0.53378879193996198     
   3.8699999999999998E-002   -0.23939763293080318     
   3.9000000000000007E-002     8.2319108966700139E-002
   3.9300000000000002E-002    0.41619556943985270     
   3.9600000000000003E-002    0.74584725901906523     
   3.9900000000000005E-002     1.0548815705643975     
   4.0200000000000000E-002     1.3281197087526380     
   4.0500000000000001E-002     1.5524109752243547     
   4.0800000000000003E-002     1.7177750353041787     
   4.1100000000000005E-002     1.8177615741479798     
   4.1399999999999999E-002     1.8498333141436945     
   4.1700000000000008E-002     1.8154341464305475     
   4.2000000000000003E-002     1.7194381081377941     
   4.2299999999999997E-002     1.5698035630513587     
   4.2600000000000006E-002     1.3767146356882449     
   4.2900000000000001E-002     1.1516894459110674     
   4.3200000000000002E-002    0.90688111649194880     
   4.3500000000000004E-002    0.65406322019302721     
   4.3799999999999999E-002    0.40404694158897314     
   4.4100000000000000E-002    0.16616664428370598     
   4.4400000000000002E-002    -5.2240399690774098E-002
   4.4700000000000004E-002   -0.24573890257120867     
   4.4999999999999998E-002   -0.41095097881610165     
   4.5300000000000000E-002   -0.54640508085201134     
   4.5600000000000002E-002   -0.65204130430722884     
   4.5899999999999996E-002   -0.72925234300928565     
   4.6200000000000005E-002   -0.78020459473733084     
   4.6500000000000000E-002   -0.80756837499361822     
   4.6799999999999994E-002   -0.81445083343951197     
   4.7100000000000003E-002   -0.80364981885186992     
   4.7399999999999998E-002   -0.77804241752165737     
   4.7700000000000006E-002   -0.74013081476620357     
   4.8000000000000001E-002   -0.69191045012565766     
   4.8300000000000010E-002   -0.63543967597419737     
   4.8600000000000004E-002   -0.57217737731469143     
   4.8899999999999999E-002   -0.50371438114011546     
   4.9200000000000008E-002   -0.43169496384413364     
   4.9500000000000002E-002   -0.35766948553694355     
   4.9800000000000011E-002   -0.28386611668248207     
   5.0100000000000006E-002   -0.21261402118377415     
   5.0400000000000000E-002   -0.14682829663017394     
   5.0700000000000009E-002    -9.0076533533777869E-002
   5.1000000000000004E-002    -4.5989293135753062E-002
   5.1299999999999998E-002    -1.8762692558629723E-002
   5.1600000000000007E-002    -1.2384399477680053E-002
   5.1900000000000002E-002    -3.0334163567515310E-002
   5.2200000000000010E-002    -7.5553529865337365E-002
   5.2500000000000005E-002   -0.14930049991918803     
   5.2800000000000000E-002   -0.25118205937420957     
   5.3099999999999994E-002   -0.37853550060074603     
   5.3400000000000003E-002   -0.52582905200181251     
   5.3699999999999998E-002   -0.68515900981505595     
   5.4000000000000006E-002   -0.84570413078101581     
   5.4300000000000001E-002   -0.99447115950273357     
   5.4599999999999996E-002    -1.1171486461351918     
   5.4900000000000004E-002    -1.1985375403350886     
   5.5199999999999999E-002    -1.2244581386934428     
   5.5499999999999994E-002    -1.1825218408202431     
   5.5800000000000002E-002    -1.0636641278095453     
   5.6099999999999997E-002   -0.86359699989747440     
   5.6400000000000006E-002   -0.58309443004865358     
   5.6700000000000000E-002   -0.22924884745402707     
   5.6999999999999995E-002    0.18507505728106644     
   5.7300000000000004E-002    0.64160668983722680     
   5.7599999999999998E-002     1.1174582013863414     
   5.7900000000000007E-002     1.5870713404798664     
   5.8200000000000002E-002     2.0236009061244786     
   5.8499999999999996E-002     2.4011983032039268     
   5.8800000000000005E-002     2.6968881424681257     
   5.9100000000000000E-002     2.8922362058568325     
   5.9400000000000008E-002     2.9748400354403230     
   5.9700000000000003E-002     2.9390898518871467     
   6.0000000000000012E-002     2.7864699577110343     
   6.0300000000000006E-002     2.5253516600609913     
   6.0600000000000001E-002     2.1701176530978472     
   6.0900000000000010E-002     1.7398737378638245     
   6.1200000000000004E-002     1.2570101366782112     
   6.1500000000000013E-002    0.74532233346366183     
   6.1800000000000008E-002    0.22849866928812279     
   6.2100000000000002E-002   -0.27141689003188052     
   6.2399999999999997E-002   -0.73532325298863199     
   6.2700000000000006E-002    -1.1477702319911529     
   6.3000000000000000E-002    -1.4976135014563354     
   6.3300000000000009E-002    -1.7778762875275689     
   6.3600000000000004E-002    -1.9857995192854432     
   6.3899999999999998E-002    -2.1220863077256169     
   6.4199999999999993E-002    -2.1903210065190564     
   6.4500000000000002E-002    -2.1964434583096590     
   6.4800000000000010E-002    -2.1477426168290918     
   6.5100000000000005E-002    -2.0524968928160092     
   6.5400000000000000E-002    -1.9193322325524065     
   6.5700000000000008E-002    -1.7568255927749803     
   6.5999999999999989E-002    -1.5735530428973448     
   6.6299999999999998E-002    -1.3776654670565520     
   6.6600000000000006E-002    -1.1771447567422726     
   6.6900000000000001E-002   -0.97958928186421446     
   6.7199999999999996E-002   -0.79199638701564368     
   6.7500000000000004E-002   -0.62090222350022373     
   6.7800000000000013E-002   -0.47172777526395748     
   6.8099999999999994E-002   -0.34854618776013346     
   6.8400000000000002E-002   -0.25377698845234331     
   6.8700000000000011E-002   -0.18734884281817354     
   6.8999999999999992E-002   -0.14670397016866854     
   6.9300000000000000E-002   -0.12631404748608510     
   6.9600000000000009E-002   -0.11766791692323020     
   6.9900000000000004E-002   -0.11002551886689105     
   7.0199999999999999E-002    -9.0412973458476209E-002
   7.0500000000000007E-002    -4.5358983479556469E-002
   7.0800000000000016E-002     3.8125334080696183E-002
   7.1099999999999997E-002    0.17125158277376895     
   7.1400000000000005E-002    0.36130107184157545     
   7.1700000000000000E-002    0.61097817506632168     
   7.1999999999999995E-002    0.91681208652513746     
   7.2300000000000003E-002     1.2685824548292715     
   7.2600000000000012E-002     1.6498927374655281     
   7.2900000000000006E-002     2.0381170677951346     
   7.3200000000000001E-002     2.4065142923009972     
   7.3499999999999996E-002     2.7258831272030619     
   7.3800000000000004E-002     2.9667394723609277     
   7.4099999999999999E-002     3.1026884519434645     
   7.4400000000000008E-002     3.1120865507914885     
   7.4700000000000003E-002     2.9810418693788279     
   7.5000000000000011E-002     2.7047855577839641     
   7.5299999999999992E-002     2.2883071527682262     
   7.5600000000000001E-002     1.7472277952080688     
   7.5900000000000009E-002     1.1059098628964605     
   7.6200000000000004E-002    0.39649383249855319     
   7.6499999999999999E-002   -0.34351562462315677     
   7.6800000000000007E-002    -1.0747063499572143     
   7.7099999999999988E-002    -1.7578436781928559     
   7.7399999999999997E-002    -2.3575532399700592     
   7.7700000000000005E-002    -2.8445575110716987     
   7.8000000000000014E-002    -3.1973482955248755     
   7.8299999999999995E-002    -3.4042355153500665     
   7.8600000000000003E-002    -3.4628962176319362     
   7.8900000000000012E-002    -3.3804212620650560     
   7.9199999999999993E-002    -3.1722136700248171     
   7.9500000000000001E-002    -2.8597177756542322     
   7.9800000000000010E-002    -2.4690354677926081     
   8.0100000000000018E-002    -2.0278980395000588     
   8.0399999999999999E-002    -1.5636525455109975     
   8.0700000000000008E-002    -1.1012921108471332     
   8.1000000000000003E-002   -0.66115207718092961     
   8.1299999999999997E-002   -0.25825229913129455     
   8.1600000000000006E-002     9.8560403087860848E-002
   8.1900000000000014E-002    0.40693477915326737     
   8.2199999999999995E-002    0.66984842154934654     
   8.2500000000000004E-002    0.89511661686261235     
   8.2799999999999999E-002     1.0937952406239546     
   8.3100000000000007E-002     1.2782529695655569     
   8.3400000000000002E-002     1.4605046070911172     
   8.3700000000000011E-002     1.6502813367060654     
   8.4000000000000005E-002     1.8532810700376672     
   8.4300000000000000E-002     2.0704129143412757     
   8.4599999999999995E-002     2.2964998192123716     
   8.4900000000000003E-002     2.5205752870369196     
   8.5199999999999998E-002     2.7265158016648314     
   8.5500000000000007E-002     2.8936271760351815     
   8.5800000000000001E-002     2.9993366372934958     
   8.6100000000000010E-002     3.0206789901685482     
   8.6399999999999991E-002     2.9370981454229366     
   8.6699999999999999E-002     2.7331170909271094     
   8.7000000000000008E-002     2.3997820034544901     
   8.7300000000000003E-002     1.9371695162054294     
   8.7599999999999997E-002     1.3546645902857009     
   8.7900000000000006E-002    0.67133769712458147     
   8.8200000000000014E-002    -8.4712563887523018E-002
   8.8499999999999995E-002   -0.87876140964986593     
   8.8800000000000004E-002    -1.6710340479824382     
   8.9100000000000013E-002    -2.4204373557157055     
   8.9399999999999993E-002    -3.0873141174031815     
   8.9700000000000002E-002    -3.6364471625724804     
   9.0000000000000011E-002    -4.0401926110393589     
   9.0299999999999991E-002    -4.2799197300250142     
   9.0600000000000000E-002    -4.3473997773105850     
   9.0900000000000009E-002    -4.2451716121837819     
   9.1200000000000017E-002    -3.9851731772805721     
   9.1499999999999998E-002    -3.5877743269217746     
   9.1800000000000007E-002    -3.0792335023818964     
   9.2100000000000001E-002    -2.4892263395354206     
   9.2399999999999996E-002    -1.8488012603776269     
   9.2700000000000005E-002    -1.1871996062930563     
   9.3000000000000013E-002   -0.53089638186409260     
   9.3300000000000008E-002     9.7746882436165805E-002
   9.3600000000000003E-002    0.68168196247807433     
   9.3899999999999997E-002     1.2076471515098159     
   9.4200000000000006E-002     1.6667576229581442     
   9.4500000000000001E-002     2.0528059078637568     
   9.4800000000000009E-002     2.3610438375475127     
   9.5100000000000004E-002     2.5880907893610896     
   9.5399999999999999E-002     2.7299384828462223     
   9.5699999999999993E-002     2.7830501398118628     
   9.6000000000000002E-002     2.7438197380742508     
   9.6300000000000011E-002     2.6091872660146436     
   9.6600000000000005E-002     2.3787599147294856     
   9.6900000000000000E-002     2.0548692014859782     
   9.7200000000000009E-002     1.6445634238352227     
   9.7499999999999989E-002     1.1604142584502952     
   9.7799999999999998E-002    0.62047294410032627     
   9.8100000000000007E-002     4.8744604609576747E-002
   9.8400000000000015E-002   -0.52619623923901138     
   9.8699999999999996E-002    -1.0728812637717828     
   9.9000000000000005E-002    -1.5585048933112198     
   9.9300000000000013E-002    -1.9523590745641002     
   9.9599999999999994E-002    -2.2279902473765816     
   9.9900000000000003E-002    -2.3653613967821627     
  0.10020000000000001         -2.3537841066701191     
  0.10049999999999999         -2.1921607854484222     
  0.10080000000000000         -1.8903430505754457     
  0.10110000000000001         -1.4684369666258306     
  0.10140000000000000        -0.95457999248249337     
  0.10170000000000000        -0.38452325825365019     
  0.10200000000000001         0.20279243199252051     
  0.10230000000000002         0.76722579610859398     
  0.10260000000000000          1.2701127209142715     
  0.10290000000000001          1.6785459797536717     
  0.10320000000000000          1.9653876816001130     
  0.10350000000000001          2.1128119780210000     
  0.10380000000000000          2.1125428527172829     
  0.10410000000000001          1.9654598297602348     
  0.10440000000000001          1.6829094999282006     
  0.10470000000000000          1.2837355726790349     
  0.10500000000000000         0.79471306805275788     
  0.10530000000000000         0.24833981803171401     
  0.10560000000000000        -0.31971460027531506     
  0.10590000000000001        -0.87090157573083182     
  0.10620000000000000         -1.3674564406122478     
  0.10650000000000001         -1.7735006890754512     
  0.10679999999999999         -2.0571849412511796     
  0.10710000000000000         -2.1933990514017481     
  0.10740000000000001         -2.1644391673012038     
  0.10770000000000000         -1.9625972191682592     
  0.10800000000000000         -1.5909514624290111     
  0.10830000000000001         -1.0636908089005139     
  0.10859999999999999        -0.40688641277086646     
  0.10890000000000000         0.34327511761147989     
  0.10920000000000001          1.1418945526896582     
  0.10950000000000001          1.9375195600633717     
  0.10979999999999999          2.6763559148315679     
  0.11009999999999999          3.3047877960042129     
  0.11040000000000001          3.7738882516986934     
  0.11070000000000001          4.0436277280932416     
  0.11100000000000000          4.0849558051013304     
  0.11130000000000000          3.8841753372715431     
  0.11160000000000002          3.4431952419275405     
  0.11190000000000001          2.7803811988641911     
  0.11220000000000001          1.9303810572324736     
  0.11250000000000000         0.94098389631350088     
  0.11280000000000000        -0.12828504592799739     
  0.11309999999999999         -1.2117812467922384     
  0.11340000000000001         -2.2410812562393190     
  0.11369999999999998         -3.1497844756424414     
  0.11400000000000000         -3.8792302303407951     
  0.11430000000000000         -4.3810652407646984     
  0.11460000000000002         -4.6223799479715524     
  0.11489999999999999         -4.5871706227774780     
  0.11520000000000001         -4.2778382034738627     
  0.11550000000000001         -3.7158480937546017     
  0.11580000000000000         -2.9390603654728125     
  0.11609999999999999         -2.0006347967635492     
  0.11640000000000002        -0.96419992909592978     
  0.11670000000000001         0.10020832641338728     
  0.11700000000000001          1.1208788644634282     
  0.11730000000000000          2.0305025396077125     
  0.11760000000000000          2.7700115587602525     
  0.11789999999999999          3.2937164209259464     
  0.11820000000000001          3.5721282624848669     
  0.11850000000000001          3.5939772716721734     
  0.11880000000000000          3.3669865385943467     
  0.11910000000000000          2.9164104629458905     
  0.11940000000000002          2.2830858021501399     
  0.11970000000000001          1.5194446430995612     
  0.12000000000000001         0.68520611345934768     
  0.12030000000000000        -0.15784759097575396     
  0.12060000000000000        -0.95076643563984220     
  0.12089999999999999         -1.6423097396352002     
  0.12119999999999999         -2.1929600726939995     
  0.12150000000000001         -2.5768447132045864     
  0.12180000000000001         -2.7840078623220705     
  0.12210000000000000         -2.8191443697789964     
  0.12239999999999999         -2.7007262498081133     
  0.12270000000000002         -2.4579642407705649     
  0.12300000000000001         -2.1266209632631643     
  0.12330000000000001         -1.7458095522362527     
  0.12360000000000000         -1.3524678940194264     
  0.12390000000000000        -0.97872250674127415     
  0.12419999999999999        -0.64854296216426377     
  0.12450000000000001        -0.37569467289283942     
  0.12480000000000001        -0.16391162235416612     
  0.12509999999999999         -6.8595701630968786E-003
  0.12540000000000001         0.10914240907899270     
  0.12570000000000003         0.20269565859168193     
  0.12600000000000000         0.29382961503969440     
  0.12630000000000002         0.40040338049967339     
  0.12659999999999999         0.53514092280914838     
  0.12690000000000001         0.70307342044903010     
  0.12719999999999998         0.90045506640974082     
  0.12750000000000000          1.1145395513916121     
  0.12780000000000002          1.3252521106935760     
  0.12809999999999999          1.5069445813385087     
  0.12840000000000001          1.6324889806338376     
  0.12869999999999998          1.6764204108149201     
  0.12900000000000000          1.6188087366442190     
  0.12930000000000003          1.4492416965710504     
  0.12959999999999999          1.1674300880704109     
  0.12990000000000002         0.78619021656350796     
  0.13019999999999998         0.32951925344263522     
  0.13050000000000000        -0.16916511326627592     
  0.13080000000000003        -0.66903838659844794     
  0.13109999999999999         -1.1283110027233314     
  0.13140000000000002         -1.5061179435559513     
  0.13169999999999998         -1.7687095627525622     
  0.13200000000000001         -1.8929356911367421     
  0.13229999999999997         -1.8676057980125407     
  0.13260000000000000         -1.6968523939282960     
  0.13290000000000002         -1.3972926199533902     
  0.13319999999999999        -0.99785270710162521     
  0.13350000000000001        -0.53610087597333589     
  0.13380000000000003         -5.3102093519130200E-002
  0.13410000000000000         0.40878346505202501     
  0.13440000000000002         0.81210227363235887     
  0.13469999999999999          1.1268454884994039     
  0.13500000000000001          1.3329268557472496     
  0.13529999999999998          1.4222558439456847     
  0.13560000000000000          1.3973851273348075     
  0.13590000000000002          1.2713121149872606     
  0.13619999999999999          1.0649230030521508     
  0.13650000000000001         0.80412120058836578     
  0.13680000000000003         0.51734086850158789     
  0.13710000000000000         0.23230496037343062     
  0.13740000000000002         -2.6096940374289446E-002
  0.13769999999999999        -0.23700037491019188     
  0.13800000000000001        -0.38518262109161983     
  0.13829999999999998        -0.46065684059053247     
  0.13860000000000000        -0.45788940806873235     
  0.13890000000000002        -0.37634824830533553     
  0.13919999999999999        -0.21812570582736335     
  0.13950000000000001          1.1742465798614710E-002
  0.13979999999999998         0.30632695674984234     
  0.14010000000000000         0.65782425839298853     
  0.14040000000000002          1.0556138316046084     
  0.14069999999999999          1.4886655847777570     
  0.14100000000000001          1.9431236056363481     
  0.14130000000000004          2.4027517888658600     
  0.14160000000000000          2.8498052333938872     
  0.14189999999999997          3.2633905973790149     
  0.14219999999999999          3.6227277694581517     
  0.14250000000000002          3.9060080810926223     
  0.14279999999999998          4.0927935127870398     
  0.14310000000000000          4.1659871386867735     
  0.14339999999999997          4.1116038976837785     
  0.14369999999999999          3.9221906811214637     
  0.14400000000000002          3.5956783806745136     
  0.14429999999999998          3.1366938103790005     
  0.14460000000000001          2.5560347920357174     
  0.14490000000000003          1.8691566841429434     
  0.14520000000000000          1.0957980482707299     
  0.14550000000000002         0.25701894801623704     
  0.14579999999999999        -0.62548675682517541     
  0.14610000000000001         -1.5315850869637657     
  0.14640000000000003         -2.4436120172862168     
  0.14670000000000000         -3.3465645456945854     
  0.14699999999999996         -4.2289674324152529     
  0.14729999999999999         -5.0811337037355599     
  0.14760000000000001         -5.8951977333350243     
  0.14789999999999998         -6.6630795356449113     
  0.14820000000000000         -7.3753235125192873     