  -1.4999999999999999E-002     0.0000000000000000     
  -1.4700000000000000E-002     0.0000000000000000     
  -1.4400000000000000E-002     0.0000000000000000     
  -1.4100000000000000E-002     0.0000000000000000     
  -1.3800000000000000E-002     0.0000000000000000     
  -1.3500000000000000E-002     0.0000000000000000     
  -1.3200000000000000E-002     0.0000000000000000     
  -1.2899999999999998E-002     0.0000000000000000     
  -1.2600000000000000E-002     0.0000000000000000     
  -1.2299999999999998E-002     0.0000000000000000     
  -1.2000000000000000E-002     0.0000000000000000     
  -1.1699999999999999E-002     0.0000000000000000     
  -1.1399999999999999E-002     0.0000000000000000     
  -1.1099999999999999E-002     0.0000000000000000     
  -1.0799999999999999E-002     0.0000000000000000     
  -1.0499999999999999E-002     0.0000000000000000     
  -1.0199999999999999E-002     0.0000000000000000     
  -9.8999999999999991E-003     0.0000000000000000     
  -9.5999999999999992E-003     0.0000000000000000     
  -9.2999999999999992E-003     0.0000000000000000     
  -8.9999999999999993E-003     0.0000000000000000     
  -8.6999999999999994E-003     0.0000000000000000     
  -8.3999999999999995E-003     0.0000000000000000     
  -8.0999999999999996E-003     1.4417129882331654E-036
  -7.7999999999999988E-003    -5.6237769134398006E-036
  -7.4999999999999997E-003    -3.7182850735168958E-036
  -7.1999999999999998E-003     1.1051469832328239E-034
  -6.8999999999999981E-003    -4.3524620659938936E-034
  -6.5999999999999982E-003     2.5158200092657302E-033
  -6.3000000000000000E-003    -2.2557959936206354E-032
  -6.0000000000000001E-003     1.8334440472049347E-031
  -5.6999999999999985E-003    -1.0554139353434163E-030
  -5.3999999999999986E-003     3.4389074067769292E-030
  -5.1000000000000004E-003     2.8140868322527157E-030
  -4.7999999999999987E-003    -1.0650794630337305E-028
  -4.5000000000000005E-003     6.7702648669281989E-028
  -4.1999999999999989E-003    -2.5809893704308722E-027
  -3.8999999999999990E-003     6.6711740379525257E-027
  -3.5999999999999990E-003    -1.2019687182833940E-026
  -3.2999999999999991E-003     1.6593422592619680E-026
  -2.9999999999999992E-003    -3.1577054330107356E-026
  -2.6999999999999993E-003     1.1979737849109109E-025
  -2.3999999999999994E-003    -4.4608013430372012E-025
  -2.0999999999999977E-003     1.2958644714121112E-024
  -1.7999999999999995E-003    -3.0637371601455205E-024
  -1.4999999999999979E-003     6.5012433225024507E-024
  -1.1999999999999997E-003    -1.4071587231362057E-023
  -8.9999999999999976E-004     3.3557284627436962E-023
  -5.9999999999999810E-004    -8.3821185412502105E-023
  -2.9999999999999992E-004     1.9790239357346011E-022
   0.0000000000000000         -4.0841015332362782E-022
   3.0000000000000165E-004     6.8525249453091036E-022
   5.9999999999999984E-004    -7.8514253045816204E-022
   9.0000000000000149E-004    -1.6672355928514433E-023
   1.2000000000000031E-003     3.2954994753663747E-021
   1.5000000000000013E-003    -1.1845914611878395E-020
   1.8000000000000030E-003     2.9818135635477650E-020
   2.1000000000000012E-003    -6.2120766401895139E-020
   2.3999999999999994E-003     1.1162432720066874E-019
   2.7000000000000010E-003    -1.6842264518753117E-019
   2.9999999999999992E-003     1.6821856422077785E-019
   3.3000000000000008E-003     1.6316352132579852E-019
   3.6000000000000025E-003    -1.8542593462968451E-018
   3.9000000000000007E-003     8.4855421511884661E-018
   4.2000000000000023E-003    -3.1819722414616302E-017
   4.5000000000000005E-003     1.0824543067639554E-016
   4.7999999999999987E-003    -3.4127227436627698E-016
   5.1000000000000004E-003     9.8722134694786013E-016
   5.4000000000000020E-003    -2.5269739320927251E-015
   5.7000000000000037E-003     5.2406627248805047E-015
   5.9999999999999984E-003    -6.3081194795152652E-015
   6.3000000000000000E-003    -1.0580927206995695E-014
   6.6000000000000017E-003     9.4767238761200856E-014
   6.9000000000000034E-003    -2.9124592277815498E-013
   7.2000000000000015E-003     1.1441206055479158E-013
   7.5000000000000032E-003     4.0681984690704720E-012
   7.8000000000000014E-003    -2.6809023750962169E-011
   8.0999999999999996E-003     1.0258231764037617E-010
   8.4000000000000012E-003    -2.4609156379362673E-010
   8.7000000000000029E-003     2.1088701618321437E-010
   9.0000000000000011E-003     9.9411201492927148E-010
   9.2999999999999992E-003    -4.5547667859580088E-009
   9.6000000000000009E-003     6.6849343838271125E-009
   9.8999999999999991E-003     9.1101224342082787E-009
   1.0200000000000001E-002    -5.0300418052984242E-008
   1.0500000000000002E-002     3.3022047318809200E-008
   1.0800000000000004E-002     1.7548437369896419E-007
   1.1099999999999999E-002    -2.6518731033320364E-007
   1.1400000000000000E-002    -5.8117694834436406E-007
   1.1700000000000002E-002     8.6569076529485756E-007
   1.2000000000000004E-002     1.9382036953174975E-006
   1.2300000000000002E-002    -1.7554318674228853E-006
   1.2600000000000000E-002    -5.9893200159422122E-006
   1.2900000000000002E-002     2.4549594854761381E-006
   1.3200000000000000E-002     2.5939940314856358E-005
   1.3500000000000002E-002     4.7107318096095696E-005
   1.3800000000000003E-002     5.5909869843162596E-005
   1.4100000000000001E-002     7.3960596637334675E-005
   1.4400000000000000E-002     1.3117965136189014E-004
   1.4700000000000001E-002     2.2862025070935488E-004
   1.4999999999999999E-002     3.5059326910413802E-004
   1.5300000000000001E-002     5.1230599638074636E-004
   1.5600000000000003E-002     7.6883228030055761E-004
   1.5899999999999997E-002     1.1707970406860113E-003
   1.6199999999999999E-002     1.7425828846171498E-003
   1.6500000000000001E-002     2.5256150402128696E-003
   1.6800000000000002E-002     3.6183539777994156E-003
   1.7100000000000004E-002     5.1458743400871754E-003
   1.7400000000000006E-002     7.2133373469114304E-003
   1.7700000000000000E-002     9.9288523197174072E-003
   1.8000000000000002E-002     1.3456145301461220E-002
   1.8300000000000004E-002     1.7993863672018051E-002
   1.8600000000000005E-002     2.3701556026935577E-002
   1.8900000000000000E-002     3.0686464160680771E-002
   1.9200000000000002E-002     3.9048835635185242E-002
   1.9500000000000003E-002     4.8864334821701050E-002
   1.9799999999999998E-002     6.0079757124185562E-002
   2.0100000000000000E-002     7.2447799146175385E-002
   2.0400000000000001E-002     8.5553944110870361E-002
   2.0700000000000003E-002     9.8824411630630493E-002
   2.0999999999999998E-002    0.11145083606243134     
   2.1299999999999999E-002    0.12232077121734619     
   2.1600000000000001E-002    0.13005957007408142     
   2.1900000000000003E-002    0.13313658535480499     
   2.2200000000000004E-002    0.12991742789745331     
   2.2500000000000006E-002    0.11870916932821274     
   2.2800000000000001E-002     9.7901314496994019E-002
   2.3100000000000002E-002     6.6191591322422028E-002
   2.3400000000000004E-002     2.2773761302232742E-002
   2.3699999999999999E-002    -3.2539714127779007E-002
   2.4000000000000000E-002    -9.9168814718723297E-002
   2.4300000000000002E-002   -0.17559224367141724     
   2.4599999999999997E-002   -0.25926446914672852     
   2.4900000000000005E-002   -0.34668973088264465     
   2.5200000000000000E-002   -0.43356844782829285     
   2.5499999999999995E-002   -0.51498228311538696     
   2.5800000000000003E-002   -0.58566272258758545     
   2.6099999999999998E-002   -0.64038962125778198     
   2.6400000000000007E-002   -0.67446321249008179     
   2.6700000000000002E-002   -0.68410956859588623     
   2.6999999999999996E-002   -0.66683655977249146     
   2.7300000000000005E-002   -0.62173825502395630     
   2.7600000000000000E-002   -0.54974430799484253     
   2.7900000000000008E-002   -0.45365545153617859     
   2.8200000000000003E-002   -0.33796221017837524     
   2.8499999999999998E-002   -0.20854130387306213     
   2.8800000000000006E-002    -7.2351276874542236E-002
   2.9100000000000001E-002     6.3073307275772095E-002
   2.9400000000000003E-002    0.19022686779499054     
   2.9700000000000004E-002    0.30228021740913391     
   3.0000000000000006E-002    0.39358130097389221     
   3.0300000000000001E-002    0.45998927950859070     
   3.0600000000000002E-002    0.49915236234664917     
   3.0900000000000004E-002    0.51077818870544434     
   3.1199999999999999E-002    0.49670436978340149     
   3.1500000000000007E-002    0.46059939265251160     
   3.1800000000000002E-002    0.40764987468719482     
   3.2099999999999997E-002    0.34430280327796936     
   3.2400000000000005E-002    0.27781867980957031     
   3.2700000000000000E-002    0.21574151515960693     
   3.3000000000000002E-002    0.16534836590290070     
   3.3300000000000003E-002    0.13317282497882843     
   3.3599999999999998E-002    0.12456599622964859     
   3.3900000000000000E-002    0.14323492348194122     
   3.4200000000000001E-002    0.19090133905410767     
   3.4500000000000003E-002    0.26707687973976135     
   3.4799999999999998E-002    0.36893713474273682     
   3.5099999999999999E-002    0.49134188890457153     
   3.5400000000000001E-002    0.62683582305908203     
   3.5699999999999996E-002    0.76608151197433472     
   3.6000000000000004E-002    0.89846616983413696     
   3.6299999999999999E-002     1.0125566720962524     
   3.6600000000000008E-002     1.0967736244201660     
   3.6900000000000002E-002     1.1404346227645874     
   3.7199999999999997E-002     1.1347784996032715     
   3.7500000000000006E-002     1.0735973119735718     
   3.7800000000000000E-002    0.95385813713073730     
   3.8100000000000009E-002    0.77657568454742432     
   3.8400000000000004E-002    0.54712486267089844     
   3.8699999999999998E-002    0.27500471472740173     
   3.9000000000000007E-002    -2.6393093168735504E-002
   3.9300000000000002E-002   -0.34025856852531433     
   3.9600000000000003E-002   -0.64738529920578003     
   3.9900000000000005E-002   -0.92776387929916382     
   4.0200000000000000E-002    -1.1618702411651611     
   4.0500000000000001E-002    -1.3317670822143555     
   4.0800000000000003E-002    -1.4227277040481567     
   4.1100000000000005E-002    -1.4248548746109009     
   4.1399999999999999E-002    -1.3339903354644775     
   4.1700000000000008E-002    -1.1519613265991211     
   4.2000000000000003E-002   -0.88682341575622559     
   4.2299999999999997E-002   -0.55296623706817627     
   4.2600000000000006E-002   -0.17013742029666901     
   4.2900000000000001E-002    0.23798662424087524     
   4.3200000000000002E-002    0.64508426189422607     
   4.3500000000000004E-002     1.0236823558807373     
   4.3799999999999999E-002     1.3470842838287354     
   4.4100000000000000E-002     1.5911877155303955     
   4.4400000000000002E-002     1.7358642816543579     
   4.4700000000000004E-002     1.7662773132324219     
   4.4999999999999998E-002     1.6739062070846558     
   4.5300000000000000E-002     1.4569880962371826     
   4.5600000000000002E-002     1.1207027435302734     
   4.5899999999999996E-002    0.67710453271865845     
   4.6200000000000005E-002    0.14444357156753540     
   4.6500000000000000E-002   -0.45374783873558044     
   4.6799999999999994E-002    -1.0897786617279053     
   4.7100000000000003E-002    -1.7329523563385010     
   4.7399999999999998E-002    -2.3510246276855469     
   4.7700000000000006E-002    -2.9119389057159424     
   4.8000000000000001E-002    -3.3854758739471436     
   4.8300000000000010E-002    -3.7445189952850342     
   4.8600000000000004E-002    -3.9662871360778809     
   4.8899999999999999E-002    -4.0338144302368164     
   4.9200000000000008E-002    -3.9371345043182373     
   4.9500000000000002E-002    -3.6736109256744385     
   4.9800000000000011E-002    -3.2480885982513428     
   5.0100000000000006E-002    -2.6732316017150879     
   5.0400000000000000E-002    -1.9690650701522827     
   5.0700000000000009E-002    -1.1618643999099731     
   5.1000000000000004E-002   -0.28291574120521545     
   5.1299999999999998E-002    0.63244026899337769     
   5.1600000000000007E-002     1.5463583469390869     
   5.1900000000000002E-002     2.4205060005187988     
   5.2200000000000010E-002     3.2177407741546631     
   5.2500000000000005E-002     3.9033358097076416     
   5.2800000000000000E-002     4.4463052749633789     
   5.3099999999999994E-002     4.8210730552673340     
   5.3400000000000003E-002     5.0085973739624023     
   5.3699999999999998E-002     4.9968762397766113     
   5.4000000000000006E-002     4.7816491127014160     
   5.4300000000000001E-002     4.3669099807739258     
   5.4599999999999996E-002     3.7652533054351807     
   5.4900000000000004E-002     2.9978268146514893     
   5.5199999999999999E-002     2.0937418937683105     
   5.5499999999999994E-002     1.0892790555953979     
   5.5800000000000002E-002     2.6958327740430832E-002
   5.6099999999999997E-002    -1.0459830760955811     
   5.6400000000000006E-002    -2.0799045562744141     
   5.6700000000000000E-002    -3.0253620147705078     
   5.6999999999999995E-002    -3.8356835842132568     
   5.7300000000000004E-002    -4.4697160720825195     
   5.7599999999999998E-002    -4.8948183059692383     
   5.7900000000000007E-002    -5.0895447731018066     
   5.8200000000000002E-002    -5.0454692840576172     
   5.8499999999999996E-002    -4.7681212425231934     
   5.8800000000000005E-002    -4.2768378257751465     
   5.9100000000000000E-002    -3.6042356491088867     
   5.9400000000000008E-002    -2.7944624423980713     
   5.9700000000000003E-002    -1.8997689485549927     
   6.0000000000000012E-002   -0.97668075561523438     
   6.0300000000000006E-002    -8.2442745566368103E-002
   6.0600000000000001E-002    0.72889190912246704     
   6.0900000000000010E-002     1.4106191396713257     
   6.1200000000000004E-002     1.9265934228897095     
   6.1500000000000013E-002     2.2532069683074951     
   6.1800000000000008E-002     2.3808100223541260     
   6.2100000000000002E-002     2.3138833045959473     
   6.2399999999999997E-002     2.0700361728668213     
   6.2700000000000006E-002     1.6783367395401001     
   6.3000000000000000E-002     1.1771363019943237     
   6.3300000000000009E-002    0.61102747917175293     
   6.3600000000000004E-002     2.7663812041282654E-002
   6.3899999999999998E-002   -0.52476692199707031     
   6.4199999999999993E-002    -1.0001611709594727     
   6.4500000000000002E-002    -1.3570588827133179     
   6.4800000000000010E-002    -1.5605431795120239     
   6.5100000000000005E-002    -1.5834550857543945     
   6.5400000000000000E-002    -1.4074872732162476     
   6.5700000000000008E-002    -1.0242385864257812     
   6.5999999999999989E-002   -0.43553030490875244     
   6.6299999999999998E-002    0.34657311439514160     
   6.6600000000000006E-002     1.2993521690368652     
   6.6900000000000001E-002     2.3896434307098389     
   6.7199999999999996E-002     3.5748970508575439     
   6.7500000000000004E-002     4.8044223785400391     
   6.7800000000000013E-002     6.0208854675292969     
   6.8099999999999994E-002     7.1626191139221191     
   6.8400000000000002E-002     8.1665897369384766     
   6.8700000000000011E-002     8.9716777801513672     
   6.8999999999999992E-002     9.5221815109252930     
   6.9300000000000000E-002     9.7712306976318359     
   6.9600000000000009E-002     9.6839923858642578     
   6.9900000000000004E-002     9.2405042648315430     
   7.0199999999999999E-002     8.4373483657836914     
   7.0500000000000007E-002     7.2884373664855957     
   7.0800000000000016E-002     5.8246145248413086     
   7.1099999999999997E-002     4.0921235084533691     
   7.1400000000000005E-002     2.1499903202056885     
   7.1700000000000000E-002     6.6430479288101196E-002
   7.1999999999999995E-002    -2.0852544307708740     
   7.2300000000000003E-002    -4.2306785583496094     
   7.2600000000000012E-002    -6.2985029220581055     
   7.2900000000000006E-002    -8.2240228652954102     
   7.3200000000000001E-002    -9.9517021179199219     
   7.3499999999999996E-002    -11.437520980834961     
   7.3800000000000004E-002    -12.649169921875000     
   7.4099999999999999E-002    -13.565177917480469     
   7.4400000000000008E-002    -14.173938751220703     
   7.4700000000000003E-002    -14.472201347351074     
   7.5000000000000011E-002    -14.462185859680176     
   7.5299999999999992E-002    -14.148743629455566     
   7.5600000000000001E-002    -13.538615226745605     
   7.5900000000000009E-002    -12.639571189880371     
   7.6200000000000004E-002    -11.459479331970215     
   7.6499999999999999E-002    -10.007245063781738     
   7.6800000000000007E-002    -8.2953300476074219     
   7.7099999999999988E-002    -6.3426403999328613     
   7.7399999999999997E-002    -4.1765828132629395     
   7.7700000000000005E-002    -1.8352290391921997     
   7.8000000000000014E-002    0.63020700216293335     
   7.8299999999999995E-002     3.1543359756469727     
   7.8600000000000003E-002     5.6586718559265137     
   7.8900000000000012E-002     8.0547389984130859     
   7.9199999999999993E-002     10.247929573059082     
   7.9500000000000001E-002     12.142323493957520     
   7.9800000000000010E-002     13.647437095642090     
   8.0100000000000018E-002     14.685614585876465     
   8.0399999999999999E-002     15.197476387023926     
   8.0700000000000008E-002     15.147119522094727     
   8.1000000000000003E-002     14.526804924011230     
   8.1299999999999997E-002     13.358622550964355     
   8.1600000000000006E-002     11.693561553955078     
   8.1900000000000014E-002     9.6095981597900391     
   8.2199999999999995E-002     7.2078380584716797     
   8.2500000000000004E-002     4.6062479019165039     
   8.2799999999999999E-002     1.9320118427276611     
   8.3100000000000007E-002   -0.68552148342132568     
   8.3400000000000002E-002    -3.1221802234649658     
   8.3700000000000011E-002    -5.2660374641418457     
   8.4000000000000005E-002    -7.0241074562072754     
   8.4300000000000000E-002    -8.3271980285644531     
   8.4599999999999995E-002    -9.1328525543212891     
   8.4900000000000003E-002    -9.4268074035644531     
   8.5199999999999998E-002    -9.2231407165527344     
   8.5500000000000007E-002    -8.5632171630859375     
   8.5800000000000001E-002    -7.5118498802185059     
   8.6100000000000010E-002    -6.1522560119628906     
   8.6399999999999991E-002    -4.5813837051391602     
   8.6699999999999999E-002    -2.9036345481872559     
   8.7000000000000008E-002    -1.2241638898849487     
   8.7300000000000003E-002    0.35784792900085449     
   8.7599999999999997E-002     1.7544932365417480     
   8.7900000000000006E-002     2.8938093185424805     
   8.8200000000000014E-002     3.7243156433105469     
   8.8499999999999995E-002     4.2175974845886230     
   8.8800000000000004E-002     4.3684134483337402     
   8.9100000000000013E-002     4.1941938400268555     
   8.9399999999999993E-002     3.7333621978759766     
   8.9700000000000002E-002     3.0423476696014404     
   9.0000000000000011E-002     2.1900205612182617     
   9.0299999999999991E-002     1.2523201704025269     
   9.0600000000000000E-002    0.30773255228996277     
   9.0900000000000009E-002   -0.56859707832336426     
   9.1200000000000017E-002    -1.3111317157745361     
   9.1499999999999998E-002    -1.8677233457565308     
   9.1800000000000007E-002    -2.2022681236267090     
   9.2100000000000001E-002    -2.2974319458007812     
   9.2399999999999996E-002    -2.1556906700134277     
   9.2700000000000005E-002    -1.7979062795639038     
   9.3000000000000013E-002    -1.2605724334716797     
   9.3300000000000008E-002   -0.59281063079833984     
   9.3600000000000003E-002    0.14787331223487854     
   9.3899999999999997E-002    0.90092080831527710     
   9.4200000000000006E-002     1.6078858375549316     
   9.4500000000000001E-002     2.2171373367309570     
   9.4800000000000009E-002     2.6874558925628662     
   9.5100000000000004E-002     2.9911396503448486     
   9.5399999999999999E-002     3.1157748699188232     
   9.5699999999999993E-002     3.0644347667694092     
   9.6000000000000002E-002     2.8543412685394287     
   9.6300000000000011E-002     2.5143013000488281     
   9.6600000000000005E-002     2.0814425945281982     
   9.6900000000000000E-002     1.5971318483352661     
   9.7200000000000009E-002     1.1032755374908447     
   9.7499999999999989E-002    0.63824307918548584     
   9.7799999999999998E-002    0.23293679952621460     
   9.8100000000000007E-002    -9.0895950794219971E-002
   9.8400000000000015E-002   -0.32203987240791321     
   9.8699999999999996E-002   -0.46017056703567505     
   9.9000000000000005E-002   -0.51490634679794312     
   9.9300000000000013E-002   -0.50385874509811401     
   9.9599999999999994E-002   -0.45011782646179199     
   9.9900000000000003E-002   -0.37937253713607788     
  0.10020000000000001        -0.31664019823074341     
  0.10049999999999999        -0.28394314646720886     
  0.10080000000000000        -0.29874727129936218     
  0.10110000000000001        -0.37176597118377686     
  0.10140000000000000        -0.50627118349075317     
  0.10170000000000000        -0.69907921552658081     
  0.10200000000000001        -0.94117283821105957     
  0.10230000000000002         -1.2186365127563477     
  0.10260000000000000         -1.5150572061538696     
  0.10290000000000001         -1.8131256103515625     
  0.10320000000000000         -2.0958065986633301     
  0.10350000000000001         -2.3487420082092285     
  0.10380000000000000         -2.5612735748291016     
  0.10410000000000001         -2.7259743213653564     
  0.10440000000000001         -2.8391950130462646     
  0.10470000000000000         -2.9018721580505371     
  0.10500000000000000         -2.9181647300720215     
  0.10530000000000000         -2.8935787677764893     
  0.10560000000000000         -2.8350715637207031     
  0.10590000000000001         -2.7506024837493896     
  0.10620000000000000         -2.6470847129821777     
  0.10650000000000001         -2.5297181606292725     
  0.10679999999999999         -2.4022333621978760     
  0.10710000000000000         -2.2663550376892090     
  0.10740000000000001         -2.1219089031219482     
  0.10770000000000000         -1.9675663709640503     
  0.10800000000000000         -1.8009850978851318     
  0.10830000000000001         -1.6195962429046631     
  0.10859999999999999         -1.4218212366104126     
  0.10890000000000000         -1.2070991992950439     
  0.10920000000000001        -0.97597223520278931     
  0.10950000000000001        -0.73032748699188232     
  0.10979999999999999        -0.47305294871330261     
  0.11009999999999999        -0.20705166459083557     
  0.11040000000000001          6.5246909856796265E-002
  0.11070000000000001         0.34233498573303223     
  0.11100000000000000         0.62471020221710205     
  0.11130000000000000         0.91468524932861328     
  0.11160000000000002          1.2153669595718384     
  0.11190000000000001          1.5304418802261353     
  0.11220000000000001          1.8634573221206665     
  0.11250000000000000          2.2154071331024170     
  0.11280000000000000          2.5835826396942139     
  0.11309999999999999          2.9619297981262207     
  0.11340000000000001          3.3409059047698975     
  0.11369999999999998          3.7078297138214111     
  0.11400000000000000          4.0484972000122070     
  0.11430000000000000          4.3497347831726074     
  0.11460000000000002          4.6018776893615723     
  0.11489999999999999          4.8006434440612793     
  0.11520000000000001          4.9489016532897949     
  0.11550000000000001          5.0560612678527832     
  0.11580000000000000          5.1370873451232910     
  0.11609999999999999          5.2107939720153809     
  0.11640000000000002          5.2956266403198242     
  0.11670000000000001          5.4051222801208496     
  0.11700000000000001          5.5441946983337402     
  0.11730000000000000          5.7063083648681641     
  0.11760000000000000          5.8720026016235352     
  0.11789999999999999          6.0092883110046387     
  0.11820000000000001          6.0762190818786621     
  0.11850000000000001          6.0257678031921387     
  0.11880000000000000          5.8124036788940430     
  0.11910000000000000          5.3985538482666016     
  0.11940000000000002          4.7606019973754883     
  0.11970000000000001          3.8937587738037109     
  0.12000000000000001          2.8145177364349365     
  0.12030000000000000          1.5601429939270020     
  0.12060000000000000         0.18398433923721313     
  0.12089999999999999         -1.2502713203430176     
  0.12119999999999999         -2.6770734786987305     
  0.12150000000000001         -4.0391836166381836     
  0.12180000000000001         -5.2962331771850586     
  0.12210000000000000         -6.4315876960754395     
  0.12239999999999999         -7.4563894271850586     
  0.12270000000000002         -8.4090871810913086     
  0.12300000000000001         -9.3506345748901367     
  0.12330000000000001         -10.355442047119141     
  0.12360000000000000         -11.498540878295898     
  0.12390000000000000         -12.841245651245117     
  0.12419999999999999         -14.415849685668945     
  0.12450000000000001         -16.211313247680664     
  0.12480000000000001         -18.164390563964844     
  0.12509999999999999         -20.155942916870117     
  0.12540000000000001         -22.012397766113281     
  0.12570000000000003         -23.515083312988281     
  0.12600000000000000         -24.418018341064453     
  0.12630000000000002         -24.471181869506836     
  0.12659999999999999         -23.444599151611328     
  0.12690000000000001         -21.156345367431641     
  0.12719999999999998         -17.500270843505859     
  0.12750000000000000         -12.465106964111328     
  0.12780000000000002         -6.1468949317932129     
  0.12809999999999999          1.2443675994873047     
  0.12840000000000001          9.3914699554443359     
  0.12869999999999998          17.889715194702148     
  0.12900000000000000          26.273239135742188     
  0.12930000000000003          34.044994354248047     
  0.12959999999999999          40.716087341308594     
  0.12990000000000002          45.847232818603516     
  0.13019999999999998          49.082668304443359     
  0.13050000000000000          50.176395416259766     
  0.13080000000000003          49.015110015869141     
  0.13109999999999999          45.628547668457031     
  0.13140000000000002          40.185420989990234     
  0.13169999999999998          32.980243682861328     
  0.13200000000000001          24.412084579467773     
  0.13229999999999997          14.954138755798340     
  0.13260000000000000          5.1193666458129883     
  0.13290000000000002         -4.5750641822814941     
  0.13319999999999999         -13.641928672790527     
  0.13350000000000001         -21.653163909912109     
  0.13380000000000003         -28.264005661010742     
  0.13410000000000000         -33.228202819824219     
  0.13440000000000002         -36.408241271972656     
  0.13469999999999999         -37.774879455566406     
  0.13500000000000001         -37.399280548095703     
  0.13529999999999998         -35.441886901855469     
  0.13560000000000000         -32.135673522949219     
  0.13590000000000002         -27.765256881713867     
  0.13619999999999999         -22.645996093750000     
  0.13650000000000001         -17.103733062744141     
  0.13680000000000003         -11.453845977783203     
  0.13710000000000000         -5.9844975471496582     
  0.13740000000000002        -0.94311642646789551     
  0.13769999999999999          3.4734282493591309     
  0.13800000000000001          7.1257605552673340     
  0.13829999999999998          9.9340801239013672     
  0.13860000000000000          11.874225616455078     
  0.13890000000000002          12.972796440124512     
  0.13919999999999999          13.300725936889648     
  0.13950000000000001          12.961905479431152     
  0.13979999999999998          12.081786155700684     
  0.14010000000000000          10.796638488769531     
  0.14040000000000002          9.2438116073608398     
  0.14069999999999999          7.5533742904663086     
  0.14100000000000001          5.8401889801025391     
  0.14130000000000004          4.1993970870971680     
  0.14160000000000000          2.7046732902526855     
  0.14189999999999997          1.4076238870620728     
  0.14219999999999999         0.33828195929527283     
  0.14250000000000002        -0.49212676286697388     
  0.14279999999999998         -1.0880342721939087     
  0.14310000000000000         -1.4663691520690918     
  0.14339999999999997         -1.6527968645095825     
  0.14369999999999999         -1.6792341470718384     
  0.14400000000000002         -1.5798060894012451     
  0.14429999999999998         -1.3890905380249023     
  0.14460000000000001         -1.1405037641525269     
  0.14490000000000003        -0.86408281326293945     
  0.14520000000000000        -0.58578807115554810     
  0.14550000000000002        -0.32661756873130798     
  0.14579999999999999        -0.10162078589200974     
  0.14610000000000001          7.9473569989204407E-002
  0.14640000000000003         0.21168190240859985     
  0.14670000000000000         0.29492443799972534     
  0.14699999999999996         0.33344718813896179     
  0.14729999999999999         0.33387044072151184     
  0.14760000000000001         0.30368173122406006     
  0.14789999999999998         0.25174027681350708     
  0.14820000000000000         0.18744306266307831     