  -1.4999999999999999E-002     0.0000000000000000     
  -1.4700000000000000E-002     6.8937581747786784E-030
  -1.4400000000000000E-002    -5.7934510959436054E-025
  -1.4100000000000000E-002    -1.7482121410070705E-021
  -1.3800000000000000E-002    -1.0940018904123013E-019
  -1.3500000000000000E-002    -1.5024006131442947E-019
  -1.3200000000000000E-002     1.1889361109107413E-017
  -1.2899999999999998E-002     2.7710080388074301E-017
  -1.2600000000000000E-002    -3.2944389224632538E-016
  -1.2299999999999998E-002    -7.6084411373554748E-016
  -1.2000000000000000E-002     3.5398562825325186E-015
  -1.1699999999999999E-002     4.3366490249586007E-015
  -1.1399999999999999E-002     5.1553711688772795E-015
  -1.1099999999999999E-002     2.7360159830133804E-014
  -1.0799999999999999E-002    -4.7383496540128859E-013
  -1.0499999999999999E-002    -2.6450792016927619E-013
  -1.0199999999999999E-002     4.8731080652977564E-012
  -9.8999999999999991E-003    -1.8311055133752166E-012
  -9.5999999999999992E-003    -2.0799727877159304E-011
  -9.2999999999999992E-003     2.1167847158386418E-011
  -8.9999999999999993E-003     2.9063823824227569E-011
  -8.6999999999999994E-003    -5.7386840965891699E-011
  -8.3999999999999995E-003     4.9373529653505223E-011
  -8.0999999999999996E-003     1.1725364309284596E-011
  -7.7999999999999988E-003    -1.9202311720934383E-010
  -7.4999999999999997E-003     1.1111515272363406E-010
  -7.1999999999999998E-003     2.1769008554168808E-010
  -6.8999999999999981E-003     3.7161825885135850E-011
  -6.5999999999999982E-003    -2.6527827797828241E-010
  -6.3000000000000000E-003    -8.0794347384986603E-011
  -6.0000000000000001E-003     3.6730059438882274E-010
  -5.6999999999999985E-003    -1.0150922498340708E-009
  -5.3999999999999986E-003    -1.0774284956899750E-009
  -5.1000000000000004E-003     2.7988460889815470E-009
  -4.7999999999999987E-003     6.1900544294608600E-009
  -4.5000000000000005E-003    -5.6511041100790077E-009
  -4.1999999999999989E-003    -1.5414687495497451E-008
  -3.8999999999999990E-003     9.6741979354302431E-009
  -3.5999999999999990E-003     2.2909169389462296E-008
  -3.2999999999999991E-003    -1.5829542595072339E-008
  -2.9999999999999992E-003    -4.8306623769940051E-008
  -2.6999999999999993E-003     5.6124907964313144E-008
  -2.3999999999999994E-003     1.5337406438107930E-007
  -2.0999999999999977E-003    -2.2356610375053751E-007
  -1.7999999999999995E-003    -4.1364759760160125E-007
  -1.4999999999999979E-003     7.0618417472860047E-007
  -1.1999999999999997E-003     9.0966218462152566E-007
  -8.9999999999999976E-004    -1.8244669326270864E-006
  -5.9999999999999810E-004    -2.2380747116983499E-006
  -2.9999999999999992E-004     3.8725806916176542E-006
   0.0000000000000000          7.5243285735387294E-006
   3.0000000000000165E-004    -6.5287425271642961E-006
   5.9999999999999984E-004    -2.6942317850481030E-005
   9.0000000000000149E-004     7.1207383413918776E-006
   1.2000000000000031E-003     1.4801090718313294E-004
   1.5000000000000013E-003     3.7632445527517946E-004
   1.8000000000000030E-003     6.4322793069567993E-004
   2.1000000000000012E-003     9.3569558782117049E-004
   2.3999999999999994E-003     1.3069725454005268E-003
   2.7000000000000010E-003     1.8983584906138301E-003
   2.9999999999999992E-003     2.9144479960970110E-003
   3.3000000000000008E-003     4.5434093752424742E-003
   3.6000000000000025E-003     6.9418190892917842E-003
   3.9000000000000007E-003     1.0347003180528946E-002
   4.2000000000000023E-003     1.5159806986628777E-002
   4.5000000000000005E-003     2.1915850218310329E-002
   4.7999999999999987E-003     3.1263548466543556E-002
   5.1000000000000004E-003     4.3967345075314634E-002
   5.4000000000000020E-003     6.0882939795855906E-002
   5.7000000000000037E-003     8.2931056644532042E-002
   5.9999999999999984E-003    0.11105860895538333     
   6.3000000000000000E-003    0.14614227284854131     
   6.6000000000000017E-003    0.18882948539462152     
   6.9000000000000034E-003    0.23932259465345496     
   7.2000000000000015E-003    0.29712854686224865     
   7.5000000000000032E-003    0.36079257507988771     
   7.8000000000000014E-003    0.42758550703089426     
   8.0999999999999996E-003    0.49314345082802369     
   8.4000000000000012E-003    0.55116419178606790     
   8.7000000000000029E-003    0.59321789845818529     
   9.0000000000000011E-003    0.60876431991555791     
   9.2999999999999992E-003    0.58540943674632295     
   9.6000000000000009E-003    0.50940326188296847     
   9.8999999999999991E-003    0.36640595701746292     
   1.0200000000000001E-002    0.14262720189893852     
   1.0500000000000002E-002   -0.17344929788719199     
   1.0800000000000004E-002   -0.58921709179849735     
   1.1099999999999999E-002    -1.1058970973383069     
   1.1400000000000000E-002    -1.7167485824861473     
   1.1700000000000002E-002    -2.4054317481242720     
   1.2000000000000004E-002    -3.1446454495915503     
   1.2300000000000002E-002    -3.8959486318210139     
   1.2600000000000000E-002    -4.6105007192592780     
   1.2900000000000002E-002    -5.2310086403071523     
   1.3200000000000000E-002    -5.6950123665209276     
   1.3500000000000002E-002    -5.9391494518389436     
   1.3800000000000003E-002    -5.9042243785645780     
   1.4100000000000001E-002    -5.5412534335651884     
   1.4400000000000000E-002    -4.8172024901715531     
   1.4700000000000001E-002    -3.7198780378708118     
   1.4999999999999999E-002    -2.2619825589254106     
   1.5300000000000001E-002   -0.48272563357114251     
   1.5600000000000003E-002     1.5520592954578234     
   1.5899999999999997E-002     3.7530107347643309     
   1.6199999999999999E-002     6.0117166838459752     
   1.6500000000000001E-002     8.2083579968776519     
   1.6800000000000002E-002     10.219644273153733     
   1.7100000000000004E-002     11.928008037481163     
   1.7400000000000006E-002     13.231017310363143     
   1.7700000000000000E-002     14.047671609829649     
   1.8000000000000002E-002     14.325985214613013     
   1.8300000000000004E-002     14.045161824704110     
   1.8600000000000005E-002     13.216044520069318     
   1.8900000000000000E-002     11.879979211777311     
   1.9200000000000002E-002     10.102766854511316     
   1.9500000000000003E-002     7.9695964716196457     
   1.9799999999999998E-002     5.5768726142447136     
   2.0100000000000000E-002     3.0242258597778999     
   2.0400000000000001E-002    0.40805787484526235     
   2.0700000000000003E-002    -2.1845559655024971     
   2.0999999999999998E-002    -4.6791728873335501     
   2.1299999999999999E-002    -7.0161122109508938     
   2.1600000000000001E-002    -9.1496122510329201     
   2.1900000000000003E-002    -11.046014624996133     
   2.2200000000000004E-002    -12.680498285110559     
   2.2500000000000006E-002    -14.032373707053296     
   2.2800000000000001E-002    -15.082278983432445     
   2.3100000000000002E-002    -15.807993520773664     
   2.3400000000000004E-002    -16.183931200342613     
   2.3699999999999999E-002    -16.180594987740790     
   2.4000000000000000E-002    -15.766944650903497     
   2.4300000000000002E-002    -14.914252228983486     
   2.4599999999999997E-002    -13.600728123492516     
   2.4900000000000005E-002    -11.818562477233275     
   2.5200000000000000E-002    -9.5784127691994314     
   2.5499999999999995E-002    -6.9155196207694587     
   2.5800000000000003E-002    -3.8930314420225898     
   2.6099999999999998E-002   -0.60191836955245037     
   2.6400000000000007E-002     2.8392636446271027     
   2.6700000000000002E-002     6.2905371883583712     
   2.6999999999999996E-002     9.5968660257259444     
   2.7300000000000005E-002     12.599381690047551     
   2.7600000000000000E-002     15.145190982862630     
   2.7900000000000008E-002     17.099995345095977     
   2.8200000000000003E-002     18.359160270509506     
   2.8499999999999998E-002     18.856437547462463     
   2.8800000000000006E-002     18.570312274639605     
   2.9100000000000001E-002     17.525951007164593     
   2.9400000000000003E-002     15.795727183450538     
   2.9700000000000004E-002     13.490971624585455     
   3.0000000000000006E-002     10.755727321853783     
   3.0300000000000001E-002     7.7539558370127679     
   3.0600000000000002E-002     4.6556228869960137     
   3.0900000000000004E-002     1.6241422567675556     
   3.1199999999999999E-002    -1.1986630339273887     
   3.1500000000000007E-002    -3.7019169096201807     
   3.1800000000000002E-002    -5.8158233846311873     
   3.2099999999999997E-002    -7.5153298932750943     
   3.2400000000000005E-002    -8.8209975587832901     
   3.2700000000000000E-002    -9.7966357182025945     
   3.3000000000000002E-002    -10.538678791634425     
   3.3300000000000003E-002    -11.166660434693995     
   3.3599999999999998E-002    -11.808552881398100     
   3.3900000000000000E-002    -12.582007450936317     
   3.4200000000000001E-002    -13.579472880059598     
   3.4500000000000003E-002    -14.849875566171818     
   3.4799999999999998E-002    -16.385453900905759     
   3.5099999999999999E-002    -18.113323625163730     
   3.5400000000000001E-002    -19.889810018612820     
   3.5699999999999996E-002    -21.506726374650100     
   3.6000000000000004E-002    -22.701538511195970     
   3.6299999999999999E-002    -23.177577498125856     
   3.6600000000000008E-002    -22.632889890619367     
   3.6900000000000002E-002    -20.788521955453120     
   3.7199999999999997E-002    -17.426305210270584     
   3.7500000000000006E-002    -12.420351007350177     
   3.7800000000000000E-002    -5.7663605417110944     
   3.8100000000000009E-002     2.3990487473791973     
   3.8400000000000004E-002     11.790041097573592     
   3.8699999999999998E-002     21.976331315611901     
   3.9000000000000007E-002     32.406545189325925     
   3.9300000000000002E-002     42.439199233882846     
   3.9600000000000003E-002     51.391171786177892     
   3.9900000000000005E-002     58.589703087550561     
   4.0200000000000000E-002     63.431002355301757     
   4.0500000000000001E-002     65.432788108590103     
   4.0800000000000003E-002     64.279788275685519     
   4.1100000000000005E-002     59.860574428218001     
   4.1399999999999999E-002     52.279099749110856     
   4.1700000000000008E-002     41.859825679238611     
   4.2000000000000003E-002     29.124467806000894     
   4.2299999999999997E-002     14.755632804288211     
   4.2600000000000006E-002   -0.44618069443555441     
   4.2900000000000001E-002    -15.632408187316884     
   4.3200000000000002E-002    -29.955605611472720     
   4.3500000000000004E-002    -42.638394678638633     
   4.3799999999999999E-002    -53.028163909663817     
   4.4100000000000000E-002    -60.628733803768910     
   4.4400000000000002E-002    -65.143517465217997     
   4.4700000000000004E-002    -66.476272395920432     
   4.4999999999999998E-002    -64.729373102480281     
   4.5300000000000000E-002    -60.194023339878669     
   4.5600000000000002E-002    -53.302190187398480     
   4.5899999999999996E-002    -44.601633220226290     
   4.6200000000000005E-002    -34.701755012593935     
   4.6500000000000000E-002    -24.224213079698075     
   4.6799999999999994E-002    -13.771502387463102     
   4.7100000000000003E-002    -3.8729424752559680     
   4.7399999999999998E-002     5.0317126868677065     
   4.7700000000000006E-002     12.614028533483662     
   4.8000000000000001E-002     18.671087830552665     
   4.8300000000000010E-002     23.109864371468746     
   4.8600000000000004E-002     25.949277922812882     
   4.8899999999999999E-002     27.295954442879008     
   4.9200000000000008E-002     27.322386478492376     
   4.9500000000000002E-002     26.248640891676075     
   4.9800000000000011E-002     24.315269962752495     
   5.0100000000000006E-002     21.765857686437556     
   5.0400000000000000E-002     18.834325054496801     
   5.0700000000000009E-002     15.725935642072230     
   5.1000000000000004E-002     12.618144193745497     
   5.1299999999999998E-002     9.6530134345571810     
   5.1600000000000007E-002     6.9349873213984239     
   5.1900000000000002E-002     4.5402314762749185     
   5.2200000000000010E-002     2.5103398599821318     
   5.2500000000000005E-002    0.86249091018402169     
   5.2800000000000000E-002   -0.40665423179900273     
   5.3099999999999994E-002    -1.3223083769903461     
   5.3400000000000003E-002    -1.9190248898272060     
   5.3699999999999998E-002    -2.2450491027315405     
   5.4000000000000006E-002    -2.3533404549694641     
   5.4300000000000001E-002    -2.2978329079879138     
   5.4599999999999996E-002    -2.1334766210924450     
   5.4900000000000004E-002    -1.9070012232479883     
   5.5199999999999999E-002    -1.6586565118275338     
   5.5499999999999994E-002    -1.4189601614921603     
   5.5800000000000002E-002    -1.2072804100190719     
   5.6099999999999997E-002    -1.0327311665342780     
   5.6400000000000006E-002   -0.89723277286437675     
   5.6700000000000000E-002   -0.79511893383066035     
   5.6999999999999995E-002   -0.71865342141528288     
   5.7300000000000004E-002   -0.66151297148528077     
   5.7599999999999998E-002   -0.61467394227213124     
   5.7900000000000007E-002   -0.57785383842345084     
   5.8200000000000002E-002   -0.55010235147852171     
   5.8499999999999996E-002   -0.53437672290989546     
   5.8800000000000005E-002   -0.53758146672067753     
   5.9100000000000000E-002   -0.55969232624152099     
   5.9400000000000008E-002   -0.60616632390322422     
   5.9700000000000003E-002   -0.67341430822830262     
   6.0000000000000012E-002   -0.75489924386334195     
   6.0300000000000006E-002   -0.84520847576615310     
   6.0600000000000001E-002   -0.92917147161654157     
   6.0900000000000010E-002   -0.99886586696603530     
   6.1200000000000004E-002    -1.0440034734447323     
   6.1500000000000013E-002    -1.0573236118515332     
   6.1800000000000008E-002    -1.0403264726357939     
   6.2100000000000002E-002   -0.99263860538939852     
   6.2399999999999997E-002   -0.92303832524207508     
   6.2700000000000006E-002   -0.84080641480700891     
   6.3000000000000000E-002   -0.75390208651157309     
   6.3300000000000009E-002   -0.67330935094970101     
   6.3600000000000004E-002   -0.60344493913432551     
   6.3899999999999998E-002   -0.54642757960285948     
   6.4199999999999993E-002   -0.50255552737281839     
   6.4500000000000002E-002   -0.46612087554599668     
   6.4800000000000010E-002   -0.43186982469735069     
   6.5100000000000005E-002   -0.39505625526649013     
   6.5400000000000000E-002   -0.34869431601974710     
   6.5700000000000008E-002   -0.29357495897711450     
   6.5999999999999989E-002   -0.22964215717783798     
   6.6299999999999998E-002   -0.15961694550019345     
   6.6600000000000006E-002    -9.2787097127997153E-002
   6.6900000000000001E-002    -3.1546910235854542E-002
   6.7199999999999996E-002     1.5094926053036417E-002
   6.7500000000000004E-002     4.3958521630349523E-002
   6.7800000000000013E-002     5.6024005913126285E-002
   6.8099999999999994E-002     4.9369145618615384E-002
   6.8400000000000002E-002     3.3486140931818564E-002
   6.8700000000000011E-002     1.1621601036279738E-002
   6.8999999999999992E-002    -8.9651350028192578E-003
   6.9300000000000000E-002    -1.9616207095263627E-002
   6.9600000000000009E-002    -1.9776744052600864E-002
   6.9900000000000004E-002    -4.6194666619271130E-003
   7.0199999999999999E-002     2.3086789453166279E-002
   7.0500000000000007E-002     5.9211521673569134E-002
   7.0800000000000016E-002    0.10061404975618160     
   7.1099999999999997E-002    0.13930460746485673     
   7.1400000000000005E-002    0.17261799077381212     
   7.1700000000000000E-002    0.19734961937562012     
   7.1999999999999995E-002    0.21131233633170954     
   7.2300000000000003E-002    0.21733654090643384     
   7.2600000000000012E-002    0.21741631339335044     
   7.2900000000000006E-002    0.21508682166712134     
   7.3200000000000001E-002    0.21541681752501418     
   7.3499999999999996E-002    0.21952055233452050     
   7.3800000000000004E-002    0.22801197574683840     
   7.4099999999999999E-002    0.24050189495934671     
   7.4400000000000008E-002    0.25136281367230240     
   7.4700000000000003E-002    0.25840453011181541     
   7.5000000000000011E-002    0.25545472658012258     
   7.5299999999999992E-002    0.23815563004881568     
   7.5600000000000001E-002    0.20678892668478088     
   7.5900000000000009E-002    0.15864002885854411     
   7.6200000000000004E-002    0.10050232163055473     
   7.6499999999999999E-002     3.7214907056038804E-002
   7.6800000000000007E-002    -2.3411321595820711E-002
   7.7099999999999988E-002    -7.0388219974909572E-002
   7.7399999999999997E-002    -9.8426164016079731E-002
   7.7700000000000005E-002    -9.9685055509563192E-002
   7.8000000000000014E-002    -7.2685047419946969E-002
   7.8299999999999995E-002    -1.9460234197937076E-002
   7.8600000000000003E-002     5.4966297868839886E-002
   7.8900000000000012E-002    0.14018242256873759     
   7.9199999999999993E-002    0.22465326900359006     
   7.9500000000000001E-002    0.29546820371105198     
   7.9800000000000010E-002    0.34160279673002458     
   8.0100000000000018E-002    0.35373489560156646     
   8.0399999999999999E-002    0.32884746832695555     
   8.0700000000000008E-002    0.26712497584340866     
   8.1000000000000003E-002    0.17543675334207645     
   8.1299999999999997E-002     6.7026797815740391E-002
   8.1600000000000006E-002    -4.6030472898805908E-002
   8.1900000000000014E-002   -0.14398497503362451     
   8.2199999999999995E-002   -0.21360683505132139     
   8.2500000000000004E-002   -0.24301712923334406     
   8.2799999999999999E-002   -0.22304891729203202     
   8.3100000000000007E-002   -0.15858635370849417     
   8.3400000000000002E-002    -5.3249463039358069E-002
   8.3700000000000011E-002     7.5157465465540252E-002
   8.4000000000000005E-002    0.20552807544137730     
   8.4300000000000000E-002    0.31705933044098966     
   8.4599999999999995E-002    0.38067399728669749     
   8.4900000000000003E-002    0.38000298248535991     
   8.5199999999999998E-002    0.29980931447715520     
   8.5500000000000007E-002    0.13473143558617906     
   8.5800000000000001E-002   -0.10461928202623394     
   8.6100000000000010E-002   -0.40266794516626891     
   8.6399999999999991E-002   -0.72735609859799943     
   8.6699999999999999E-002    -1.0396060694207563     
   8.7000000000000008E-002    -1.2993536557412178     
   8.7300000000000003E-002    -1.4612492380693283     
   8.7599999999999997E-002    -1.4910504144896208     
   8.7900000000000006E-002    -1.3650943067199250     
   8.8200000000000014E-002    -1.0706406695083075     
   8.8499999999999995E-002   -0.62086490770162328     
   8.8800000000000004E-002    -4.1178887709477863E-002
   8.9100000000000013E-002    0.62360309112413237     
   8.9399999999999993E-002     1.3105487181714075     
   8.9700000000000002E-002     1.9582195590144877     
   9.0000000000000011E-002     2.4941370809095327     
   9.0299999999999991E-002     2.8588661700405531     
   9.0600000000000000E-002     3.0078819384317370     
   9.0900000000000009E-002     2.9072252664311549     
   9.1200000000000017E-002     2.5595629734750531     
   9.1499999999999998E-002     1.9805167844957481     
   9.1800000000000007E-002     1.2128027191395887     
   9.2100000000000001E-002    0.32236573058249718     
   9.2399999999999996E-002   -0.62485333590023728     
   9.2700000000000005E-002    -1.5435076289184835     
   9.3000000000000013E-002    -2.3623173370257646     
   9.3300000000000008E-002    -3.0176438223220785     
   9.3600000000000003E-002    -3.4561719555780996     
   9.3899999999999997E-002    -3.6564605811033957     
   9.4200000000000006E-002    -3.6065135495818090     
   9.4500000000000001E-002    -3.3223829647564855     
   9.4800000000000009E-002    -2.8376350681389440     
   9.5100000000000004E-002    -2.1931990872858336     
   9.5399999999999999E-002    -1.4476287236678189     
   9.5699999999999993E-002   -0.65530237388518486     
   9.6000000000000002E-002    0.12926093547087802     
   9.6300000000000011E-002    0.85416918440012513     
   9.6600000000000005E-002     1.4824136398063530     
   9.6900000000000000E-002     1.9823879518717078     
   9.7200000000000009E-002     2.3352108378447056     
   9.7499999999999989E-002     2.5357178273451240     
   9.7799999999999998E-002     2.5831872507147366     
   9.8100000000000007E-002     2.4907340595703245     
   9.8400000000000015E-002     2.2764726120567804     
   9.8699999999999996E-002     1.9607914950437042     
   9.9000000000000005E-002     1.5742998859677932     
   9.9300000000000013E-002     1.1424648415978709     
   9.9599999999999994E-002    0.69408209665621712     
   9.9900000000000003E-002    0.25893734887845454     
  0.10020000000000001        -0.14333541528811278     
  0.10049999999999999        -0.48902337652550099     
  0.10080000000000000        -0.76611359527138490     
  0.10110000000000001        -0.96653576912298256     
  0.10140000000000000         -1.0855707868495710     
  0.10170000000000000         -1.1310772673124001     
  0.10200000000000001         -1.1082868207833001     
  0.10230000000000002         -1.0312083789654709     
  0.10260000000000000        -0.91488777901557850     
  0.10290000000000001        -0.77230426729746871     
  0.10320000000000000        -0.61954647913103544     
  0.10350000000000001        -0.46708662233757714     
  0.10380000000000000        -0.32388843822959856     
  0.10410000000000001        -0.19580740936094099     
  0.10440000000000001         -8.5653493717549267E-002
  0.10470000000000000          6.7706038983774697E-003
  0.10500000000000000          8.1369353677956058E-002
  0.10530000000000000         0.14088865470620338     
  0.10560000000000000         0.18729068345416078     
  0.10590000000000001         0.22018081011743385     
  0.10620000000000000         0.24298267654152267     
  0.10650000000000001         0.25296118059712214     
  0.10679999999999999         0.25191705043283119     
  0.10710000000000000         0.24112847814282889     
  0.10740000000000001         0.21848632722747285     
  0.10770000000000000         0.19056988507557043     
  0.10800000000000000         0.15560258068341093     
  0.10830000000000001         0.11853002913335819     
  0.10859999999999999          8.3974156543610956E-002
  0.10890000000000000          5.1302285888425114E-002
  0.10920000000000001          2.7382846544311334E-002
  0.10950000000000001          9.3108027121482362E-003
  0.10979999999999999         -1.5720548134244700E-003
  0.11009999999999999         -5.2674945146619634E-003
  0.11040000000000001         -6.7443628918029130E-003
  0.11070000000000001         -3.9140161858425282E-003
  0.11100000000000000         -1.6094160364800159E-003
  0.11130000000000000         -1.8349255033905942E-004
  0.11160000000000002          1.2717529083310086E-003
  0.11190000000000001          8.2506417533674548E-004
  0.11220000000000001          1.5455308500118004E-003
  0.11250000000000000          3.6256314700466863E-003
  0.11280000000000000          7.7901124812944644E-003
  0.11309999999999999          1.5398734048172935E-002
  0.11340000000000001          2.4967408197911656E-002
  0.11369999999999998          3.5666625600990987E-002
  0.11400000000000000          4.6273039885693423E-002
  0.11430000000000000          5.3395473401794291E-002
  0.11460000000000002          5.6410255836186973E-002
  0.11489999999999999          5.3868991491714979E-002
  0.11520000000000001          4.4264602781405316E-002
  0.11550000000000001          3.0462862662362755E-002
  0.11580000000000000          1.1695520196416426E-002
  0.11609999999999999         -8.4169731222440425E-003
  0.11640000000000002         -2.7334630575780450E-002
  0.11670000000000001         -4.4286484735788889E-002
  0.11700000000000001         -5.5607133522913577E-002
  0.11730000000000000         -6.2929391228245812E-002
  0.11760000000000000         -6.4823282055372466E-002
  0.11789999999999999         -6.2984248132215370E-002
  0.11820000000000001         -5.9767014386441789E-002
  0.11850000000000001         -5.4736308952396118E-002
  0.11880000000000000         -5.1437849949335868E-002
  0.11910000000000000         -4.8440172367273604E-002
  0.11940000000000002         -4.6712200334292575E-002
  0.11970000000000001         -4.4615103018132318E-002
  0.12000000000000001         -4.0665389624856108E-002
  0.12030000000000000         -3.5227042214437398E-002
  0.12060000000000000         -2.5174585713088060E-002
  0.12089999999999999         -1.3300089716491159E-002
  0.12119999999999999          2.1004785286954375E-003
  0.12150000000000001          1.8308963362247521E-002
  0.12180000000000001          3.2413124216161160E-002
  0.12210000000000000          4.4348861191750188E-002
  0.12239999999999999          4.8853730402309781E-002
  0.12270000000000002          4.8432724151109774E-002
  0.12300000000000001          4.0745594958235376E-002
  0.12330000000000001          2.6911627974224805E-002
  0.12360000000000000          1.1168010863616462E-002
  0.12390000000000000         -7.6666152703153134E-003
  0.12419999999999999         -2.3348499626911767E-002
  0.12450000000000001         -3.5848469109109660E-002
  0.12480000000000001         -4.3844455090651824E-002
  0.12509999999999999         -4.4779661288411043E-002
  0.12540000000000001         -4.2497086987827615E-002
  0.12570000000000003         -3.5852337411617641E-002
  0.12600000000000000         -2.7678098149238828E-002
  0.12630000000000002         -2.0445705373130982E-002
  0.12659999999999999         -1.3902107402232543E-002
  0.12690000000000001         -1.0095240471241634E-002
  0.12719999999999998         -8.2819046149566894E-003
  0.12750000000000000         -6.6362923354578093E-003
  0.12780000000000002         -5.2968739522560315E-003
  0.12809999999999999         -1.5127941923635813E-003
  0.12840000000000001          5.8753838740617514E-003
  0.12869999999999998          1.4984836712877203E-002
  0.12900000000000000          2.8526555189594238E-002
  0.12930000000000003          4.2189183426372345E-002
  0.12959999999999999          5.4532364307173897E-002
  0.12990000000000002          6.5120597702033045E-002
  0.13019999999999998          6.7512168293421854E-002
  0.13050000000000000          6.5281880178911622E-002
  0.13080000000000003          5.5041338397988082E-002
  0.13109999999999999          3.7772418836714561E-002
  0.13140000000000002          1.8974370119421186E-002
  0.13169999999999998         -4.4315409008068851E-003
  0.13200000000000001         -2.3725802276392205E-002
  0.13229999999999997         -3.9470135774400950E-002
  0.13260000000000000         -5.0402489973651488E-002
  0.13290000000000002         -5.1369771653178020E-002
  0.13319999999999999         -4.9073894255562855E-002
  0.13350000000000001         -3.9759907769964076E-002
  0.13380000000000003         -2.7599246990544099E-002
  0.13410000000000000         -1.6601496825813099E-002
  0.13440000000000002         -4.3054632656325253E-003
  0.13469999999999999          2.6292992155920736E-003
  0.13500000000000001          7.2599433549330739E-003
  0.13529999999999998          9.9956606890552191E-003
  0.13560000000000000          9.1093628442653340E-003
  0.13590000000000002          1.0903707617549996E-002
  0.13619999999999999          1.3142788114059667E-002
  0.13650000000000001          1.7238823910134593E-002
  0.13680000000000003          2.6135341565504011E-002
  0.13710000000000000          3.4217593653123102E-002
  0.13740000000000002          4.4042012119689167E-002
  0.13769999999999999          5.2036563310409747E-002
  0.13800000000000001          5.3511186411100531E-002
  0.13829999999999998          5.2048416502525230E-002
  0.13860000000000000          4.0974662383227667E-002
  0.13890000000000002          2.4426872554802581E-002
  0.13919999999999999          4.7698674449988820E-003
  0.13950000000000001         -2.0584822984401341E-002
  0.13979999999999998         -4.0875429807479824E-002
  0.14010000000000000         -5.9704220731855440E-002
  0.14040000000000002         -7.1402220530847549E-002
  0.14069999999999999         -7.2472660767528785E-002
  0.14100000000000001         -6.9407164257952902E-002
  0.14130000000000004         -5.5009236934867312E-002
  0.14160000000000000         -3.8103772458583651E-002
  0.14189999999999997         -1.9435416252183590E-002
  0.14219999999999999          8.5432860123668686E-004
  0.14250000000000002          1.3598141437263234E-002
  0.14279999999999998          2.5159066905564798E-002
  0.14310000000000000          2.9578488620035648E-002
  0.14339999999999997          2.8988095261575975E-002
  0.14369999999999999          2.8073872979641035E-002
  0.14400000000000002          2.2767673415969525E-002
  0.14429999999999998          2.1247921210928999E-002
  0.14460000000000001          2.0758569492826770E-002
  0.14490000000000003          2.1863859997234419E-002
  0.14520000000000000          2.6749656118397525E-002
  0.14550000000000002          2.9347036782004787E-002
  0.14579999999999999          3.1603283835867080E-002
  0.14610000000000001          2.9796563892464434E-002
  0.14640000000000003          2.1904629619693083E-002
  0.14670000000000000          1.0020815690243989E-002
  0.14699999999999996         -7.7586170344133010E-003
  0.14729999999999999         -2.7814600806078449E-002
  0.14760000000000001         -4.6854214860391208E-002
  0.14789999999999998         -6.4051766631317619E-002
  0.14820000000000000         -7.3717482447378080E-002