  -1.4999999999999999E-002     0.0000000000000000     
  -1.4700000000000000E-002     0.0000000000000000     
  -1.4400000000000000E-002     0.0000000000000000     
  -1.4100000000000000E-002     0.0000000000000000     
  -1.3800000000000000E-002     0.0000000000000000     
  -1.3500000000000000E-002     0.0000000000000000     
  -1.3200000000000000E-002     0.0000000000000000     
  -1.2899999999999998E-002     0.0000000000000000     
  -1.2600000000000000E-002     0.0000000000000000     
  -1.2299999999999998E-002     0.0000000000000000     
  -1.2000000000000000E-002     0.0000000000000000     
  -1.1699999999999999E-002     0.0000000000000000     
  -1.1399999999999999E-002     0.0000000000000000     
  -1.1099999999999999E-002     0.0000000000000000     
  -1.0799999999999999E-002     0.0000000000000000     
  -1.0499999999999999E-002     0.0000000000000000     
  -1.0199999999999999E-002     0.0000000000000000     
  -9.8999999999999991E-003     0.0000000000000000     
  -9.5999999999999992E-003     0.0000000000000000     
  -9.2999999999999992E-003     0.0000000000000000     
  -8.9999999999999993E-003     0.0000000000000000     
  -8.6999999999999994E-003     0.0000000000000000     
  -8.3999999999999995E-003     0.0000000000000000     
  -8.0999999999999996E-003     0.0000000000000000     
  -7.7999999999999988E-003     0.0000000000000000     
  -7.4999999999999997E-003     0.0000000000000000     
  -7.1999999999999998E-003     0.0000000000000000     
  -6.8999999999999981E-003     0.0000000000000000     
  -6.5999999999999982E-003     0.0000000000000000     
  -6.3000000000000000E-003     0.0000000000000000     
  -6.0000000000000001E-003     0.0000000000000000     
  -5.6999999999999985E-003     0.0000000000000000     
  -5.3999999999999986E-003     0.0000000000000000     
  -5.1000000000000004E-003     0.0000000000000000     
  -4.7999999999999987E-003     0.0000000000000000     
  -4.5000000000000005E-003     1.3383759930124030E-036
  -4.1999999999999989E-003     4.0075302957090677E-036
  -3.8999999999999990E-003    -4.3790051646540677E-035
  -3.5999999999999990E-003    -4.9346696094824172E-035
  -3.2999999999999991E-003     3.0592157828203490E-034
  -2.9999999999999992E-003     1.0142077096818385E-033
  -2.6999999999999993E-003    -5.5063894933919500E-033
  -2.3999999999999994E-003    -2.2183422456779418E-033
  -2.0999999999999977E-003     4.8330406153020195E-032
  -1.7999999999999995E-003    -7.3487175448647355E-032
  -1.4999999999999979E-003     9.4879156660801328E-032
  -1.1999999999999997E-003    -1.3629371753716404E-030
  -8.9999999999999976E-004     6.5469347828934396E-030
  -5.9999999999999810E-004    -8.4776772951924899E-030
  -2.9999999999999992E-004    -4.2629815336186311E-029
   0.0000000000000000          2.3168951675453030E-028
   3.0000000000000165E-004    -4.2984599317185391E-028
   5.9999999999999984E-004    -2.1484160197165229E-028
   9.0000000000000149E-004     3.1738354814809676E-027
   1.2000000000000031E-003    -8.1305020013652661E-027
   1.5000000000000013E-003     7.3778770828619113E-027
   1.8000000000000030E-003     1.9178136133784014E-026
   2.1000000000000012E-003    -9.4779844336340355E-026
   2.3999999999999994E-003     2.1601321468289404E-025
   2.7000000000000010E-003    -3.5447454915344850E-025
   2.9999999999999992E-003     4.3050703395852583E-025
   3.3000000000000008E-003     1.1941840478184226E-024
   3.6000000000000025E-003    -1.6630194468573991E-023
   3.9000000000000007E-003     9.2781231657070643E-023
   4.2000000000000023E-003    -3.1120807573393896E-022
   4.5000000000000005E-003     4.6062489450553004E-022
   4.7999999999999987E-003     1.7031228759812028E-021
   5.1000000000000004E-003    -1.5996694000972416E-020
   5.4000000000000020E-003     7.1416292545990750E-020
   5.7000000000000037E-003    -2.2773892680839916E-019
   5.9999999999999984E-003     5.5173686149959415E-019
   6.3000000000000000E-003    -9.6334953402785855E-019
   6.6000000000000017E-003     7.9656407314302589E-019
   6.9000000000000034E-003     2.0039229956824427E-018
   7.2000000000000015E-003    -1.1522300023702330E-017
   7.5000000000000032E-003     3.1580756553094633E-017
   7.8000000000000014E-003    -4.9974758599546508E-017
   8.0999999999999996E-003    -3.2082190131701828E-017
   8.4000000000000012E-003     7.0500839188933004E-016
   8.7000000000000029E-003    -4.2133049334852363E-015
   9.0000000000000011E-003     2.0624100300833947E-014
   9.2999999999999992E-003    -9.3144337186788773E-014
   9.6000000000000009E-003     3.9045277970030379E-013
   9.8999999999999991E-003    -1.4714892715775307E-012
   1.0200000000000001E-002     4.7107331056783774E-012
   1.0500000000000002E-002    -1.1420833896658156E-011
   1.0800000000000004E-002     1.3117448967314704E-011
   1.1099999999999999E-002     4.5995544178945025E-011
   1.1400000000000000E-002    -3.3271596588946295E-010
   1.1700000000000002E-002     1.0130108973882557E-009
   1.2000000000000004E-002    -1.2951386629822537E-009
   1.2300000000000002E-002    -2.5232371747563320E-009
   1.2600000000000000E-002     1.4777147505640187E-008
   1.2900000000000002E-002    -2.1235955216525326E-008
   1.3200000000000000E-002    -3.0901645686753909E-008
   1.3500000000000002E-002     1.4265476977470826E-007
   1.3800000000000003E-002    -4.4779831398500392E-008
   1.4100000000000001E-002    -5.0264031870028703E-007
   1.4400000000000000E-002     3.4624699196683650E-007
   1.4700000000000001E-002     1.5636040870958823E-006
   1.4999999999999999E-002    -6.7894882249674993E-007
   1.5300000000000001E-002    -5.1253277888463344E-006
   1.5600000000000003E-002    -1.2113017646697699E-006
   1.5899999999999997E-002     2.2478801838587970E-005
   1.6199999999999999E-002     6.6634762333706021E-005
   1.6500000000000001E-002     1.2404670997057110E-004
   1.6800000000000002E-002     1.9389507360756397E-004
   1.7100000000000004E-002     2.8962866053916514E-004
   1.7400000000000006E-002     4.3865578481927514E-004
   1.7700000000000000E-002     6.7820184631273150E-004
   1.8000000000000002E-002     1.0511307045817375E-003
   1.8300000000000004E-002     1.6106832772493362E-003
   1.8600000000000005E-002     2.4305088445544243E-003
   1.8900000000000000E-002     3.6132934037595987E-003
   1.9200000000000002E-002     5.2990298718214035E-003
   1.9500000000000003E-002     7.6699494384229183E-003
   1.9799999999999998E-002     1.0952757671475410E-002
   2.0100000000000000E-002     1.5419187024235725E-002
   2.0400000000000001E-002     2.1385662257671356E-002
   2.0700000000000003E-002     2.9211811721324921E-002
   2.0999999999999998E-002     3.9285898208618164E-002
   2.1299999999999999E-002     5.1991555839776993E-002
   2.1600000000000001E-002     6.7668974399566650E-002
   2.1900000000000003E-002     8.6563445627689362E-002
   2.2200000000000004E-002    0.10875374078750610     
   2.2500000000000006E-002    0.13406102359294891     
   2.2800000000000001E-002    0.16193836927413940     
   2.3100000000000002E-002    0.19137327373027802     
   2.3400000000000004E-002    0.22078822553157806     
   2.3699999999999999E-002    0.24795311689376831     
   2.4000000000000000E-002    0.26995965838432312     
   2.4300000000000002E-002    0.28322127461433411     
   2.4599999999999997E-002    0.28357890248298645     
   2.4900000000000005E-002    0.26647302508354187     
   2.5200000000000000E-002    0.22719641029834747     
   2.5499999999999995E-002    0.16135458648204803     
   2.5800000000000003E-002     6.5271452069282532E-002
   2.6099999999999998E-002    -6.3366010785102844E-002
   2.6400000000000007E-002   -0.22504767775535583     
   2.6700000000000002E-002   -0.41785210371017456     
   2.6999999999999996E-002   -0.63703519105911255     
   2.7300000000000005E-002   -0.87478035688400269     
   2.7600000000000000E-002    -1.1201280355453491     
   2.7900000000000008E-002    -1.3593283891677856     
   2.8200000000000003E-002    -1.5763580799102783     
   2.8499999999999998E-002    -1.7539006471633911     
   2.8800000000000006E-002    -1.8744772672653198     
   2.9100000000000001E-002    -1.9218528270721436     
   2.9400000000000003E-002    -1.8825038671493530     
   2.9700000000000004E-002    -1.7470685243606567     
   3.0000000000000006E-002    -1.5115125179290771     
   3.0300000000000001E-002    -1.1780200004577637     
   3.0600000000000002E-002   -0.75544548034667969     
   3.0900000000000004E-002   -0.25919508934020996     
   3.1199999999999999E-002    0.28959384560585022     
   3.1500000000000007E-002    0.86505234241485596     
   3.1800000000000002E-002     1.4385143518447876     
   3.2099999999999997E-002     1.9802429676055908     
   3.2400000000000005E-002     2.4617757797241211     
   3.2700000000000000E-002     2.8577690124511719     
   3.3000000000000002E-002     3.1478111743927002     
   3.3300000000000003E-002     3.3181107044219971     
   3.3599999999999998E-002     3.3618206977844238     
   3.3900000000000000E-002     3.2796587944030762     
   3.4200000000000001E-002     3.0795619487762451     
   3.4500000000000003E-002     2.7753312587738037     
   3.4799999999999998E-002     2.3860688209533691     
   3.5099999999999999E-002     1.9338699579238892     
   3.5400000000000001E-002     1.4425802230834961     
   3.5699999999999996E-002    0.93618738651275635     
   3.6000000000000004E-002    0.43661794066429138     
   3.6299999999999999E-002    -3.6295905709266663E-002
   3.6600000000000008E-002   -0.46678835153579712     
   3.6900000000000002E-002   -0.84294635057449341     
   3.7199999999999997E-002    -1.1568919420242310     
   3.7500000000000006E-002    -1.4049546718597412     
   3.7800000000000000E-002    -1.5865770578384399     
   3.8100000000000009E-002    -1.7044682502746582     
   3.8400000000000004E-002    -1.7633696794509888     
   3.8699999999999998E-002    -1.7697124481201172     
   3.9000000000000007E-002    -1.7310388088226318     
   3.9300000000000002E-002    -1.6557258367538452     
   3.9600000000000003E-002    -1.5522837638854980     
   3.9900000000000005E-002    -1.4296234846115112     
   4.0200000000000000E-002    -1.2966217994689941     
   4.0500000000000001E-002    -1.1621129512786865     
   4.0800000000000003E-002    -1.0352101325988770     
   4.1100000000000005E-002   -0.92420107126235962     
   4.1399999999999999E-002   -0.83733636140823364     
   4.1700000000000008E-002   -0.78147119283676147     
   4.2000000000000003E-002   -0.76172745227813721     
   4.2299999999999997E-002   -0.78147554397583008     
   4.2600000000000006E-002   -0.84025299549102783     
   4.2900000000000001E-002   -0.93471050262451172     
   4.3200000000000002E-002    -1.0568319559097290     
   4.3500000000000004E-002    -1.1943144798278809     
   4.3799999999999999E-002    -1.3311680555343628     
   4.4100000000000000E-002    -1.4472727775573730     
   4.4400000000000002E-002    -1.5210369825363159     
   4.4700000000000004E-002    -1.5296252965927124     
   4.4999999999999998E-002    -1.4517146348953247     
   4.5300000000000000E-002    -1.2700072526931763     
   4.5600000000000002E-002   -0.97254168987274170     
   4.5899999999999996E-002   -0.55588120222091675     
   4.6200000000000005E-002    -2.5420024991035461E-002
   4.6500000000000000E-002    0.60300761461257935     
   4.6799999999999994E-002     1.3034809827804565     
   4.7100000000000003E-002     2.0413227081298828     
   4.7399999999999998E-002     2.7745299339294434     
   4.7700000000000006E-002     3.4573857784271240     
   4.8000000000000001E-002     4.0431962013244629     
   4.8300000000000010E-002     4.4887084960937500     
   4.8600000000000004E-002     4.7572364807128906     
   4.8899999999999999E-002     4.8222565650939941     
   4.9200000000000008E-002     4.6699013710021973     
   4.9500000000000002E-002     4.2997789382934570     
   4.9800000000000011E-002     3.7263433933258057     
   5.0100000000000006E-002     2.9766378402709961     
   5.0400000000000000E-002     2.0892901420593262     
   5.0700000000000009E-002     1.1108691692352295     
   5.1000000000000004E-002     9.2049524188041687E-002
   5.1299999999999998E-002   -0.91528755426406860     
   5.1600000000000007E-002    -1.8633358478546143     
   5.1900000000000002E-002    -2.7104055881500244     
   5.2200000000000010E-002    -3.4238932132720947     
   5.2500000000000005E-002    -3.9825105667114258     
   5.2800000000000000E-002    -4.3754434585571289     
   5.3099999999999994E-002    -4.6035041809082031     
   5.3400000000000003E-002    -4.6761474609375000     
   5.3699999999999998E-002    -4.6102771759033203     
   5.4000000000000006E-002    -4.4272751808166504     
   5.4300000000000001E-002    -4.1499509811401367     
   5.4599999999999996E-002    -3.8006534576416016     
   5.4900000000000004E-002    -3.3979787826538086     
   5.5199999999999999E-002    -2.9564065933227539     
   5.5499999999999994E-002    -2.4847459793090820     
   5.5800000000000002E-002    -1.9868264198303223     
   5.6099999999999997E-002    -1.4622730016708374     
   5.6400000000000006E-002   -0.90782171487808228     
   5.6700000000000000E-002   -0.32037612795829773     
   5.6999999999999995E-002    0.30202051997184753     
   5.7300000000000004E-002    0.95665347576141357     
   5.7599999999999998E-002     1.6358242034912109     
   5.7900000000000007E-002     2.3245806694030762     
   5.8200000000000002E-002     3.0008449554443359     
   5.8499999999999996E-002     3.6372375488281250     
   5.8800000000000005E-002     4.2006311416625977     
   5.9100000000000000E-002     4.6569328308105469     
   5.9400000000000008E-002     4.9723939895629883     
   5.9700000000000003E-002     5.1170387268066406     
   6.0000000000000012E-002     5.0691819190979004     
   6.0300000000000006E-002     4.8157606124877930     
   6.0600000000000001E-002     4.3569245338439941     
   6.0900000000000010E-002     3.7051014900207520     
   6.1200000000000004E-002     2.8856141567230225     
   6.1500000000000013E-002     1.9361850023269653     
   6.1800000000000008E-002    0.90255725383758545     
   6.2100000000000002E-002   -0.16153749823570251     
   6.2399999999999997E-002    -1.2007453441619873     
   6.2700000000000006E-002    -2.1603183746337891     
   6.3000000000000000E-002    -2.9897820949554443     
   6.3300000000000009E-002    -3.6477746963500977     
   6.3600000000000004E-002    -4.1020445823669434     
   6.3899999999999998E-002    -4.3340206146240234     
   6.4199999999999993E-002    -4.3373827934265137     
   6.4500000000000002E-002    -4.1192374229431152     
   6.4800000000000010E-002    -3.6989150047302246     
   6.5100000000000005E-002    -3.1055119037628174     
   6.5400000000000000E-002    -2.3775992393493652     
   6.5700000000000008E-002    -1.5585924386978149     
   6.5999999999999989E-002   -0.69646573066711426     
   6.6299999999999998E-002    0.16079549491405487     
   6.6600000000000006E-002    0.96649551391601562     
   6.6900000000000001E-002     1.6776969432830811     
   6.7199999999999996E-002     2.2583360671997070     
   6.7500000000000004E-002     2.6788983345031738     
   6.7800000000000013E-002     2.9207334518432617     
   6.8099999999999994E-002     2.9747183322906494     
   6.8400000000000002E-002     2.8438618183135986     
   6.8700000000000011E-002     2.5430219173431396     
   6.8999999999999992E-002     2.0971543788909912     
   6.9300000000000000E-002     1.5429108142852783     
   6.9600000000000009E-002    0.92324757575988770     
   6.9900000000000004E-002    0.28767842054367065     
   7.0199999999999999E-002   -0.31306427717208862     
   7.0500000000000007E-002   -0.83090156316757202     
   7.0800000000000016E-002    -1.2226493358612061     
   7.1099999999999997E-002    -1.4569867849349976     
   7.1400000000000005E-002    -1.5144591331481934     
   7.1700000000000000E-002    -1.3922154903411865     
   7.1999999999999995E-002    -1.1041628122329712     
   7.2300000000000003E-002   -0.67957794666290283     
   7.2600000000000012E-002   -0.16291984915733337     
   7.2900000000000006E-002    0.39213526248931885     
   7.3200000000000001E-002    0.92529487609863281     
   7.3499999999999996E-002     1.3767911195755005     
   7.3800000000000004E-002     1.6924269199371338     
   7.4099999999999999E-002     1.8291504383087158     
   7.4400000000000008E-002     1.7602227926254272     
   7.4700000000000003E-002     1.4772257804870605     
   7.5000000000000011E-002    0.99307316541671753     
   7.5299999999999992E-002    0.33998233079910278     
   7.5600000000000001E-002   -0.43180957436561584     
   7.5900000000000009E-002    -1.2591398954391479     
   7.6200000000000004E-002    -2.0713007450103760     
   7.6499999999999999E-002    -2.7957053184509277     
   7.6800000000000007E-002    -3.3665020465850830     
   7.7099999999999988E-002    -3.7283904552459717     
   7.7399999999999997E-002    -3.8443949222564697     
   7.7700000000000005E-002    -3.6976361274719238     
   7.8000000000000014E-002    -3.2940142154693604     
   7.8299999999999995E-002    -2.6624188423156738     
   7.8600000000000003E-002    -1.8503558635711670     
   7.8900000000000012E-002   -0.92280465364456177     
   7.9199999999999993E-002     4.7038421034812927E-002
   7.9500000000000001E-002    0.98180049657821655     
   7.9800000000000010E-002     1.8077273368835449     
   8.0100000000000018E-002     2.4618859291076660     
   8.0399999999999999E-002     2.8951773643493652     
   8.0700000000000008E-002     3.0795071125030518     
   8.1000000000000003E-002     3.0062391757965088     
   8.1299999999999997E-002     2.6884582042694092     
   8.1600000000000006E-002     2.1577553749084473     
   8.1900000000000014E-002     1.4602029323577881     
   8.2199999999999995E-002    0.65300220251083374     
   8.2500000000000004E-002   -0.20353773236274719     
   8.2799999999999999E-002    -1.0489201545715332     
   8.3100000000000007E-002    -1.8298313617706299     
   8.3400000000000002E-002    -2.5020859241485596     
   8.3700000000000011E-002    -3.0340678691864014     
   8.4000000000000005E-002    -3.4083757400512695     
   8.4300000000000000E-002    -3.6194677352905273     
   8.4599999999999995E-002    -3.6749775409698486     
   8.4900000000000003E-002    -3.5896883010864258     
   8.5199999999999998E-002    -3.3854713439941406     
   8.5500000000000007E-002    -3.0863025188446045     
   8.5800000000000001E-002    -2.7152888774871826     
   8.6100000000000010E-002    -2.2947533130645752     
   8.6399999999999991E-002    -1.8407855033874512     
   8.6699999999999999E-002    -1.3669832944869995     
   8.7000000000000008E-002   -0.88129717111587524     
   8.7300000000000003E-002   -0.38790017366409302     
   8.7599999999999997E-002    0.11058588325977325     
   8.7900000000000006E-002    0.61488801240921021     
   8.8200000000000014E-002     1.1237725019454956     
   8.8499999999999995E-002     1.6376570463180542     
   8.8800000000000004E-002     2.1551678180694580     
   8.9100000000000013E-002     2.6732630729675293     
   8.9399999999999993E-002     3.1899058818817139     
   8.9700000000000002E-002     3.7014811038970947     
   9.0000000000000011E-002     4.2058081626892090     
   9.0299999999999991E-002     4.7003684043884277     
   9.0600000000000000E-002     5.1835269927978516     
   9.0900000000000009E-002     5.6539106369018555     
   9.1200000000000017E-002     6.1091232299804688     
   9.1499999999999998E-002     6.5446405410766602     
   9.1800000000000007E-002     6.9521160125732422     
   9.2100000000000001E-002     7.3190326690673828     
   9.2399999999999996E-002     7.6259717941284180     
   9.2700000000000005E-002     7.8487024307250977     
   9.3000000000000013E-002     7.9566984176635742     
   9.3300000000000008E-002     7.9154195785522461     
   9.3600000000000003E-002     7.6894116401672363     
   9.3899999999999997E-002     7.2433657646179199     
   9.4200000000000006E-002     6.5491366386413574     
   9.4500000000000001E-002     5.5851769447326660     
   9.4800000000000009E-002     4.3442325592041016     
   9.5100000000000004E-002     2.8326609134674072     
   9.5399999999999999E-002     1.0737860202789307     
   9.5699999999999993E-002   -0.89099216461181641     
   9.6000000000000002E-002    -3.0062413215637207     
   9.6300000000000011E-002    -5.2015700340270996     
   9.6600000000000005E-002    -7.3982510566711426     
   9.6900000000000000E-002    -9.5105390548706055     
   9.7200000000000009E-002    -11.452614784240723     
   9.7499999999999989E-002    -13.143371582031250     
   9.7799999999999998E-002    -14.509472846984863     
   9.8100000000000007E-002    -15.490819931030273     
   9.8400000000000015E-002    -16.041887283325195     
   9.8699999999999996E-002    -16.135522842407227     
   9.9000000000000005E-002    -15.760256767272949     
   9.9300000000000013E-002    -14.925817489624023     
   9.9599999999999994E-002    -13.656782150268555     
   9.9900000000000003E-002    -11.993241310119629     
  0.10020000000000001         -9.9909133911132812     
  0.10049999999999999         -7.7139797210693359     
  0.10080000000000000         -5.2399263381958008     
  0.10110000000000001         -2.6498396396636963     
  0.10140000000000000         -3.1294032931327820E-002
  0.10170000000000000          2.5259051322937012     
  0.10200000000000001          4.9354257583618164     
  0.10230000000000002          7.1106710433959961     
  0.10260000000000000          8.9751625061035156     
  0.10290000000000001          10.461710929870605     
  0.10320000000000000          11.515756607055664     
  0.10350000000000001          12.100949287414551     
  0.10380000000000000          12.197372436523438     
  0.10410000000000001          11.810082435607910     
  0.10440000000000001          10.963453292846680     
  0.10470000000000000          9.7047033309936523     
  0.10500000000000000          8.1027393341064453     
  0.10530000000000000          6.2417259216308594     
  0.10560000000000000          4.2223291397094727     
  0.10590000000000001          2.1518292427062988     
  0.10620000000000000         0.14252325892448425     
  0.10650000000000001         -1.6980099678039551     
  0.10679999999999999         -3.2715516090393066     
  0.10710000000000000         -4.4943265914916992     
  0.10740000000000001         -5.3048815727233887     
  0.10770000000000000         -5.6634292602539062     
  0.10800000000000000         -5.5601801872253418     
  0.10830000000000001         -5.0111269950866699     
  0.10859999999999999         -4.0607705116271973     
  0.10890000000000000         -2.7781684398651123     
  0.10920000000000001         -1.2512013912200928     
  0.10950000000000001         0.41343939304351807     
  0.10979999999999999          2.1050164699554443     
  0.11009999999999999          3.7070965766906738     
  0.11040000000000001          5.1120600700378418     
  0.11070000000000001          6.2256927490234375     
  0.11100000000000000          6.9712748527526855     
  0.11130000000000000          7.3013482093811035     
  0.11160000000000002          7.1919212341308594     
  0.11190000000000001          6.6538486480712891     
  0.11220000000000001          5.7254705429077148     
  0.11250000000000000          4.4711980819702148     
  0.11280000000000000          2.9807887077331543     
  0.11309999999999999          1.3560694456100464     
  0.11340000000000001        -0.28946685791015625     
  0.11369999999999998         -1.8446117639541626     
  0.11400000000000000         -3.2056541442871094     
  0.11430000000000000         -4.2849946022033691     
  0.11460000000000002         -5.0181627273559570     
  0.11489999999999999         -5.3670992851257324     
  0.11520000000000001         -5.3256115913391113     
  0.11550000000000001         -4.9156498908996582     
  0.11580000000000000         -4.1895756721496582     
  0.11609999999999999         -3.2217602729797363     
  0.11640000000000002         -2.1047780513763428     
  0.11670000000000001        -0.94113552570343018     
  0.11700000000000001         0.16741643846035004     
  0.11730000000000000          1.1237133741378784     
  0.11760000000000000          1.8499125242233276     
  0.11789999999999999          2.2874829769134521     
  0.11820000000000001          2.4060080051422119     
  0.11850000000000001          2.2057464122772217     
  0.11880000000000000          1.7123733758926392     
  0.11910000000000000         0.98174220323562622     
  0.11940000000000002          8.6333818733692169E-002
  0.11970000000000001        -0.88572186231613159     
  0.12000000000000001         -1.8416548967361450     
  0.12030000000000000         -2.6945023536682129     
  0.12060000000000000         -3.3661816120147705     
  0.12089999999999999         -3.8020663261413574     
  0.12119999999999999         -3.9688606262207031     
  0.12150000000000001         -3.8619093894958496     
  0.12180000000000001         -3.5040349960327148     
  0.12210000000000000         -2.9398984909057617     
  0.12239999999999999         -2.2354209423065186     
  0.12270000000000002         -1.4655909538269043     
  0.12300000000000001        -0.71000844240188599     
  0.12330000000000001         -4.2127527296543121E-002
  0.12360000000000000         0.47753101587295532     
  0.12390000000000000         0.80748128890991211     
  0.12419999999999999         0.92966431379318237     
  0.12450000000000001         0.84940326213836670     
  0.12480000000000001         0.59491926431655884     
  0.12509999999999999         0.21097292006015778     
  0.12540000000000001        -0.24322974681854248     
  0.12570000000000003        -0.70646595954895020     
  0.12600000000000000         -1.1187821626663208     
  0.12630000000000002         -1.4291125535964966     
  0.12659999999999999         -1.6049062013626099     
  0.12690000000000001         -1.6271883249282837     
  0.12719999999999998         -1.4990208148956299     
  0.12750000000000000         -1.2393082380294800     
  0.12780000000000002        -0.88028621673583984     
  0.12809999999999999        -0.46513444185256958     
  0.12840000000000001         -3.5652272403240204E-002
  0.12869999999999998         0.36558070778846741     
  0.12900000000000000         0.70599108934402466     
  0.12930000000000003         0.96425831317901611     
  0.12959999999999999          1.1298362016677856     
  0.12990000000000002          1.2080999612808228     
  0.13019999999999998          1.2122406959533691     
  0.13050000000000000          1.1649736166000366     
  0.13080000000000003          1.0929064750671387     
  0.13109999999999999          1.0216877460479736     
  0.13140000000000002         0.97457820177078247     
  0.13169999999999998         0.96752631664276123     
  0.13200000000000001          1.0093070268630981     
  0.13229999999999997          1.1005138158798218     
  0.13260000000000000          1.2339795827865601     
  0.13290000000000002          1.3969573974609375     
  0.13319999999999999          1.5739527940750122     
  0.13350000000000001          1.7468007802963257     
  0.13380000000000003          1.8996136188507080     
  0.13410000000000000          2.0201044082641602     
  0.13440000000000002          2.0989212989807129     
  0.13469999999999999          2.1343550682067871     
  0.13500000000000001          2.1270241737365723     
  0.13529999999999998          2.0827209949493408     
  0.13560000000000000          2.0105974674224854     
  0.13590000000000002          1.9195845127105713     
  0.13619999999999999          1.8212904930114746     
  0.13650000000000001          1.7224385738372803     
  0.13680000000000003          1.6296908855438232     
  0.13710000000000000          1.5460497140884399     
  0.13740000000000002          1.4698137044906616     
  0.13769999999999999          1.4005018472671509     
  0.13800000000000001          1.3313686847686768     
  0.13829999999999998          1.2582046985626221     
  0.13860000000000000          1.1761069297790527     
  0.13890000000000002          1.0803835391998291     
  0.13919999999999999         0.97028279304504395     
  0.13950000000000001         0.84309887886047363     
  0.13979999999999998         0.70133101940155029     
  0.14010000000000000         0.54598015546798706     
  0.14040000000000002         0.37794676423072815     
  0.14069999999999999         0.19942392408847809     
  0.14100000000000001          8.7487213313579559E-003
  0.14130000000000004        -0.19486492872238159     
  0.14160000000000000        -0.41369643807411194     
  0.14189999999999997        -0.65049028396606445     
  0.14219999999999999        -0.90620470046997070     
  0.14250000000000002         -1.1807768344879150     
  0.14279999999999998         -1.4704258441925049     
  0.14310000000000000         -1.7689117193222046     
  0.14339999999999997         -2.0678308010101318     
  0.14369999999999999         -2.3567523956298828     
  0.14400000000000002         -2.6258358955383301     
  0.14429999999999998         -2.8681893348693848     
  0.14460000000000001         -3.0785169601440430     
  0.14490000000000003         -3.2572574615478516     
  0.14520000000000000         -3.4099421501159668     
  0.14550000000000002         -3.5441725254058838     
  0.14579999999999999         -3.6713700294494629     
  0.14610000000000001         -3.8005120754241943     
  0.14640000000000003         -3.9385933876037598     
  0.14670000000000000         -4.0870771408081055     
  0.14699999999999996         -4.2378253936767578     
  0.14729999999999999         -4.3796401023864746     
  0.14760000000000001         -4.4910778999328613     
  0.14789999999999998         -4.5492033958435059     
  0.14820000000000000         -4.5329594612121582     