  -1.4999999999999999E-002     0.0000000000000000     
  -1.4700000000000000E-002     0.0000000000000000     
  -1.4400000000000000E-002     0.0000000000000000     
  -1.4100000000000000E-002     0.0000000000000000     
  -1.3800000000000000E-002     0.0000000000000000     
  -1.3500000000000000E-002     0.0000000000000000     
  -1.3200000000000000E-002     0.0000000000000000     
  -1.2899999999999998E-002     0.0000000000000000     
  -1.2600000000000000E-002     0.0000000000000000     
  -1.2299999999999998E-002     0.0000000000000000     
  -1.2000000000000000E-002     0.0000000000000000     
  -1.1699999999999999E-002     0.0000000000000000     
  -1.1399999999999999E-002     0.0000000000000000     
  -1.1099999999999999E-002     0.0000000000000000     
  -1.0799999999999999E-002     0.0000000000000000     
  -1.0499999999999999E-002     0.0000000000000000     
  -1.0199999999999999E-002     0.0000000000000000     
  -9.8999999999999991E-003     0.0000000000000000     
  -9.5999999999999992E-003     0.0000000000000000     
  -9.2999999999999992E-003     0.0000000000000000     
  -8.9999999999999993E-003     0.0000000000000000     
  -8.6999999999999994E-003     0.0000000000000000     
  -8.3999999999999995E-003     0.0000000000000000     
  -8.0999999999999996E-003     0.0000000000000000     
  -7.7999999999999988E-003     0.0000000000000000     
  -7.4999999999999997E-003     0.0000000000000000     
  -7.1999999999999998E-003     0.0000000000000000     
  -6.8999999999999981E-003     0.0000000000000000     
  -6.5999999999999982E-003     0.0000000000000000     
  -6.3000000000000000E-003     0.0000000000000000     
  -6.0000000000000001E-003     0.0000000000000000     
  -5.6999999999999985E-003     0.0000000000000000     
  -5.3999999999999986E-003     0.0000000000000000     
  -5.1000000000000004E-003     0.0000000000000000     
  -4.7999999999999987E-003     0.0000000000000000     
  -4.5000000000000005E-003     0.0000000000000000     
  -4.1999999999999989E-003     0.0000000000000000     
  -3.8999999999999990E-003     0.0000000000000000     
  -3.5999999999999990E-003     0.0000000000000000     
  -3.2999999999999991E-003     0.0000000000000000     
  -2.9999999999999992E-003     0.0000000000000000     
  -2.6999999999999993E-003     0.0000000000000000     
  -2.3999999999999994E-003     0.0000000000000000     
  -2.0999999999999977E-003     0.0000000000000000     
  -1.7999999999999995E-003     0.0000000000000000     
  -1.4999999999999979E-003     0.0000000000000000     
  -1.1999999999999997E-003     0.0000000000000000     
  -8.9999999999999976E-004     0.0000000000000000     
  -5.9999999999999810E-004     0.0000000000000000     
  -2.9999999999999992E-004     0.0000000000000000     
   0.0000000000000000          0.0000000000000000     
   3.0000000000000165E-004     0.0000000000000000     
   5.9999999999999984E-004     0.0000000000000000     
   9.0000000000000149E-004     0.0000000000000000     
   1.2000000000000031E-003     0.0000000000000000     
   1.5000000000000013E-003     0.0000000000000000     
   1.8000000000000030E-003     0.0000000000000000     
   2.1000000000000012E-003     0.0000000000000000     
   2.3999999999999994E-003     0.0000000000000000     
   2.7000000000000010E-003     0.0000000000000000     
   2.9999999999999992E-003     0.0000000000000000     
   3.3000000000000008E-003     0.0000000000000000     
   3.6000000000000025E-003     0.0000000000000000     
   3.9000000000000007E-003     0.0000000000000000     
   4.2000000000000023E-003     0.0000000000000000     
   4.5000000000000005E-003     0.0000000000000000     
   4.7999999999999987E-003     0.0000000000000000     
   5.1000000000000004E-003     0.0000000000000000     
   5.4000000000000020E-003     0.0000000000000000     
   5.7000000000000037E-003     0.0000000000000000     
   5.9999999999999984E-003     0.0000000000000000     
   6.3000000000000000E-003     0.0000000000000000     
   6.6000000000000017E-003     0.0000000000000000     
   6.9000000000000034E-003     0.0000000000000000     
   7.2000000000000015E-003     0.0000000000000000     
   7.5000000000000032E-003     0.0000000000000000     
   7.8000000000000014E-003     0.0000000000000000     
   8.0999999999999996E-003     0.0000000000000000     
   8.4000000000000012E-003     0.0000000000000000     
   8.7000000000000029E-003     0.0000000000000000     
   9.0000000000000011E-003     0.0000000000000000     
   9.2999999999999992E-003     4.9582105246450119E-039
   9.6000000000000009E-003    -4.7787991074406723E-037
   9.8999999999999991E-003    -3.1213632498417986E-036
   1.0200000000000001E-002     1.5881010243013486E-034
   1.0500000000000002E-002    -1.2334518279648203E-033
   1.0800000000000004E-002    -4.0733565431663779E-033
   1.1099999999999999E-002     1.0681296501939418E-031
   1.1400000000000000E-002    -4.9721627586633488E-031
   1.1700000000000002E-002    -1.5702467768945692E-030
   1.2000000000000004E-002     2.7165649672238333E-029
   1.2300000000000002E-002    -9.7811697095445503E-029
   1.2600000000000000E-002    -2.3737707937368391E-028
   1.2900000000000002E-002     3.6075556403413545E-027
   1.3200000000000000E-002    -1.2999423815059342E-026
   1.3500000000000002E-002    -5.8813399768610961E-027
   1.3800000000000003E-002     2.5438097481137739E-025
   1.4100000000000001E-002    -1.1024696230579733E-024
   1.4400000000000000E-002     1.4465335645450185E-024
   1.4700000000000001E-002     7.6112935146841992E-024
   1.4999999999999999E-002    -4.9038869921503280E-023
   1.5300000000000001E-002     1.2225027093475305E-022
   1.5600000000000003E-002    -1.8474813733292854E-023
   1.5899999999999997E-002    -1.0009375097388139E-021
   1.6199999999999999E-002     3.9381533926830249E-021
   1.6500000000000001E-002    -7.3622275623236770E-021
   1.6800000000000002E-002     2.5046106681724736E-021
   1.7100000000000004E-002     1.9437154887666473E-020
   1.7400000000000006E-002    -8.0466049807735113E-021
   1.7700000000000000E-002    -2.3519944188107837E-019
   1.8000000000000002E-002     4.8158492057543353E-019
   1.8300000000000004E-002     5.1580928288847073E-018
   1.8600000000000005E-002    -5.4788029740145085E-017
   1.8900000000000000E-002     3.2450713649739757E-016
   1.9200000000000002E-002    -1.4780576903231977E-015
   1.9500000000000003E-002     5.5581643867850711E-015
   1.9799999999999998E-002    -1.6985507122958519E-014
   2.0100000000000000E-002     3.6041363667414473E-014
   2.0400000000000001E-002    -4.5584739837460750E-016
   2.0700000000000003E-002    -4.9592244114401531E-013
   2.0999999999999998E-002     3.1213747208427542E-012
   2.1299999999999999E-002    -1.2500088094028969E-011
   2.1600000000000001E-002     3.4765679539093322E-011
   2.1900000000000003E-002    -5.4953485319361216E-011
   2.2200000000000004E-002    -3.7124221695921936E-011
   2.2500000000000006E-002     5.0732638246894817E-010
   2.2800000000000001E-002    -1.3621698793104746E-009
   2.3100000000000002E-002     8.1317781013158194E-010
   2.3400000000000004E-002     5.2564343161094305E-009
   2.3699999999999999E-002    -1.3845663333265615E-008
   2.4000000000000000E-002    -2.6768893558979517E-009
   2.4300000000000002E-002     6.0349741819449102E-008
   2.4599999999999997E-002    -3.7938753126171021E-008
   2.4900000000000005E-002    -2.0873981860015845E-007
   2.5200000000000000E-002     1.3377778313106636E-007
   2.5499999999999995E-002     6.4161105120649000E-007
   2.5800000000000003E-002    -1.6611313747305826E-007
   2.6099999999999998E-002    -1.7757735157874253E-006
   2.6400000000000007E-002    -4.1086722211107276E-007
   2.6700000000000002E-002     5.7744035587846317E-006
   2.6999999999999996E-002     1.2375623918088217E-005
   2.7300000000000005E-002     1.5126846050092253E-005
   2.7600000000000000E-002     1.9025865035374374E-005
   2.7900000000000008E-002     3.3909068717319422E-005
   2.8200000000000003E-002     6.1848774893275612E-005
   2.8499999999999998E-002     9.7543543584799851E-005
   2.8800000000000006E-002     1.4322730817279946E-004
   2.9100000000000001E-002     2.1515699486693903E-004
   2.9400000000000003E-002     3.3095816490291176E-004
   2.9700000000000004E-002     4.9943051310511431E-004
   3.0000000000000006E-002     7.3193173454604715E-004
   3.0300000000000001E-002     1.0579432156656542E-003
   3.0600000000000002E-002     1.5198732261780742E-003
   3.0900000000000004E-002     2.1575730301463744E-003
   3.1199999999999999E-002     3.0108877686943203E-003
   3.1500000000000007E-002     4.1370861079527560E-003
   3.1800000000000002E-002     5.6123442738344742E-003
   3.2099999999999997E-002     7.5125248977932768E-003
   3.2400000000000005E-002     9.9034319742417054E-003
   3.2700000000000000E-002     1.2851805732576993E-002
   3.3000000000000002E-002     1.6428204827489801E-002
   3.3300000000000003E-002     2.0683355960993688E-002
   3.3599999999999998E-002     2.5622908005683009E-002
   3.3900000000000000E-002     3.1205566530689177E-002
   3.4200000000000001E-002     3.7345993421866286E-002
   3.4500000000000003E-002     4.3896684294705279E-002
   3.4799999999999998E-002     5.0619094032510192E-002
   3.5099999999999999E-002     5.7179896523913643E-002
   3.5400000000000001E-002     6.3170510852625039E-002
   3.5699999999999996E-002     6.8119234056980282E-002
   3.6000000000000004E-002     7.1490636053948897E-002
   3.6299999999999999E-002     7.2709654626426534E-002
   3.6600000000000008E-002     7.1218648669367113E-002
   3.6900000000000002E-002     6.6531786928682113E-002
   3.7199999999999997E-002     5.8273719348117092E-002
   3.7500000000000006E-002     4.6226586941977565E-002
   3.7800000000000000E-002     3.0381877137222180E-002
   3.8100000000000009E-002     1.0999153140872853E-002
   3.8400000000000004E-002    -1.1373981789362109E-002
   3.8699999999999998E-002    -3.5926174916101505E-002
   3.9000000000000007E-002    -6.1606726307144255E-002
   3.9300000000000002E-002    -8.7154383529608914E-002
   3.9600000000000003E-002   -0.11116869193505208     
   3.9900000000000005E-002   -0.13223985563017138     
   4.0200000000000000E-002   -0.14906692126279708     
   4.0500000000000001E-002   -0.16054059261483200     
   4.0800000000000003E-002   -0.16585323047949263     
   4.1100000000000005E-002   -0.16459862230007971     
   4.1399999999999999E-002   -0.15684900068019925     
   4.1700000000000008E-002   -0.14316777531849212     
   4.2000000000000003E-002   -0.12457597112082519     
   4.2299999999999997E-002   -0.10248927523457541     
   4.2600000000000006E-002    -7.8660133350406447E-002
   4.2900000000000001E-002    -5.5034921764274491E-002
   4.3200000000000002E-002    -3.3581570677158057E-002
   4.3500000000000004E-002    -1.6177063736586728E-002
   4.3799999999999999E-002    -4.4323511063758397E-003
   4.4100000000000000E-002     4.1163121139790523E-004
   4.4400000000000002E-002    -2.4066763512139103E-003
   4.4700000000000004E-002    -1.3086246546379021E-002
   4.4999999999999998E-002    -3.1245419437641808E-002
   4.5300000000000000E-002    -5.5936981580894107E-002
   4.5600000000000002E-002    -8.5718097485505407E-002
   4.5899999999999996E-002   -0.11872012808719434     
   4.6200000000000005E-002   -0.15273111611760104     
   4.6500000000000000E-002   -0.18535238085570249     
   4.6799999999999994E-002   -0.21416113605604981     
   4.7100000000000003E-002   -0.23686809851794877     
   4.7399999999999998E-002   -0.25141735831544842     
   4.7700000000000006E-002   -0.25614160084798776     
   4.8000000000000001E-002   -0.24986504185034875     
   4.8300000000000010E-002   -0.23201942419409782     
   4.8600000000000004E-002   -0.20267355737218917     
   4.8899999999999999E-002   -0.16247563628205963     
   4.9200000000000008E-002   -0.11269511385740349     
   4.9500000000000002E-002    -5.5118884182368877E-002
   4.9800000000000011E-002     8.0521559803103937E-003
   5.0100000000000006E-002     7.4331033802186752E-002
   5.0400000000000000E-002    0.14118612625781068     
   5.0700000000000009E-002    0.20610009690915110     
   5.1000000000000004E-002    0.26669584586614814     
   5.1299999999999998E-002    0.32095690673783572     
   5.1600000000000007E-002    0.36730015082785172     
   5.1900000000000002E-002    0.40463229421966140     
   5.2200000000000010E-002    0.43230721515487325     
   5.2500000000000005E-002    0.45016151569391205     
   5.2800000000000000E-002    0.45850732573928887     
   5.3099999999999994E-002    0.45798842994665279     
   5.3400000000000003E-002    0.44947956604464778     
   5.3699999999999998E-002    0.43400463310163140     
   5.4000000000000006E-002    0.41265758207793013     
   5.4300000000000001E-002    0.38649764474065584     
   5.4599999999999996E-002    0.35649215144862190     
   5.4900000000000004E-002    0.32342573598898561     
   5.5199999999999999E-002    0.28789363569928383     
   5.5499999999999994E-002    0.25040673056535834     
   5.5800000000000002E-002    0.21135045364277083     
   5.6099999999999997E-002    0.17097545547180015     
   5.6400000000000006E-002    0.12955802049346943     
   5.6700000000000000E-002     8.7444879956045884E-002
   5.6999999999999995E-002     4.5148789787161192E-002
   5.7300000000000004E-002     3.3552383432363803E-003
   5.7599999999999998E-002    -3.7056012735500965E-002
   5.7900000000000007E-002    -7.4940511825754674E-002
   5.8200000000000002E-002   -0.10898745606220439     
   5.8499999999999996E-002   -0.13775957102726188     
   5.8800000000000005E-002   -0.15983516190065572     
   5.9100000000000000E-002   -0.17397685944463692     
   5.9400000000000008E-002   -0.17918124896449328     
   5.9700000000000003E-002   -0.17487758408986132     
   6.0000000000000012E-002   -0.16112356959001861     
   6.0300000000000006E-002   -0.13863594811876201     
   6.0600000000000001E-002   -0.10879350024994316     
   6.0900000000000010E-002    -7.3617075476889227E-002
   6.1200000000000004E-002    -3.5738881156213154E-002
   6.1500000000000013E-002     1.7974735649712859E-003
   6.1800000000000008E-002     3.5821435983946714E-002
   6.2100000000000002E-002     6.3219600376572815E-002
   6.2399999999999997E-002     8.1190001798036704E-002
   6.2700000000000006E-002     8.7472189333922756E-002
   6.3000000000000000E-002     8.0596523856454549E-002
   6.3300000000000009E-002     6.0065878703672082E-002
   6.3600000000000004E-002     2.6373910256134003E-002
   6.3899999999999998E-002    -1.8979969332878488E-002
   6.4199999999999993E-002    -7.3522382165166378E-002
   6.4500000000000002E-002   -0.13398743139387603     
   6.4800000000000010E-002   -0.19651678271207551     
   6.5100000000000005E-002   -0.25685544874013289     
   6.5400000000000000E-002   -0.31063365359074169     
   6.5700000000000008E-002   -0.35372614794923862     
   6.5999999999999989E-002   -0.38249144864630047     
   6.6299999999999998E-002   -0.39398707929776045     
   6.6600000000000006E-002   -0.38619233047798041     
   6.6900000000000001E-002   -0.35821241114105185     
   6.7199999999999996E-002   -0.31045167463308232     
   6.7500000000000004E-002   -0.24450094370018594     
   6.7800000000000013E-002   -0.16310853421756466     
   6.8099999999999994E-002    -7.0144745937986031E-002
   6.8400000000000002E-002     2.9651825609484206E-002
   6.8700000000000011E-002    0.13098095527868936     
   6.8999999999999992E-002    0.22839807168365667     
   6.9300000000000000E-002    0.31658678727395362     
   6.9600000000000009E-002    0.39061545213574433     
   6.9900000000000004E-002    0.44638254582968351     
   7.0199999999999999E-002    0.48094049783586357     
   7.0500000000000007E-002    0.49255554437061910     
   7.0800000000000016E-002    0.48067867784395624     
   7.1099999999999997E-002    0.44592707428043710     
   7.1400000000000005E-002    0.39002283554152939     
   7.1700000000000000E-002    0.31558018286982126     
   7.1999999999999995E-002    0.22567733242605748     
   7.2300000000000003E-002    0.12356662001786889     
   7.2600000000000012E-002     1.2540955609417370E-002
   7.2900000000000006E-002   -0.10424510462227443     
   7.3200000000000001E-002   -0.22393711326545551     
   7.3499999999999996E-002   -0.34405655106957944     
   7.3800000000000004E-002   -0.46241122954640090     
   7.4099999999999999E-002   -0.57681750161589562     
   7.4400000000000008E-002   -0.68508280343478845     
   7.4700000000000003E-002   -0.78488497527628809     
   7.5000000000000011E-002   -0.87364316687754240     
   7.5299999999999992E-002   -0.94849619286051023     
   7.5600000000000001E-002    -1.0062657591190636     
   7.5900000000000009E-002    -1.0437492816234979     
   7.6200000000000004E-002    -1.0579865771951660     
   7.6499999999999999E-002    -1.0463888892623814     
   7.6800000000000007E-002    -1.0070905556019341     
   7.7099999999999988E-002   -0.93920112044388659     
   7.7399999999999997E-002   -0.84303666698665580     
   7.7700000000000005E-002   -0.72020855783076954     
   7.8000000000000014E-002   -0.57349037106027367     
   7.8299999999999995E-002   -0.40688305291916471     
   7.8600000000000003E-002   -0.22530279834303091     
   7.8900000000000012E-002    -3.4307061929646498E-002
   7.9199999999999993E-002    0.16015432622591264     
   7.9500000000000001E-002    0.35203299232324170     
   7.9800000000000010E-002    0.53544344405350586     
   8.0100000000000018E-002    0.70488011398095907     
   8.0399999999999999E-002    0.85532216655583682     
   8.0700000000000008E-002    0.98238283145185079     
   8.1000000000000003E-002     1.0824124565248212     
   8.1299999999999997E-002     1.1523730435553290     
   8.1600000000000006E-002     1.1901491062422878     
   8.1900000000000014E-002     1.1946094763887345     
   8.2199999999999995E-002     1.1656217523038492     
   8.2500000000000004E-002     1.1042540033953259     
   8.2799999999999999E-002     1.0127704225806369     
   8.3100000000000007E-002    0.89500859693541557     
   8.3400000000000002E-002    0.75613881967457175     
   8.3700000000000011E-002    0.60241247123846975     
   8.4000000000000005E-002    0.44110234289001049     
   8.4300000000000000E-002    0.28009279068866455     
   8.4599999999999995E-002    0.12739128448092707     
   8.4900000000000003E-002    -9.6762073925542591E-003
   8.5199999999999998E-002   -0.12499916730345295     
   8.5500000000000007E-002   -0.21387149122001547     
   8.5800000000000001E-002   -0.27372084008184228     
   8.6100000000000010E-002   -0.30435223899354291     
   8.6399999999999991E-002   -0.30795283674811103     
   8.6699999999999999E-002   -0.28877708438720262     
   8.7000000000000008E-002   -0.25265502781290383     
   8.7300000000000003E-002   -0.20658117166247791     
   8.7599999999999997E-002   -0.15788655265811791     
   8.7900000000000006E-002   -0.11349638946240770     
   8.8200000000000014E-002    -7.9166052518137686E-002
   8.8499999999999995E-002    -5.8815475948356122E-002
   8.8800000000000004E-002    -5.4249574882409668E-002
   8.9100000000000013E-002    -6.4934450606547678E-002
   8.9399999999999993E-002    -8.8067121759168199E-002
   8.9700000000000002E-002   -0.11889252485629553     
   9.0000000000000011E-002   -0.15117911725788158     
   9.0299999999999991E-002   -0.17800879283498006     
   9.0600000000000000E-002   -0.19243307144527844     
   9.0900000000000009E-002   -0.18833357773480319     
   9.1200000000000017E-002   -0.16112163038176597     
   9.1499999999999998E-002   -0.10823958897009245     
   9.1800000000000007E-002    -2.9590714083605252E-002
   9.2100000000000001E-002     7.2377475850167183E-002
   9.2399999999999996E-002    0.19259060573191367     
   9.2700000000000005E-002    0.32372694433932558     
   9.3000000000000013E-002    0.45672651916812868     
   9.3300000000000008E-002    0.58130808857170280     
   9.3600000000000003E-002    0.68680965469511079     
   9.3899999999999997E-002    0.76290191388345363     
   9.4200000000000006E-002    0.80033807464015894     
   9.4500000000000001E-002    0.79179276153674394     
   9.4800000000000009E-002    0.73231556682676668     
   9.5100000000000004E-002    0.61991636537621986     
   9.5399999999999999E-002    0.45589017065288928     
   9.5699999999999993E-002    0.24481704136092297     
   9.6000000000000002E-002    -5.4834808951915726E-003
   9.6300000000000011E-002   -0.28437358834976489     
   9.6600000000000005E-002   -0.57874872502260644     
   9.6900000000000000E-002   -0.87380127048180256     
   9.7200000000000009E-002    -1.1539922128016400     
   9.7499999999999989E-002    -1.4038632449461801     
   9.7799999999999998E-002    -1.6089497575485012     
   9.8100000000000007E-002    -1.7566297276048886     
   9.8400000000000015E-002    -1.8369958094432022     
   9.8699999999999996E-002    -1.8434281454426014     
   9.9000000000000005E-002    -1.7729860770240862     
   9.9300000000000013E-002    -1.6265222047720655     
   9.9599999999999994E-002    -1.4086307492397765     
   9.9900000000000003E-002    -1.1273974456258742     
  0.10020000000000001        -0.79370970160751853     
  0.10049999999999999        -0.42065574696645491     
  0.10080000000000000         -2.2919742082814665E-002
  0.10110000000000001         0.38407054775464733     
  0.10140000000000000         0.78489998582314424     
  0.10170000000000000          1.1650769709249325     
  0.10200000000000001          1.5112423739063168     
  0.10230000000000002          1.8115635088054560     
  0.10260000000000000          2.0564439283814480     
  0.10290000000000001          2.2384459907959098     
  0.10320000000000000          2.3524341427513491     
  0.10350000000000001          2.3955442273862673     
  0.10380000000000000          2.3669388429355962     
  0.10410000000000001          2.2678036330958662     
  0.10440000000000001          2.1011970992697968     
  0.10470000000000000          1.8718182842977029     
  0.10500000000000000          1.5857498754600883     
  0.10530000000000000          1.2501822886342495     
  0.10560000000000000         0.87344175125915768     
  0.10590000000000001         0.46484080562075469     
  0.10620000000000000          3.4389356317096276E-002
  0.10650000000000001        -0.40735854985524078     
  0.10679999999999999        -0.84928349476438214     
  0.10710000000000000         -1.2799582473047870     
  0.10740000000000001         -1.6877882264071147     
  0.10770000000000000         -2.0611035874373655     
  0.10800000000000000         -2.3886443998699534     
  0.10830000000000001         -2.6595730730418978     
  0.10859999999999999         -2.8637505879299709     
  0.10890000000000000         -2.9922730182483974     
  0.10920000000000001         -3.0376680460013290     
  0.10950000000000001         -2.9943324886048117     
  0.10979999999999999         -2.8588570288451223     
  0.11009999999999999         -2.6303747303690699     
  0.11040000000000001         -2.3110818594518889     
  0.11070000000000001         -1.9063316473322374     
  0.11100000000000000         -1.4249556120195237     
  0.11130000000000000        -0.87937957086359830     
  0.11160000000000002        -0.28548802301342491     
  0.11190000000000001         0.33737342750869459     
  0.11220000000000001         0.96727284615006559     
  0.11250000000000000          1.5802197538500273     
  0.11280000000000000          2.1509259782268799     
  0.11309999999999999          2.6540817828401515     
  0.11340000000000001          3.0658426040661055     
  0.11369999999999998          3.3651966051357505     
  0.11400000000000000          3.5350796739450772     
  0.11430000000000000          3.5638240543887605     
  0.11460000000000002          3.4462064153349417     
  0.11489999999999999          3.1838648575362072     
  0.11520000000000001          2.7857685717816025     
  0.11550000000000001          2.2679362674342229     
  0.11580000000000000          1.6527898510473804     
  0.11609999999999999         0.96783010043575146     
  0.11640000000000002         0.24425633873149799     
  0.11670000000000001        -0.48428083156842661     
  0.11700000000000001         -1.1840264774612705     
  0.11730000000000000         -1.8228930475774234     
  0.11760000000000000         -2.3718606868760119     
  0.11789999999999999         -2.8064375224113434     
  0.11820000000000001         -3.1078604622426269     
  0.11850000000000001         -3.2642752301023137     
  0.11880000000000000         -3.2706501231741214     
  0.11910000000000000         -3.1287992327061289     
  0.11940000000000002         -2.8475205844704305     
  0.11970000000000001         -2.4418285542109430     
  0.12000000000000001         -1.9323365096552578     
  0.12030000000000000         -1.3438961756812375     
  0.12060000000000000        -0.70422312045091928     
  0.12089999999999999         -4.3247654688408410E-002
  0.12119999999999999         0.60847572020763607     
  0.12150000000000001          1.2215378489355500     
  0.12180000000000001          1.7689646466159559     
  0.12210000000000000          2.2272982995756720     
  0.12239999999999999          2.5776560623258007     
  0.12270000000000002          2.8069333538243626     
  0.12300000000000001          2.9084146272436300     
  0.12330000000000001          2.8817654372707153     
  0.12360000000000000          2.7328341976866710     
  0.12390000000000000          2.4735349823712340     
  0.12419999999999999          2.1207144481349047     
  0.12450000000000001          1.6948486585338429     
  0.12480000000000001          1.2189691587054270     
  0.12509999999999999         0.71700372105360799     
  0.12540000000000001         0.21250755461413418     
  0.12570000000000003        -0.27269795713583100     
  0.12600000000000000        -0.71974735199917728     
  0.12630000000000002         -1.1131285852985968     
  0.12659999999999999         -1.4413711817201360     
  0.12690000000000001         -1.6970863274368497     
  0.12719999999999998         -1.8765850263658876     
  0.12750000000000000         -1.9801398825637122     
  0.12780000000000002         -2.0110459269148109     
  0.12809999999999999         -1.9749679755419365     
  0.12840000000000001         -1.8796691305963691     
  0.12869999999999998         -1.7345210099173016     
  0.12900000000000000         -1.5500682365748304     
  0.12930000000000003         -1.3371264193931793     
  0.12959999999999999         -1.1063533446148384     
  0.12990000000000002        -0.86837314067986426     
  0.13019999999999998        -0.63263843981227907     
  0.13050000000000000        -0.40672612966693578     
  0.13080000000000003        -0.19649779225625696     
  0.13109999999999999         -5.6116529619030242E-003
  0.13140000000000002         0.16498633697320109     
  0.13169999999999998         0.31698901001384794     
  0.13200000000000001         0.45395315057804630     
  0.13229999999999997         0.58082907430658182     
  0.13260000000000000         0.70316756202511499     
  0.13290000000000002         0.82615545658680389     
  0.13319999999999999         0.95344646805651223     
  0.13350000000000001          1.0860336626884113     
  0.13380000000000003          1.2215904500892485     
  0.13410000000000000          1.3542245736926901     
  0.13440000000000002          1.4748791937359798     
  0.13469999999999999          1.5714569558812244     
  0.13500000000000001          1.6296027141005780     
  0.13529999999999998          1.6348609261606484     
  0.13560000000000000          1.5743975995579333     
  0.13590000000000002          1.4380235526496747     
  0.13619999999999999          1.2198409209360506     
  0.13650000000000001         0.91970689982729681     
  0.13680000000000003         0.54420286993022060     
  0.13710000000000000         0.10640040759427305     
  0.13740000000000002        -0.37455790379688736     
  0.13769999999999999        -0.87430240324555308     
  0.13800000000000001         -1.3650158395048848     
  0.13829999999999998         -1.8173093232412754     
  0.13860000000000000         -2.2022169878923350     
  0.13890000000000002         -2.4937845318256322     
  0.13919999999999999         -2.6710815547753413     
  0.13950000000000001         -2.7195921360331283     
  0.13979999999999998         -2.6326773824418552     
  0.14010000000000000         -2.4123974748661681     
  0.14040000000000002         -2.0693731530425623     
  0.14069999999999999         -1.6218859499326967     
  0.14100000000000001         -1.0945895312330407     
  0.14130000000000004        -0.51700300672148636     
  0.14160000000000000          7.8613179286117330E-002
  0.14189999999999997         0.65975164817403353     
  0.14219999999999999          1.1959878114403981     
  0.14250000000000002          1.6610186995847407     
  0.14279999999999998          2.0335742470925382     
  0.14310000000000000          2.2988512218308941     
  0.14339999999999997          2.4496327304745762     
  0.14369999999999999          2.4854723687925002     
  0.14400000000000002          2.4118179458584876     
  0.14429999999999998          2.2394479446007978     
  0.14460000000000001          1.9834128529199688     
  0.14490000000000003          1.6613869081836370     
  0.14520000000000000          1.2919731968502859     
  0.14550000000000002         0.89417457830221636     
  0.14579999999999999         0.48682322349067064     
  0.14610000000000001          8.7374626496854235E-002
  0.14640000000000003        -0.28813328268343952     
  0.14670000000000000        -0.62492196797927146     
  0.14699999999999996        -0.90980155621199899     
  0.14729999999999999         -1.1311662119416894     
  0.14760000000000001         -1.2791805239075877     
  0.14789999999999998         -1.3464491346209897     
  0.14820000000000000         -1.3283760810147669     