  -1.4999999999999999E-002     0.0000000000000000     
  -1.4700000000000000E-002     0.0000000000000000     
  -1.4400000000000000E-002     0.0000000000000000     
  -1.4100000000000000E-002     0.0000000000000000     
  -1.3800000000000000E-002     0.0000000000000000     
  -1.3500000000000000E-002     0.0000000000000000     
  -1.3200000000000000E-002     0.0000000000000000     
  -1.2899999999999998E-002     0.0000000000000000     
  -1.2600000000000000E-002     0.0000000000000000     
  -1.2299999999999998E-002     0.0000000000000000     
  -1.2000000000000000E-002     0.0000000000000000     
  -1.1699999999999999E-002     0.0000000000000000     
  -1.1399999999999999E-002     0.0000000000000000     
  -1.1099999999999999E-002     0.0000000000000000     
  -1.0799999999999999E-002     0.0000000000000000     
  -1.0499999999999999E-002     0.0000000000000000     
  -1.0199999999999999E-002     0.0000000000000000     
  -9.8999999999999991E-003     0.0000000000000000     
  -9.5999999999999992E-003     0.0000000000000000     
  -9.2999999999999992E-003     0.0000000000000000     
  -8.9999999999999993E-003     0.0000000000000000     
  -8.6999999999999994E-003     0.0000000000000000     
  -8.3999999999999995E-003     0.0000000000000000     
  -8.0999999999999996E-003     0.0000000000000000     
  -7.7999999999999988E-003     0.0000000000000000     
  -7.4999999999999997E-003     0.0000000000000000     
  -7.1999999999999998E-003     0.0000000000000000     
  -6.8999999999999981E-003     0.0000000000000000     
  -6.5999999999999982E-003     0.0000000000000000     
  -6.3000000000000000E-003     0.0000000000000000     
  -6.0000000000000001E-003     0.0000000000000000     
  -5.6999999999999985E-003     0.0000000000000000     
  -5.3999999999999986E-003     0.0000000000000000     
  -5.1000000000000004E-003     0.0000000000000000     
  -4.7999999999999987E-003     0.0000000000000000     
  -4.5000000000000005E-003     0.0000000000000000     
  -4.1999999999999989E-003     0.0000000000000000     
  -3.8999999999999990E-003     0.0000000000000000     
  -3.5999999999999990E-003     0.0000000000000000     
  -3.2999999999999991E-003     0.0000000000000000     
  -2.9999999999999992E-003     0.0000000000000000     
  -2.6999999999999993E-003     0.0000000000000000     
  -2.3999999999999994E-003     0.0000000000000000     
  -2.0999999999999977E-003     0.0000000000000000     
  -1.7999999999999995E-003     0.0000000000000000     
  -1.4999999999999979E-003     0.0000000000000000     
  -1.1999999999999997E-003     0.0000000000000000     
  -8.9999999999999976E-004     0.0000000000000000     
  -5.9999999999999810E-004     0.0000000000000000     
  -2.9999999999999992E-004     0.0000000000000000     
   0.0000000000000000          0.0000000000000000     
   3.0000000000000165E-004     0.0000000000000000     
   5.9999999999999984E-004     0.0000000000000000     
   9.0000000000000149E-004     0.0000000000000000     
   1.2000000000000031E-003     0.0000000000000000     
   1.5000000000000013E-003     0.0000000000000000     
   1.8000000000000030E-003     0.0000000000000000     
   2.1000000000000012E-003    -1.7672629165144120E-037
   2.3999999999999994E-003     1.3403296497002015E-036
   2.7000000000000010E-003     4.2041662359416359E-037
   2.9999999999999992E-003    -1.8549697614017692E-036
   3.3000000000000008E-003     1.7771551778732179E-035
   3.6000000000000025E-003    -6.2268214431304989E-035
   3.9000000000000007E-003    -1.3117753572614915E-034
   4.2000000000000023E-003     6.5901726014825481E-034
   4.5000000000000005E-003    -1.4660703830002152E-032
   4.7999999999999987E-003     1.1472388755621371E-031
   5.1000000000000004E-003    -1.4882149921028984E-031
   5.4000000000000020E-003    -4.6055721963522242E-030
   5.7000000000000037E-003     4.4482626146528670E-029
   5.9999999999999984E-003    -1.5882650731813285E-028
   6.3000000000000000E-003    -3.6352348997484411E-028
   6.6000000000000017E-003     6.8666258828006977E-027
   6.9000000000000034E-003    -3.2916324443018863E-026
   7.2000000000000015E-003     4.3228646996762319E-026
   7.5000000000000032E-003     3.7858110303706452E-025
   7.8000000000000014E-003    -2.6950227841843143E-024
   8.0999999999999996E-003     7.9563690485249821E-024
   8.4000000000000012E-003    -3.0543250634701023E-024
   8.7000000000000029E-003    -7.8075393947023651E-023
   9.0000000000000011E-003     3.6866193879911429E-022
   9.2999999999999992E-003    -7.7024282860293518E-022
   9.6000000000000009E-003    -2.7020821032099109E-022
   9.8999999999999991E-003     7.8657476864719704E-021
   1.0200000000000001E-002    -2.9334877980813418E-020
   1.0500000000000002E-002     5.5209575448786560E-020
   1.0800000000000004E-002    -2.4207085197194899E-021
   1.1099999999999999E-002    -3.6218813978973230E-019
   1.1400000000000000E-002     1.3294976200544295E-018
   1.1700000000000002E-002    -2.3850822384777431E-018
   1.2000000000000004E-002    -7.2693376693711370E-019
   1.2300000000000002E-002     2.3497279600707979E-017
   1.2600000000000000E-002    -1.1349754449262953E-016
   1.2900000000000002E-002     4.4794691552921392E-016
   1.3200000000000000E-002    -1.9572212435286195E-015
   1.3500000000000002E-002     1.0120551247635827E-014
   1.3800000000000003E-002    -5.4801276635086521E-014
   1.4100000000000001E-002     2.7663711165554217E-013
   1.4400000000000000E-002    -1.2261975289307170E-012
   1.4700000000000001E-002     4.5786790157931190E-012
   1.4999999999999999E-002    -1.3529910698750758E-011
   1.5300000000000001E-002     2.6677597630975214E-011
   1.5600000000000003E-002    -4.9896033485485880E-012
   1.5899999999999997E-002    -2.0737876693655011E-010
   1.6199999999999999E-002     8.7551593752621670E-010
   1.6500000000000001E-002    -1.6599057683919227E-009
   1.6800000000000002E-002    -4.0715159022042258E-010
   1.7100000000000004E-002     1.0678818718190541E-008
   1.7400000000000006E-002    -2.2112754294312253E-008
   1.7700000000000000E-002    -9.2216172475900748E-009
   1.8000000000000002E-002     1.0857728227620100E-007
   1.8300000000000004E-002    -8.4483858131534362E-008
   1.8600000000000005E-002    -3.3649533293100831E-007
   1.8900000000000000E-002     3.8190165696505574E-007
   1.9200000000000002E-002     1.0403574606243637E-006
   1.9500000000000003E-002    -8.2848606552943238E-007
   1.9799999999999998E-002    -3.6559285945259035E-006
   2.0100000000000000E-002     1.2303488006182306E-007
   2.0400000000000001E-002     1.7918997400556691E-005
   2.0700000000000003E-002     4.9865466280607507E-005
   2.0999999999999998E-002     9.1640176833607256E-005
   2.1299999999999999E-002     1.4376582112163305E-004
   2.1600000000000001E-002     2.1666129759978503E-004
   2.1900000000000003E-002     3.3096986589953303E-004
   2.2200000000000004E-002     5.1439472008496523E-004
   2.2500000000000006E-002     7.9897546675056219E-004
   2.2800000000000001E-002     1.2256151530891657E-003
   2.3100000000000002E-002     1.8512136302888393E-003
   2.3400000000000004E-002     2.7549760416150093E-003
   2.3699999999999999E-002     4.0453411638736725E-003
   2.4000000000000000E-002     5.8639715425670147E-003
   2.4300000000000002E-002     8.3873206749558449E-003
   2.4599999999999997E-002     1.1828543618321419E-002
   2.4900000000000005E-002     1.6439579427242279E-002
   2.5200000000000000E-002     2.2510491311550140E-002
   2.5499999999999995E-002     3.0357990413904190E-002
   2.5800000000000003E-002     4.0304772555828094E-002
   2.6099999999999998E-002     5.2652947604656219E-002
   2.6400000000000007E-002     6.7646875977516174E-002
   2.6700000000000002E-002     8.5418447852134705E-002
   2.6999999999999996E-002    0.10592025518417358     
   2.7300000000000005E-002    0.12884923815727234     
   2.7600000000000000E-002    0.15356265008449554     
   2.7900000000000008E-002    0.17900747060775757     
   2.8200000000000003E-002    0.20364135503768921     
   2.8499999999999998E-002    0.22540430724620819     
   2.8800000000000006E-002    0.24171029031276703     
   2.9100000000000001E-002    0.24949209392070770     
   2.9400000000000003E-002    0.24531760811805725     
   2.9700000000000004E-002    0.22556892037391663     
   3.0000000000000006E-002    0.18672950565814972     
   3.0300000000000001E-002    0.12571048736572266     
   3.0600000000000002E-002     4.0239647030830383E-002
   3.0900000000000004E-002    -7.0710219442844391E-002
   3.1199999999999999E-002   -0.20656028389930725     
   3.1500000000000007E-002   -0.36472892761230469     
   3.1800000000000002E-002   -0.54042959213256836     
   3.2099999999999997E-002   -0.72661340236663818     
   3.2400000000000005E-002   -0.91401869058609009     
   3.2700000000000000E-002    -1.0916494131088257     
   3.3000000000000002E-002    -1.2472093105316162     
   3.3300000000000003E-002    -1.3680000305175781     
   3.3599999999999998E-002    -1.4417846202850342     
   3.3900000000000000E-002    -1.4578180313110352     
   3.4200000000000001E-002    -1.4079457521438599     
   3.4500000000000003E-002    -1.2873575687408447     
   3.4799999999999998E-002    -1.0954962968826294     
   3.5099999999999999E-002   -0.83629798889160156     
   3.5400000000000001E-002   -0.51827287673950195     
   3.5699999999999996E-002   -0.15431949496269226     
   3.6000000000000004E-002    0.23925550282001495     
   3.6299999999999999E-002    0.64353513717651367     
   3.6600000000000008E-002     1.0383533239364624     
   3.6900000000000002E-002     1.4038077592849731     
   3.7199999999999997E-002     1.7214571237564087     
   3.7500000000000006E-002     1.9757423400878906     
   3.7800000000000000E-002     2.1550865173339844     
   3.8100000000000009E-002     2.2523307800292969     
   3.8400000000000004E-002     2.2653779983520508     
   3.8699999999999998E-002     2.1968281269073486     
   3.9000000000000007E-002     2.0536878108978271     
   3.9300000000000002E-002     1.8466542959213257     
   3.9600000000000003E-002     1.5889537334442139     
   3.9900000000000005E-002     1.2955646514892578     
   4.0200000000000000E-002    0.98170125484466553     
   4.0500000000000001E-002    0.66217488050460815     
   4.0800000000000003E-002    0.35032466053962708     
   4.1100000000000005E-002     5.7313088327646255E-002
   4.1399999999999999E-002   -0.20791991055011749     
   4.1700000000000008E-002   -0.43928986787796021     
   4.2000000000000003E-002   -0.63304859399795532     
   4.2299999999999997E-002   -0.78790980577468872     
   4.2600000000000006E-002   -0.90448671579360962     
   4.2900000000000001E-002   -0.98477286100387573     
   4.3200000000000002E-002    -1.0319379568099976     
   4.3500000000000004E-002    -1.0496236085891724     
   4.3799999999999999E-002    -1.0417972803115845     
   4.4100000000000000E-002    -1.0123497247695923     
   4.4400000000000002E-002   -0.96490299701690674     
   4.4700000000000004E-002   -0.90287834405899048     
   4.4999999999999998E-002   -0.82929098606109619     
   4.5300000000000000E-002   -0.74713230133056641     
   4.5600000000000002E-002   -0.65919041633605957     
   4.5899999999999996E-002   -0.56844782829284668     
   4.6200000000000005E-002   -0.47814401984214783     
   4.6500000000000000E-002   -0.39175948500633240     
   4.6799999999999994E-002   -0.31330955028533936     
   4.7100000000000003E-002   -0.24709960818290710     
   4.7399999999999998E-002   -0.19779908657073975     
   4.7700000000000006E-002   -0.17004115879535675     
   4.8000000000000001E-002   -0.16800200939178467     
   4.8300000000000010E-002   -0.19514456391334534     
   4.8600000000000004E-002   -0.25341379642486572     
   4.8899999999999999E-002   -0.34297651052474976     
   4.9200000000000008E-002   -0.46146637201309204     
   4.9500000000000002E-002   -0.60361093282699585     
   4.9800000000000011E-002   -0.76114505529403687     
   5.0100000000000006E-002   -0.92260533571243286     
   5.0400000000000000E-002    -1.0739244222640991     
   5.0700000000000009E-002    -1.1989194154739380     
   5.1000000000000004E-002    -1.2804217338562012     
   5.1299999999999998E-002    -1.3017222881317139     
   5.1600000000000007E-002    -1.2478137016296387     
   5.1900000000000002E-002    -1.1073123216629028     
   5.2200000000000010E-002   -0.87375432252883911     
   5.2500000000000005E-002   -0.54696136713027954     
   5.2800000000000000E-002   -0.13380800187587738     
   5.3099999999999994E-002    0.35156300663948059     
   5.3400000000000003E-002    0.88811230659484863     
   5.3699999999999998E-002     1.4490014314651489     
   5.4000000000000006E-002     2.0031871795654297     
   5.4300000000000001E-002     2.5176568031311035     
   5.4599999999999996E-002     2.9599518775939941     
   5.4900000000000004E-002     3.3004958629608154     
   5.5199999999999999E-002     3.5150949954986572     
   5.5499999999999994E-002     3.5870070457458496     
   5.5800000000000002E-002     3.5079636573791504     
   5.6099999999999997E-002     3.2792649269104004     
   5.6400000000000006E-002     2.9112010002136230     
   5.6700000000000000E-002     2.4224474430084229     
   5.6999999999999995E-002     1.8386614322662354     
   5.7300000000000004E-002     1.1899787187576294     
   5.7599999999999998E-002    0.50939965248107910     
   5.7900000000000007E-002   -0.17023591697216034     
   5.8200000000000002E-002   -0.81800377368927002     
   5.8499999999999996E-002    -1.4068076610565186     
   5.8800000000000005E-002    -1.9151692390441895     
   5.9100000000000000E-002    -2.3275761604309082     
   5.9400000000000008E-002    -2.6353342533111572     
   5.9700000000000003E-002    -2.8360700607299805     
   6.0000000000000012E-002    -2.9332473278045654     
   6.0300000000000006E-002    -2.9352760314941406     
   6.0600000000000001E-002    -2.8541417121887207     
   6.0900000000000010E-002    -2.7046723365783691     
   6.1200000000000004E-002    -2.5028769969940186     
   6.1500000000000013E-002    -2.2651889324188232     
   6.1800000000000008E-002    -2.0074784755706787     
   6.2100000000000002E-002    -1.7440649271011353     
   6.2399999999999997E-002    -1.4872719049453735     
   6.2700000000000006E-002    -1.2468457221984863     
   6.3000000000000000E-002    -1.0298473834991455     
   6.3300000000000009E-002   -0.83976531028747559     
   6.3600000000000004E-002   -0.67717343568801880     
   6.3899999999999998E-002   -0.53898131847381592     
   6.4199999999999993E-002   -0.41894531250000000     
   6.4500000000000002E-002   -0.30808737874031067     
   6.4800000000000010E-002   -0.19468945264816284     
   6.5100000000000005E-002    -6.6391445696353912E-002
   6.5400000000000000E-002     9.0159468352794647E-002
   6.5700000000000008E-002    0.28649666905403137     
   6.5999999999999989E-002    0.53142744302749634     
   6.6299999999999998E-002    0.83006936311721802     
   6.6600000000000006E-002     1.1811721324920654     
   6.6900000000000001E-002     1.5778601169586182     
   6.7199999999999996E-002     2.0057151317596436     
   6.7500000000000004E-002     2.4439730644226074     
   6.7800000000000013E-002     2.8665351867675781     
   6.8099999999999994E-002     3.2427930831909180     
   6.8400000000000002E-002     3.5413546562194824     
   6.8700000000000011E-002     3.7315528392791748     
   6.8999999999999992E-002     3.7871267795562744     
   6.9300000000000000E-002     3.6885406970977783     
   6.9600000000000009E-002     3.4253368377685547     
   6.9900000000000004E-002     2.9981164932250977     
   7.0199999999999999E-002     2.4186275005340576     
   7.0500000000000007E-002     1.7100219726562500     
   7.0800000000000016E-002    0.90484976768493652     
   7.1099999999999997E-002     4.3243266642093658E-002
   7.1400000000000005E-002   -0.83042538166046143     
   7.1700000000000000E-002    -1.6704024076461792     
   7.1999999999999995E-002    -2.4337317943572998     
   7.2300000000000003E-002    -3.0829563140869141     
   7.2600000000000012E-002    -3.5887315273284912     
   7.2900000000000006E-002    -3.9321641921997070     
   7.3200000000000001E-002    -4.1046309471130371     
   7.3499999999999996E-002    -4.1088604927062988     
   7.3800000000000004E-002    -3.9567279815673828     
   7.4099999999999999E-002    -3.6677405834197998     
   7.4400000000000008E-002    -3.2673530578613281     
   7.4700000000000003E-002    -2.7825560569763184     
   7.5000000000000011E-002    -2.2412066459655762     
   7.5299999999999992E-002    -1.6685576438903809     
   7.5600000000000001E-002    -1.0855448246002197     
   7.5900000000000009E-002   -0.50892680883407593     
   7.6200000000000004E-002     5.0547808408737183E-002
   7.6499999999999999E-002    0.58587270975112915     
   7.6800000000000007E-002     1.0937241315841675     
   7.7099999999999988E-002     1.5729999542236328     
   7.7399999999999997E-002     2.0217466354370117     
   7.7700000000000005E-002     2.4374504089355469     
   7.8000000000000014E-002     2.8139135837554932     
   7.8299999999999995E-002     3.1416540145874023     
   7.8600000000000003E-002     3.4078469276428223     
   7.8900000000000012E-002     3.5962386131286621     
   7.9199999999999993E-002     3.6899998188018799     
   7.9500000000000001E-002     3.6722085475921631     
   7.9800000000000010E-002     3.5288140773773193     
   8.0100000000000018E-002     3.2508966922760010     
   8.0399999999999999E-002     2.8362286090850830     
   8.0700000000000008E-002     2.2912454605102539     
   8.1000000000000003E-002     1.6315892934799194     
   8.1299999999999997E-002    0.88183498382568359     
   8.1600000000000006E-002     7.4329718947410583E-002
   8.1900000000000014E-002   -0.75227010250091553     
   8.2199999999999995E-002    -1.5561710596084595     
   8.2500000000000004E-002    -2.2952816486358643     
   8.2799999999999999E-002    -2.9303348064422607     
   8.3100000000000007E-002    -3.4281926155090332     
   8.3400000000000002E-002    -3.7634959220886230     
   8.3700000000000011E-002    -3.9219949245452881     
   8.4000000000000005E-002    -3.8995752334594727     
   8.4300000000000000E-002    -3.7036960124969482     
   8.4599999999999995E-002    -3.3520479202270508     
   8.4900000000000003E-002    -2.8701527118682861     
   8.5199999999999998E-002    -2.2907905578613281     
   8.5500000000000007E-002    -1.6493967771530151     
   8.5800000000000001E-002   -0.98368859291076660     
   8.6100000000000010E-002   -0.32983389496803284     
   8.6399999999999991E-002    0.27898982167243958     
   8.6699999999999999E-002    0.81327521800994873     
   8.7000000000000008E-002     1.2501803636550903     
   8.7300000000000003E-002     1.5718697309494019     
   8.7599999999999997E-002     1.7675441503524780     
   8.7900000000000006E-002     1.8325681686401367     
   8.8200000000000014E-002     1.7685233354568481     
   8.8499999999999995E-002     1.5836945772171021     
   8.8800000000000004E-002     1.2916451692581177     
   8.9100000000000013E-002    0.91235291957855225     
   8.9399999999999993E-002    0.47064232826232910     
   8.9700000000000002E-002    -4.0225554257631302E-003
   9.0000000000000011E-002   -0.47894397377967834     
   9.0299999999999991E-002   -0.91971129179000854     
   9.0600000000000000E-002    -1.2919654846191406     
   9.0900000000000009E-002    -1.5642039775848389     
   9.1200000000000017E-002    -1.7095074653625488     
   9.1499999999999998E-002    -1.7092893123626709     
   9.1800000000000007E-002    -1.5543612241744995     
   9.2100000000000001E-002    -1.2471969127655029     
   9.2399999999999996E-002   -0.80268561840057373     
   9.2700000000000005E-002   -0.24752306938171387     
   9.3000000000000013E-002    0.38009780645370483     
   9.3300000000000008E-002     1.0344172716140747     
   9.3600000000000003E-002     1.6638568639755249     
   9.3899999999999997E-002     2.2160673141479492     
   9.4200000000000006E-002     2.6420450210571289     
   9.4500000000000001E-002     2.8997051715850830     
   9.4800000000000009E-002     2.9591469764709473     
   9.5100000000000004E-002     2.8038184642791748     
   9.5399999999999999E-002     2.4343876838684082     
   9.5699999999999993E-002     1.8678942918777466     
   9.6000000000000002E-002     1.1374378204345703     
   9.6300000000000011E-002    0.29114365577697754     
   9.6600000000000005E-002   -0.61328905820846558     
   9.6900000000000000E-002    -1.5101591348648071     
   9.7200000000000009E-002    -2.3326678276062012     
   9.7499999999999989E-002    -3.0172288417816162     
   9.7799999999999998E-002    -3.5076866149902344     
   9.8100000000000007E-002    -3.7617475986480713     
   9.8400000000000015E-002    -3.7522413730621338     
   9.8699999999999996E-002    -3.4716334342956543     
   9.9000000000000005E-002    -2.9319064617156982     
   9.9300000000000013E-002    -2.1644434928894043     
   9.9599999999999994E-002    -1.2185118198394775     
   9.9900000000000003E-002   -0.15654468536376953     
  0.10020000000000001         0.94827020168304443     
  0.10049999999999999          2.0195636749267578     
  0.10080000000000000          2.9826190471649170     
  0.10110000000000001          3.7701449394226074     
  0.10140000000000000          4.3282399177551270     
  0.10170000000000000          4.6197323799133301     
  0.10200000000000001          4.6280941963195801     
  0.10230000000000002          4.3576889038085938     
  0.10260000000000000          3.8338971138000488     
  0.10290000000000001          3.1001782417297363     
  0.10320000000000000          2.2145767211914062     
  0.10350000000000001          1.2444530725479126     
  0.10380000000000000         0.26052501797676086     
  0.10410000000000001        -0.66824173927307129     
  0.10440000000000001         -1.4816842079162598     
  0.10470000000000000         -2.1309094429016113     
  0.10500000000000000         -2.5836689472198486     
  0.10530000000000000         -2.8252599239349365     
  0.10560000000000000         -2.8577005863189697     
  0.10590000000000001         -2.7001585960388184     
  0.10620000000000000         -2.3837339878082275     
  0.10650000000000001         -1.9498581886291504     
  0.10679999999999999         -1.4442092180252075     
  0.10710000000000000        -0.91225701570510864     
  0.10740000000000001        -0.39659681916236877     
  0.10770000000000000          6.9050446152687073E-002
  0.10800000000000000         0.45942977070808411     
  0.10830000000000001         0.76054251194000244     
  0.10859999999999999         0.96935796737670898     
  0.10890000000000000          1.0911972522735596     
  0.10920000000000001          1.1396256685256958     
  0.10950000000000001          1.1311546564102173     
  0.10979999999999999          1.0842255353927612     
  0.11009999999999999          1.0157185792922974     
  0.11040000000000001         0.93783962726593018     
  0.11070000000000001         0.85850119590759277     
  0.11100000000000000         0.77885448932647705     
  0.11130000000000000         0.69498801231384277     
  0.11160000000000002         0.59953749179840088     
  0.11190000000000001         0.48273760080337524     
  0.11220000000000001         0.33601412177085876     
  0.11250000000000000         0.15384106338024139     
  0.11280000000000000         -6.4525276422500610E-002
  0.11309999999999999        -0.31294956803321838     
  0.11340000000000001        -0.57891744375228882     
  0.11369999999999998        -0.84423381090164185     
  0.11400000000000000         -1.0859963893890381     
  0.11430000000000000         -1.2807314395904541     
  0.11460000000000002         -1.4063578844070435     
  0.11489999999999999         -1.4458057880401611     
  0.11520000000000001         -1.3905918598175049     
  0.11550000000000001         -1.2411519289016724     
  0.11580000000000000         -1.0097061395645142     
  0.11609999999999999        -0.71836131811141968     
  0.11640000000000002        -0.39783549308776855     
  0.11670000000000001         -8.5632957518100739E-002
  0.11700000000000001         0.18002492189407349     
  0.11730000000000000         0.36180105805397034     
  0.11760000000000000         0.42893451452255249     
  0.11789999999999999         0.36018586158752441     
  0.11820000000000001         0.14501965045928955     
  0.11850000000000001        -0.21310235559940338     
  0.11880000000000000        -0.69908207654953003     
  0.11910000000000000         -1.2862817049026489     
  0.11940000000000002         -1.9395773410797119     
  0.11970000000000001         -2.6190166473388672     
  0.12000000000000001         -3.2817943096160889     
  0.12030000000000000         -3.8873643875122070     
  0.12060000000000000         -4.3989682197570801     
  0.12089999999999999         -4.7858762741088867     
  0.12119999999999999         -5.0254273414611816     
  0.12150000000000001         -5.1023383140563965     
  0.12180000000000001         -5.0091953277587891     
  0.12210000000000000         -4.7456197738647461     
  0.12239999999999999         -4.3168454170227051     
  0.12270000000000002         -3.7328846454620361     
  0.12300000000000001         -3.0078485012054443     
  0.12330000000000001         -2.1579830646514893     
  0.12360000000000000         -1.2026438713073730     
  0.12390000000000000        -0.16218286752700806     
  0.12419999999999999         0.94169366359710693     
  0.12450000000000001          2.0854103565216064     
  0.12480000000000001          3.2462098598480225     
  0.12509999999999999          4.4002223014831543     
  0.12540000000000001          5.5231275558471680     
  0.12570000000000003          6.5930585861206055     
  0.12600000000000000          7.5872383117675781     
  0.12630000000000002          8.4856367111206055     
  0.12659999999999999          9.2692165374755859     
  0.12690000000000001          9.9200019836425781     
  0.12719999999999998          10.421644210815430     
  0.12750000000000000          10.756918907165527     
  0.12780000000000002          10.911039352416992     
  0.12809999999999999          10.867871284484863     
  0.12840000000000001          10.611869812011719     
  0.12869999999999998          10.129670143127441     
  0.12900000000000000          9.4086427688598633     
  0.12930000000000003          8.4418859481811523     
  0.12959999999999999          7.2260065078735352     
  0.12990000000000002          5.7673473358154297     
  0.13019999999999998          4.0811085700988770     
  0.13050000000000000          2.1940238475799561     
  0.13080000000000003         0.14515310525894165     
  0.13109999999999999         -2.0147423744201660     
  0.13140000000000002         -4.2234368324279785     
  0.13169999999999998         -6.4107341766357422     
  0.13200000000000001         -8.4992895126342773     
  0.13229999999999997         -10.411244392395020     
  0.13260000000000000         -12.070357322692871     
  0.13290000000000002         -13.407437324523926     
  0.13319999999999999         -14.364316940307617     
  0.13350000000000001         -14.896873474121094     
  0.13380000000000003         -14.979621887207031     
  0.13410000000000000         -14.604196548461914     
  0.13440000000000002         -13.782625198364258     
  0.13469999999999999         -12.545912742614746     
  0.13500000000000001         -10.940807342529297     
  0.13529999999999998         -9.0308094024658203     
  0.13560000000000000         -6.8902692794799805     
  0.13590000000000002         -4.6019015312194824     
  0.13619999999999999         -2.2537751197814941     
  0.13650000000000001          6.6272780299186707E-002
  0.13680000000000003          2.2702150344848633     
  0.13710000000000000          4.2766175270080566     
  0.13740000000000002          6.0136957168579102     
  0.13769999999999999          7.4188132286071777     
  0.13800000000000001          8.4454336166381836     
  0.13829999999999998          9.0617618560791016     
  0.13860000000000000          9.2524108886718750     
  0.13890000000000002          9.0215883255004883     
  0.13919999999999999          8.3914966583251953     
  0.13950000000000001          7.4026126861572266     
  0.13979999999999998          6.1115851402282715     
  0.14010000000000000          4.5890974998474121     
  0.14040000000000002          2.9187874794006348     
  0.14069999999999999          1.1895533800125122     
  0.14100000000000001        -0.50628775358200073     
  0.14130000000000004         -2.0765805244445801     
  0.14160000000000000         -3.4379844665527344     
  0.14189999999999997         -4.5170922279357910     
  0.14219999999999999         -5.2558851242065430     
  0.14250000000000002         -5.6160979270935059     
  0.14279999999999998         -5.5791821479797363     
  0.14310000000000000         -5.1504731178283691     
  0.14339999999999997         -4.3559646606445312     
  0.14369999999999999         -3.2436580657958984     
  0.14400000000000002         -1.8812247514724731     
  0.14429999999999998        -0.34887960553169250     
  0.14460000000000001          1.2606315612792969     
  0.14490000000000003          2.8498511314392090     
  0.14520000000000000          4.3230209350585938     
  0.14550000000000002          5.5892825126647949     
  0.14579999999999999          6.5705771446228027     
  0.14610000000000001          7.2052841186523438     
  0.14640000000000003          7.4535207748413086     
  0.14670000000000000          7.2991142272949219     
  0.14699999999999996          6.7503800392150879     
  0.14729999999999999          5.8418369293212891     
  0.14760000000000001          4.6303973197937012     
  0.14789999999999998          3.1918923854827881     
  0.14820000000000000          1.6176834106445312     