  -1.4999999999999999E-002     0.0000000000000000     
  -1.4700000000000000E-002     0.0000000000000000     
  -1.4400000000000000E-002     0.0000000000000000     
  -1.4100000000000000E-002     0.0000000000000000     
  -1.3800000000000000E-002     0.0000000000000000     
  -1.3500000000000000E-002     0.0000000000000000     
  -1.3200000000000000E-002     0.0000000000000000     
  -1.2899999999999998E-002     0.0000000000000000     
  -1.2600000000000000E-002     0.0000000000000000     
  -1.2299999999999998E-002     0.0000000000000000     
  -1.2000000000000000E-002     0.0000000000000000     
  -1.1699999999999999E-002     0.0000000000000000     
  -1.1399999999999999E-002     0.0000000000000000     
  -1.1099999999999999E-002     0.0000000000000000     
  -1.0799999999999999E-002     0.0000000000000000     
  -1.0499999999999999E-002     0.0000000000000000     
  -1.0199999999999999E-002     0.0000000000000000     
  -9.8999999999999991E-003     0.0000000000000000     
  -9.5999999999999992E-003     0.0000000000000000     
  -9.2999999999999992E-003     0.0000000000000000     
  -8.9999999999999993E-003     0.0000000000000000     
  -8.6999999999999994E-003     0.0000000000000000     
  -8.3999999999999995E-003     0.0000000000000000     
  -8.0999999999999996E-003     0.0000000000000000     
  -7.7999999999999988E-003     0.0000000000000000     
  -7.4999999999999997E-003     0.0000000000000000     
  -7.1999999999999998E-003     0.0000000000000000     
  -6.8999999999999981E-003     0.0000000000000000     
  -6.5999999999999982E-003     0.0000000000000000     
  -6.3000000000000000E-003     0.0000000000000000     
  -6.0000000000000001E-003     0.0000000000000000     
  -5.6999999999999985E-003     0.0000000000000000     
  -5.3999999999999986E-003     0.0000000000000000     
  -5.1000000000000004E-003     0.0000000000000000     
  -4.7999999999999987E-003     1.3048621987744084E-039
  -4.5000000000000005E-003    -3.6892156329341339E-038
  -4.1999999999999989E-003    -2.7807008734159634E-037
  -3.8999999999999990E-003     1.4925721041771127E-036
  -3.5999999999999990E-003     1.7422935329005006E-036
  -3.2999999999999991E-003    -2.4639196170643987E-035
  -2.9999999999999992E-003    -3.6943834651913002E-035
  -2.6999999999999993E-003     3.2402387761813181E-034
  -2.3999999999999994E-003    -8.8555283448660823E-035
  -2.0999999999999977E-003    -2.9741430820324174E-033
  -1.7999999999999995E-003     5.3067796447719936E-033
  -1.4999999999999979E-003     7.3907904413158080E-033
  -1.1999999999999997E-003     1.9124166992222822E-032
  -8.9999999999999976E-004    -3.8530706079228515E-031
  -5.9999999999999810E-004     1.4407643590865307E-030
  -2.9999999999999992E-004    -1.1505482300356980E-030
   0.0000000000000000         -1.0339980865274104E-029
   3.0000000000000165E-004     4.3801278664924282E-029
   5.9999999999999984E-004    -5.6803405222536582E-029
   9.0000000000000149E-004    -1.2774705770626878E-028
   1.2000000000000031E-003     7.5554483500232540E-028
   1.5000000000000013E-003    -1.6233441373024421E-027
   1.8000000000000030E-003     9.3338093263218560E-028
   2.1000000000000012E-003     5.3327516282482778E-027
   2.3999999999999994E-003    -1.9815195370673708E-026
   2.7000000000000010E-003     3.6510758157392278E-026
   2.9999999999999992E-003    -5.1678383207513578E-026
   3.3000000000000008E-003     1.1387446433546493E-025
   3.6000000000000025E-003    -1.6042122780991808E-025
   3.9000000000000007E-003    -2.0674338803098031E-024
   4.2000000000000023E-003     2.0789413874991727E-023
   4.5000000000000005E-003    -1.0673586008922031E-022
   4.7999999999999987E-003     3.5100241132269911E-022
   5.1000000000000004E-003    -6.1836655260458781E-022
   5.4000000000000020E-003    -8.1168487704779620E-022
   5.7000000000000037E-003     1.1283334999453986E-020
   5.9999999999999984E-003    -5.1388664834617382E-020
   6.3000000000000000E-003     1.6042703485462679E-019
   6.6000000000000017E-003    -3.7463939156123660E-019
   6.9000000000000034E-003     6.1987290284225171E-019
   7.2000000000000015E-003    -4.3484679865939512E-019
   7.5000000000000032E-003    -1.5047938302509919E-018
   7.8000000000000014E-003     7.7716746965495365E-018
   8.0999999999999996E-003    -2.0808481676342158E-017
   8.4000000000000012E-003     3.0343351273682003E-017
   8.7000000000000029E-003     6.9225745027865446E-017
   9.0000000000000011E-003    -9.8386824667742069E-016
   9.2999999999999992E-003     6.8206166679998974E-015
   9.6000000000000009E-003    -3.8660391359609572E-014
   9.8999999999999991E-003     1.8981096676763897E-013
   1.0200000000000001E-002    -8.0151096360046610E-013
   1.0500000000000002E-002     2.8126043273688171E-012
   1.0800000000000004E-002    -7.5755963786970931E-012
   1.1099999999999999E-002     1.1982099750411605E-011
   1.1400000000000000E-002     1.1776993166914811E-011
   1.1700000000000002E-002    -1.5122812528552820E-010
   1.2000000000000004E-002     4.9480229374325578E-010
   1.2300000000000002E-002    -6.4305200678548290E-010
   1.2600000000000000E-002    -1.1619890397359572E-009
   1.2900000000000002E-002     6.4633940895969113E-009
   1.3200000000000000E-002    -7.1042265477849234E-009
   1.3500000000000002E-002    -1.9234072738874564E-008
   1.3800000000000003E-002     5.4533023911365636E-008
   1.4100000000000001E-002     3.2281992870888778E-008
   1.4400000000000000E-002    -2.3589390881033108E-007
   1.4700000000000001E-002    -1.0644506301403453E-007
   1.4999999999999999E-002     7.3531309677136457E-007
   1.5300000000000001E-002     5.4804669977274369E-007
   1.5600000000000003E-002    -1.7945096346908565E-006
   1.5899999999999997E-002    -2.2814431913246503E-006
   1.6199999999999999E-002     4.8425759556688648E-006
   1.6500000000000001E-002     1.7797081619282031E-005
   1.6800000000000002E-002     2.8371006816061729E-005
   1.7100000000000004E-002     3.6265688502330404E-005
   1.7400000000000006E-002     5.4820340692736304E-005
   1.7700000000000000E-002     9.6197067559280775E-005
   1.8000000000000002E-002     1.5904576768444815E-004
   1.8300000000000004E-002     2.4109020161978880E-004
   1.8600000000000005E-002     3.5896195265823841E-004
   1.8900000000000000E-002     5.4432794583048061E-004
   1.9200000000000002E-002     8.2386847389523746E-004
   1.9500000000000003E-002     1.2190295012087654E-003
   1.9799999999999998E-002     1.7692764647261119E-003
   2.0100000000000000E-002     2.5417692592352298E-003
   2.0400000000000001E-002     3.6138659789603234E-003
   2.0700000000000003E-002     5.0615968998670435E-003
   2.0999999999999998E-002     6.9751708911783006E-003
   2.1299999999999999E-002     9.4738085297671470E-003
   2.1600000000000001E-002     1.2690676963437508E-002
   2.1900000000000003E-002     1.6746241404503537E-002
   2.2200000000000004E-002     2.1744273326834151E-002
   2.2500000000000006E-002     2.7779329030808042E-002
   2.2800000000000001E-002     3.4917151634782817E-002
   2.3100000000000002E-002     4.3151322344810561E-002
   2.3400000000000004E-002     5.2371681039361739E-002
   2.3699999999999999E-002     6.2357247015849104E-002
   2.4000000000000000E-002     7.2763128716728964E-002
   2.4300000000000002E-002     8.3085805017331982E-002
   2.4599999999999997E-002     9.2640384592451497E-002
   2.4900000000000005E-002    0.10057038939059648     
   2.5200000000000000E-002    0.10587927297300670     
   2.5499999999999995E-002    0.10746853365076081     
   2.5800000000000003E-002    0.10418807831332755     
   2.6099999999999998E-002     9.4927031679384211E-002
   2.6400000000000007E-002     7.8719347246449800E-002
   2.6700000000000002E-002     5.4862453431971936E-002
   2.6999999999999996E-002     2.3020304075957121E-002
   2.7300000000000005E-002    -1.6671931737589407E-002
   2.7600000000000000E-002    -6.3495663622402443E-002
   2.7900000000000008E-002   -0.11610714980509762     
   2.8200000000000003E-002   -0.17254509586893541     
   2.8499999999999998E-002   -0.23029725149113922     
   2.8800000000000006E-002   -0.28641708258802545     
   2.9100000000000001E-002   -0.33767012934438689     
   2.9400000000000003E-002   -0.38077413181776798     
   2.9700000000000004E-002   -0.41267501753534930     
   3.0000000000000006E-002   -0.43081226357797853     
   3.0300000000000001E-002   -0.43337094087601713     
   3.0600000000000002E-002   -0.41944045180704315     
   3.0900000000000004E-002   -0.38918077530377104     
   3.1199999999999999E-002   -0.34394506968633642     
   3.1500000000000007E-002   -0.28619431713232846     
   3.1800000000000002E-002   -0.21930878865893000     
   3.2099999999999997E-002   -0.14738098475118155     
   3.2400000000000005E-002    -7.4932695655491988E-002
   3.2700000000000000E-002    -6.6490827157785759E-003
   3.3000000000000002E-002     5.3048673442099625E-002
   3.3300000000000003E-002    0.10040492597208761     
   3.3599999999999998E-002    0.13259769527537735     
   3.3900000000000000E-002    0.14787407804773878     
   3.4200000000000001E-002    0.14571911946891625     
   3.4500000000000003E-002    0.12697939348646159     
   3.4799999999999998E-002     9.3782757228033198E-002
   3.5099999999999999E-002     4.9388207144286600E-002
   3.5400000000000001E-002    -2.0362315314983170E-003
   3.5699999999999996E-002    -5.5612477939843474E-002
   3.6000000000000004E-002   -0.10608346151169989     
   3.6299999999999999E-002   -0.14817863783103302     
   3.6600000000000008E-002   -0.17684786855143919     
   3.6900000000000002E-002   -0.18764607215000151     
   3.7199999999999997E-002   -0.17701124574859950     
   3.7500000000000006E-002   -0.14243026315761753     
   3.7800000000000000E-002    -8.2741680088800673E-002
   3.8100000000000009E-002     1.7904780559096500E-003
   3.8400000000000004E-002    0.10950889858024260     
   3.8699999999999998E-002    0.23730877054585964     
   3.9000000000000007E-002    0.38073696256131306     
   3.9300000000000002E-002    0.53423116967159601     
   3.9600000000000003E-002    0.69133194032546186     
   3.9900000000000005E-002    0.84506135683094996     
   4.0200000000000000E-002    0.98821999011397921     
   4.0500000000000001E-002     1.1136436716396219     
   4.0800000000000003E-002     1.2146250619382997     
   4.1100000000000005E-002     1.2852341356368200     
   4.1399999999999999E-002     1.3204910153331113     
   4.1700000000000008E-002     1.3166234304555644     
   4.2000000000000003E-002     1.2712586545051536     
   4.2299999999999997E-002     1.1835196931722791     
   4.2600000000000006E-002     1.0541108128601877     
   4.2900000000000001E-002    0.88535555981187741     
   4.3200000000000002E-002    0.68128911726560304     
   4.3500000000000004E-002    0.44761053832812614     
   4.3799999999999999E-002    0.19155464419098411     
   4.4100000000000000E-002    -7.8090276829173799E-002
   4.4400000000000002E-002   -0.35125627266254433     
   4.4700000000000004E-002   -0.61703959034007028     
   4.4999999999999998E-002   -0.86392346425520117     
   4.5300000000000000E-002    -1.0803030080001506     
   4.5600000000000002E-002    -1.2552775280984392     
   4.5899999999999996E-002    -1.3792647022549716     
   4.6200000000000005E-002    -1.4447256040873455     
   4.6500000000000000E-002    -1.4467645595314238     
   4.6799999999999994E-002    -1.3835541533507367     
   4.7100000000000003E-002    -1.2568378069304842     
   4.7399999999999998E-002    -1.0720563337079483     
   4.7700000000000006E-002   -0.83820771018120155     
   4.8000000000000001E-002   -0.56742016259796291     
   4.8300000000000010E-002   -0.27413747464860405     
   4.8600000000000004E-002     2.5544280054278667E-002
   4.8899999999999999E-002    0.31473080381790020     
   4.9200000000000008E-002    0.57694075204876327     
   4.9500000000000002E-002    0.79723209875410106     
   4.9800000000000011E-002    0.96301737533820031     
   5.0100000000000006E-002     1.0646425508775508     
   5.0400000000000000E-002     1.0960997140311335     
   5.0700000000000009E-002     1.0554470219823422     
   5.1000000000000004E-002    0.94476928216224110     
   5.1299999999999998E-002    0.76979624413895209     
   5.1600000000000007E-002    0.53954454206692226     
   5.1900000000000002E-002    0.26600247455007553     
   5.2200000000000010E-002    -3.6816161962954230E-002
   5.2500000000000005E-002   -0.35391866697554519     
   5.2800000000000000E-002   -0.67004606184026372     
   5.3099999999999994E-002   -0.97058082709845195     
   5.3400000000000003E-002    -1.2422574921225547     
   5.3699999999999998E-002    -1.4740457994826315     
   5.4000000000000006E-002    -1.6577567051239797     
   5.4300000000000001E-002    -1.7880683615067383     
   5.4599999999999996E-002    -1.8627863494675978     
   5.4900000000000004E-002    -1.8825476326654851     
   5.5199999999999999E-002    -1.8504040087489670     
   5.5499999999999994E-002    -1.7714085016387173     
   5.5800000000000002E-002    -1.6515854465688804     
   5.6099999999999997E-002    -1.4972680363140540     
   5.6400000000000006E-002    -1.3145483235867275     
   5.6700000000000000E-002    -1.1086260087613553     
   5.6999999999999995E-002   -0.88328221210968394     
   5.7300000000000004E-002   -0.64083709874222805     
   5.7599999999999998E-002   -0.38252503313647890     
   5.7900000000000007E-002   -0.10876224891736541     
   5.8200000000000002E-002    0.18036673477614285     
   5.8499999999999996E-002    0.48438938927131403     
   5.8800000000000005E-002    0.80140865345165935     
   5.9100000000000000E-002     1.1276326997979069     
   5.9400000000000008E-002     1.4572358974346145     
   5.9700000000000003E-002     1.7816288037063757     
   6.0000000000000012E-002     2.0893564581748336     
   6.0300000000000006E-002     2.3667197117339782     
   6.0600000000000001E-002     2.5982513105566056     
   6.0900000000000010E-002     2.7677452644024214     
   6.1200000000000004E-002     2.8588634738720486     
   6.1500000000000013E-002     2.8565159293288360     
   6.1800000000000008E-002     2.7485483359337053     
   6.2100000000000002E-002     2.5266404932592437     
   6.2399999999999997E-002     2.1876366542240149     
   6.2700000000000006E-002     1.7345186268477413     
   6.3000000000000000E-002     1.1770496516479685     
   6.3300000000000009E-002    0.53235145002804884     
   6.3600000000000004E-002   -0.17544400382260261     
   6.3899999999999998E-002   -0.91602805895708883     
   6.4199999999999993E-002    -1.6540992166066601     
   6.4500000000000002E-002    -2.3512020240168425     
   6.4800000000000010E-002    -2.9678074299505539     
   6.5100000000000005E-002    -3.4662318631815623     
   6.5400000000000000E-002    -3.8132254988463785     
   6.5700000000000008E-002    -3.9822545874120436     
   6.5999999999999989E-002    -3.9558456318819850     
   6.6299999999999998E-002    -3.7275776562640033     
   6.6600000000000006E-002    -3.3029291938008498     
   6.6900000000000001E-002    -2.6989730412966111     
   6.7199999999999996E-002    -1.9438805705146471     
   6.7500000000000004E-002    -1.0755906375210280     
   6.7800000000000013E-002   -0.13936220511092223     
   6.8099999999999994E-002    0.81532700822774018     
   6.8400000000000002E-002     1.7377090608173660     
   6.8700000000000011E-002     2.5785830859829275     
   6.8999999999999992E-002     3.2937464925170019     
   6.9300000000000000E-002     3.8465119042314910     
   6.9600000000000009E-002     4.2093488518348749     
   6.9900000000000004E-002     4.3654682536110272     
   7.0199999999999999E-002     4.3094877661564794     
   7.0500000000000007E-002     4.0475139840489476     
   7.0800000000000016E-002     3.5961101097270927     
   7.1099999999999997E-002     2.9809282137914650     
   7.1400000000000005E-002     2.2353842173226468     
   7.1700000000000000E-002     1.3986576081490849     
   7.1999999999999995E-002    0.51334117824987402     
   7.2300000000000003E-002   -0.37699074485351414     
   7.2600000000000012E-002    -1.2298140524758097     
   7.2900000000000006E-002    -2.0053612372772847     
   7.3200000000000001E-002    -2.6689010691629278     
   7.3499999999999996E-002    -3.1922705288824602     
   7.3800000000000004E-002    -3.5547352881787191     
   7.4099999999999999E-002    -3.7437488566185948     
   7.4400000000000008E-002    -3.7553365486166257     
   7.4700000000000003E-002    -3.5939995191870082     
   7.5000000000000011E-002    -3.2720292598555432     
   7.5299999999999992E-002    -2.8084497524752692     
   7.5600000000000001E-002    -2.2276166704165341     
   7.5900000000000009E-002    -1.5580049915050793     
   7.6200000000000004E-002   -0.83053015566329336     
   7.6499999999999999E-002    -7.6908109281056625E-002
   7.6800000000000007E-002    0.67167849454279072     
   7.7099999999999988E-002     1.3862398215928380     
   7.7399999999999997E-002     2.0406100536506386     
   7.7700000000000005E-002     2.6117227600871900     
   7.8000000000000014E-002     3.0807263870145078     
   7.8299999999999995E-002     3.4331260758254842     
   7.8600000000000003E-002     3.6587175912474379     
   7.8900000000000012E-002     3.7512050542128037     
   7.9199999999999993E-002     3.7082095892989315     
   7.9500000000000001E-002     3.5320164052484131     
   7.9800000000000010E-002     3.2291206373068775     
   8.0100000000000018E-002     2.8100369567185624     
   8.0399999999999999E-002     2.2898370542184097     
   8.0700000000000008E-002     1.6880387578928122     
   8.1000000000000003E-002     1.0286719430726388     
   8.1299999999999997E-002    0.33954888254976900     
   8.1600000000000006E-002   -0.34883070938923755     
   8.1900000000000014E-002    -1.0041406889223090     
   8.2199999999999995E-002    -1.5937845106667652     
   8.2500000000000004E-002    -2.0869256638333624     
   8.2799999999999999E-002    -2.4567487492952438     
   8.3100000000000007E-002    -2.6821863647738411     
   8.3400000000000002E-002    -2.7498002344241144     
   8.3700000000000011E-002    -2.6552180930966784     
   8.4000000000000005E-002    -2.4038218518413217     
   8.4300000000000000E-002    -2.0110126463700801     
   8.4599999999999995E-002    -1.5013903922566314     
   8.4900000000000003E-002   -0.90749897209651031     
   8.5199999999999998E-002   -0.26780738979074847     
   8.5500000000000007E-002    0.37582405768939520     
   8.5800000000000001E-002    0.98022722122033201     
   8.6100000000000010E-002     1.5041507572108586     
   8.6399999999999991E-002     1.9106263777912673     
   8.6699999999999999E-002     2.1685189143175023     
   8.7000000000000008E-002     2.2544131516140240     
   8.7300000000000003E-002     2.1536742945535750     
   8.7599999999999997E-002     1.8611444110368573     
   8.7900000000000006E-002     1.3807439133779909     
   8.8200000000000014E-002    0.72508633688487834     
   8.8499999999999995E-002    -8.4468510431747745E-002
   8.8800000000000004E-002    -1.0190375390612481     
   8.9100000000000013E-002    -2.0433466875688637     
   8.9399999999999993E-002    -3.1166361556225866     
   8.9700000000000002E-002    -4.1940202940169939     
   9.0000000000000011E-002    -5.2279902443076480     
   9.0299999999999991E-002    -6.1701705351508451     
   9.0600000000000000E-002    -6.9731785831334605     
   9.0900000000000009E-002    -7.5929652327600365     
   9.1200000000000017E-002    -7.9908764689976977     
   9.1499999999999998E-002    -8.1356963712225649     
   9.1800000000000007E-002    -8.0056375975775609     
   9.2100000000000001E-002    -7.5897530395224635     
   9.2399999999999996E-002    -6.8892785770010789     
   9.2700000000000005E-002    -5.9173964017753349     
   9.3000000000000013E-002    -4.6982500995942047     
   9.3300000000000008E-002    -3.2667823232651045     
   9.3600000000000003E-002    -1.6666364594535281     
   9.3899999999999997E-002     5.2549392003435003E-002
   9.4200000000000006E-002     1.8373956804594513     
   9.4500000000000001E-002     3.6331589128519255     
   9.4800000000000009E-002     5.3856621891936811     
   9.5100000000000004E-002     7.0439093858129525     
   9.5399999999999999E-002     8.5613593833523680     
   9.5699999999999993E-002     9.8964605976485132     
   9.6000000000000002E-002     11.013836621541770     
   9.6300000000000011E-002     11.884315450566362     
   9.6600000000000005E-002     12.485420001163675     
   9.6900000000000000E-002     12.800772669257981     
   9.7200000000000009E-002     12.820137335135769     
   9.7499999999999989E-002     12.539337902044963     
   9.7799999999999998E-002     11.960423010642444     
   9.8100000000000007E-002     11.091688835635097     
   9.8400000000000015E-002     9.9466105295361444     
   9.8699999999999996E-002     8.5445381700033636     
   9.9000000000000005E-002     6.9109254179634689     
   9.9300000000000013E-002     5.0764056859615039     
   9.9599999999999994E-002     3.0766715571614895     
   9.9900000000000003E-002    0.95260356085177023     
  0.10020000000000001         -1.2495988843254451     
  0.10049999999999999         -3.4792234468399670     
  0.10080000000000000         -5.6812838097440874     
  0.10110000000000001         -7.7959704730794215     
  0.10140000000000000         -9.7606459379138641     
  0.10170000000000000         -11.511107117457925     
  0.10200000000000001         -12.982186461234903     
  0.10230000000000002         -14.111016342375933     
  0.10260000000000000         -14.841185292488319     
  0.10290000000000001         -15.125402454127936     
  0.10320000000000000         -14.928775312125879     
  0.10350000000000001         -14.234594873965051     
  0.10380000000000000         -13.047086282246056     
  0.10410000000000001         -11.392552869577763     
  0.10440000000000001         -9.3221646659186348     
  0.10470000000000000         -6.9110602197317945     
  0.10500000000000000         -4.2550795806970427     
  0.10530000000000000         -1.4667566194535198     
  0.10560000000000000          1.3299327503215235     
  0.10590000000000001          4.0067854657033166     
  0.10620000000000000          6.4407530368866333     
  0.10650000000000001          8.5207983656256374     
  0.10679999999999999          10.153603269451708     
  0.10710000000000000          11.272104479776146     
  0.10740000000000001          11.838620611872329     
  0.10770000000000000          11.846244174484724     
  0.10800000000000000          11.319264554756046     
  0.10830000000000001          10.310786679276077     
  0.10859999999999999          8.8987721057177076     
  0.10890000000000000          7.1801725902019484     
  0.10920000000000001          5.2639986467255540     
  0.10950000000000001          3.2649525440590139     
  0.10979999999999999          1.2962645678445028     
  0.11009999999999999        -0.53657352367420330     
  0.11040000000000001         -2.1411761427223084     
  0.11070000000000001         -3.4433740980811223     
  0.11100000000000000         -4.3898139886361776     
  0.11130000000000000         -4.9493796719035004     
  0.11160000000000002         -5.1152636322233320     
  0.11190000000000001         -4.9040747304023355     
  0.11220000000000001         -4.3531075449194034     
  0.11250000000000000         -3.5187145299189453     
  0.11280000000000000         -2.4723915284765212     
  0.11309999999999999         -1.2960484524496962     
  0.11340000000000001         -7.7236730883178950E-002
  0.11369999999999998          1.0964750891949091     
  0.11400000000000000          2.1428202070630391     
  0.11430000000000000          2.9906116207784663     
  0.11460000000000002          3.5840882516548760     
  0.11489999999999999          3.8854502779653757     
  0.11520000000000001          3.8787578775286846     
  0.11550000000000001          3.5704057745291742     
  0.11580000000000000          2.9872647176388085     
  0.11609999999999999          2.1754383156579138     
  0.11640000000000002          1.1964955019943773     
  0.11670000000000001         0.12245743073994220     
  0.11700000000000001        -0.96996237979006494     
  0.11730000000000000         -2.0056646752853169     
  0.11760000000000000         -2.9159779887931734     
  0.11789999999999999         -3.6439936419238990     
  0.11820000000000001         -4.1491983163703594     
  0.11850000000000001         -4.4095975468283086     
  0.11880000000000000         -4.4226261691768514     
  0.11910000000000000         -4.2047830930795840     
  0.11940000000000002         -3.7894856668819585     
  0.11970000000000001         -3.2237327912220994     
  0.12000000000000001         -2.5635299946536558     
  0.12030000000000000         -1.8680999964059852     
  0.12060000000000000         -1.1958383351838338     
  0.12089999999999999        -0.59890927142037054     
  0.12119999999999999        -0.11837674465577308     
  0.12150000000000001         0.21750474687538279     
  0.12180000000000001         0.39600425056730337     
  0.12210000000000000         0.41996975226534872     
  0.12239999999999999         0.30643340024982102     
  0.12270000000000002          8.5000396494262276E-002
  0.12300000000000001        -0.20695880207874873     
  0.12330000000000001        -0.52720986823146987     
  0.12360000000000000        -0.83255882051929930     
  0.12390000000000000         -1.0842233873836378     
  0.12419999999999999         -1.2502945505762462     
  0.12450000000000001         -1.3087994948917228     
  0.12480000000000001         -1.2492309984829335     
  0.12509999999999999         -1.0727257334497438     
  0.12540000000000001        -0.79172902771359688     
  0.12570000000000003        -0.42763028090597999     
  0.12600000000000000         -7.9792088804477856E-003
  0.12630000000000002         0.43578168797080696     
  0.12659999999999999         0.87225428210591005     
  0.12690000000000001          1.2732284156837395     
  0.12719999999999998          1.6157593757631972     
  0.12750000000000000          1.8838868376998050     
  0.12780000000000002          2.0702522155289103     
  0.12809999999999999          2.1753660855194354     
  0.12840000000000001          2.2073320566217447     
  0.12869999999999998          2.1800275848733150     
  0.12900000000000000          2.1104352714301839     
  0.12930000000000003          2.0178034338797630     
  0.12959999999999999          1.9204652949037779     
  0.12990000000000002          1.8336476868847740     
  0.13019999999999998          1.7686902293052142     
  0.13050000000000000          1.7317669512614557     
  0.13080000000000003          1.7241396405592724     
  0.13109999999999999          1.7422004586146755     
  0.13140000000000002          1.7776637861814706     
  0.13169999999999998          1.8207034731255618     
  0.13200000000000001          1.8603233215858737     
  0.13229999999999997          1.8852758747349938     
  0.13260000000000000          1.8866269079841516     
  0.13290000000000002          1.8579421339338396     
  0.13319999999999999          1.7961014961007749     
  0.13350000000000001          1.7012575925782372     
  0.13380000000000003          1.5760489972999139     
  0.13410000000000000          1.4254658340677686     
  0.13440000000000002          1.2557296289673836     
  0.13469999999999999          1.0728737836760445     
  0.13500000000000001         0.88261394562495710     
  0.13529999999999998         0.68877188562849567     
  0.13560000000000000         0.49315691962131947     
  0.13590000000000002         0.29649825323566148     
  0.13619999999999999          9.7649348839470740E-002
  0.13650000000000001        -0.10588810679267080     
  0.13680000000000003        -0.31622106703126374     
  0.13710000000000000        -0.53496339992526387     
  0.13740000000000002        -0.76248316819171436     
  0.13769999999999999        -0.99785843932067309     
  0.13800000000000001         -1.2385681414756675     
  0.13829999999999998         -1.4799777797152203     
  0.13860000000000000         -1.7169895515014275     
  0.13890000000000002         -1.9440519782540022     
  0.13919999999999999         -2.1556523587974254     
  0.13950000000000001         -2.3477156761039311     
  0.13979999999999998         -2.5170373525126735     
  0.14010000000000000         -2.6618252305861745     
  0.14040000000000002         -2.7819976744060710     
  0.14069999999999999         -2.8786453673049124     
  0.14100000000000001         -2.9534602913097103     
  0.14130000000000004         -3.0085075571935675     
  0.14160000000000000         -3.0456652342381432     
  0.14189999999999997         -3.0662666829474432     
  0.14219999999999999         -3.0714328092591785     
  0.14250000000000002         -3.0614569309960018     
  0.14279999999999998         -3.0359635702304217     
  0.14310000000000000         -2.9942867991424862     
  0.14339999999999997         -2.9353789674701289     
  0.14369999999999999         -2.8582301836705994     
  0.14400000000000002         -2.7610372438784054     
  0.14429999999999998         -2.6415064538391988     
  0.14460000000000001         -2.4976002993063702     
  0.14490000000000003         -2.3258757171711295     
  0.14520000000000000         -2.1229725146229086     
  0.14550000000000002         -1.8862329242649523     
  0.14579999999999999         -1.6132815408708048     
  0.14610000000000001         -1.3038230603322529     
  0.14640000000000003        -0.95956316690948285     
  0.14670000000000000        -0.58441638180899247     
  0.14699999999999996        -0.18534177512483652     
  0.14729999999999999         0.22846954783647500     
  0.14760000000000001         0.64670691057908591     
  0.14789999999999998          1.0592485560956675     
  0.14820000000000000          1.4572837473109814     