  -1.4999999999999999E-002     0.0000000000000000     
  -1.4700000000000000E-002     0.0000000000000000     
  -1.4400000000000000E-002     0.0000000000000000     
  -1.4100000000000000E-002     0.0000000000000000     
  -1.3800000000000000E-002     0.0000000000000000     
  -1.3500000000000000E-002     4.7665947868163100E-038
  -1.3200000000000000E-002     5.0202229727583249E-035
  -1.2899999999999998E-002    -6.9653294090542214E-034
  -1.2600000000000000E-002    -6.0426934814394047E-032
  -1.2299999999999998E-002     6.3883887827433136E-031
  -1.2000000000000000E-002     8.7941497405412214E-030
  -1.1699999999999999E-002    -1.0161987784816854E-028
  -1.1399999999999999E-002    -1.5947547365868135E-028
  -1.1099999999999999E-002     4.0923049889411718E-027
  -1.0799999999999999E-002    -4.4452738498906072E-027
  -1.0499999999999999E-002    -6.2208873079293168E-026
  -1.0199999999999999E-002     1.0778658885215601E-025
  -9.8999999999999991E-003     5.6954093697852463E-025
  -9.5999999999999992E-003    -8.5663052678603025E-025
  -9.2999999999999992E-003    -4.6536235885706425E-024
  -8.9999999999999993E-003     4.5329427064904319E-024
  -8.6999999999999994E-003     2.9281174303379272E-023
  -8.3999999999999995E-003    -9.7843845267778935E-024
  -8.0999999999999996E-003    -1.3220929899172669E-022
  -7.7999999999999988E-003    -9.3367767560166087E-023
  -7.4999999999999997E-003     4.2535943342028365E-022
  -7.1999999999999998E-003     1.0387317051508048E-021
  -6.8999999999999981E-003    -4.4592889143484022E-022
  -6.5999999999999982E-003    -6.0717212427513322E-021
  -6.3000000000000000E-003    -3.4442927482781025E-021
  -6.0000000000000001E-003     2.1544123687117296E-020
  -5.6999999999999985E-003     2.5363770643653883E-020
  -5.3999999999999986E-003    -3.6700128269432278E-020
  -5.1000000000000004E-003    -9.4504227041908515E-020
  -4.7999999999999987E-003    -7.1120025523380521E-020
  -4.5000000000000005E-003     1.8704579931090907E-019
  -4.1999999999999989E-003     7.6695875167347265E-019
  -3.8999999999999990E-003    -1.8106511349647516E-020
  -3.5999999999999990E-003    -2.7244897359752233E-018
  -3.2999999999999991E-003    -1.2361323213521272E-018
  -2.9999999999999992E-003     4.5267969956938359E-018
  -2.6999999999999993E-003     3.5001412828441636E-018
  -2.3999999999999994E-003     7.0130646103976059E-018
  -2.0999999999999977E-003    -6.5010691568359369E-018
  -1.7999999999999995E-003    -5.9876845929833763E-017
  -1.4999999999999979E-003     1.5360255100197755E-017
  -1.1999999999999997E-003     1.2584798185428459E-016
  -8.9999999999999976E-004     9.1426011303799049E-018
  -5.9999999999999810E-004    -1.5036449034316741E-017
  -2.9999999999999992E-004    -2.1135308980110932E-016
   0.0000000000000000         -4.7828120969203219E-016
   3.0000000000000165E-004     4.8377504023631536E-016
   5.9999999999999984E-004     9.9171140941194111E-016
   9.0000000000000149E-004     6.7577534179173924E-016
   1.2000000000000031E-003    -6.3414784248022351E-016
   1.5000000000000013E-003    -5.9508217454742218E-015
   1.8000000000000030E-003     6.9470078698116331E-016
   2.1000000000000012E-003     1.1514744618760831E-014
   2.3999999999999994E-003    -7.1332373368429704E-015
   2.7000000000000010E-003     6.4855694486234743E-015
   2.9999999999999992E-003     2.2336094464975553E-014
   3.3000000000000008E-003    -8.2822820076450938E-014
   3.6000000000000025E-003    -2.2759824797244139E-014
   3.9000000000000007E-003     1.9552385428997298E-013
   4.2000000000000023E-003    -5.1957579551264079E-014
   4.5000000000000005E-003    -1.8750964505123351E-013
   4.7999999999999987E-003     2.6432373709527953E-013
   5.1000000000000004E-003    -1.4863006027331918E-013
   5.4000000000000020E-003    -6.1266451400149651E-013
   5.7000000000000037E-003     7.5109257666590667E-013
   5.9999999999999984E-003     9.7504399317730358E-013
   6.3000000000000000E-003    -1.1379151443759995E-012
   6.6000000000000017E-003    -1.0301766761743722E-012
   6.9000000000000034E-003     1.0870105506937995E-012
   7.2000000000000015E-003     1.0178769673635162E-013
   7.5000000000000032E-003    -1.7722194630905573E-012
   7.8000000000000014E-003     2.8042335512783063E-012
   8.0999999999999996E-003     5.0823238248155370E-012
   8.4000000000000012E-003    -8.2017417024682798E-012
   8.7000000000000029E-003    -9.4050703315762440E-012
   9.0000000000000011E-003     1.4730447046488090E-011
   9.2999999999999992E-003     5.6331816277548941E-012
   9.6000000000000009E-003    -1.8624247372792878E-011
   9.8999999999999991E-003     1.7570076939125694E-011
   1.0200000000000001E-002     1.5516342339494307E-011
   1.0500000000000002E-002    -5.7725732550061002E-011
   1.0800000000000004E-002    -4.6067399508809322E-012
   1.1099999999999999E-002     9.3415374952514325E-011
   1.1400000000000000E-002    -6.7884808484113773E-012
   1.1700000000000002E-002    -1.2238965953164521E-010
   1.2000000000000004E-002    -1.7474577693315742E-012
   1.2300000000000002E-002     2.3513528275276127E-010
   1.2600000000000000E-002     1.1289353765046829E-010
   1.2900000000000002E-002    -6.5669784538313913E-010
   1.3200000000000000E-002    -8.2274312070756620E-010
   1.3500000000000002E-002     1.7726521072220092E-009
   1.3800000000000003E-002     4.4373023757436721E-009
   1.4100000000000001E-002    -4.3676262922500669E-009
   1.4400000000000000E-002    -1.8355541200098224E-008
   1.4700000000000001E-002     8.2269490046115271E-009
   1.4999999999999999E-002     5.2847627326704335E-008
   1.5300000000000001E-002    -8.1779644194046190E-009
   1.5600000000000003E-002    -8.1851851864885225E-008
   1.5899999999999997E-002     1.6201510167346722E-008
   1.6199999999999999E-002    -6.9838589081857779E-008
   1.6500000000000001E-002     1.7011602880828880E-007
   1.6800000000000002E-002     4.4967578977894507E-006
   1.7100000000000004E-002     1.7035495262336877E-005
   1.7400000000000006E-002     3.6265824715236559E-005
   1.7700000000000000E-002     5.5541548873171003E-005
   1.8000000000000002E-002     6.8890274962097537E-005
   1.8300000000000004E-002     7.7042924788160830E-005
   1.8600000000000005E-002     9.4702666547963012E-005
   1.8900000000000000E-002     1.4570079784098576E-004
   1.9200000000000002E-002     2.3571437147900547E-004
   1.9500000000000003E-002     3.3938050903464865E-004
   1.9799999999999998E-002     4.3542567412350791E-004
   2.0100000000000000E-002     5.4343337823903977E-004
   2.0400000000000001E-002     6.9993241571415278E-004
   2.0700000000000003E-002     9.0369060085484132E-004
   2.0999999999999998E-002     1.1051078705911314E-003
   2.1299999999999999E-002     1.2338903877576429E-003
   2.1600000000000001E-002     1.2027106684028882E-003
   2.1900000000000003E-002     8.8730233491949423E-004
   2.2200000000000004E-002     1.1520011002129528E-004
   2.2500000000000006E-002    -1.3609144840695108E-003
   2.2800000000000001E-002    -3.9084606345275198E-003
   2.3100000000000002E-002    -8.0273032305213810E-003
   2.3400000000000004E-002    -1.4342747441805342E-002
   2.3699999999999999E-002    -2.3609961242406798E-002
   2.4000000000000000E-002    -3.6686153993132083E-002
   2.4300000000000002E-002    -5.4486152525559405E-002
   2.4599999999999997E-002    -7.7971721440845784E-002
   2.4900000000000005E-002   -0.10807457799197316     
   2.5200000000000000E-002   -0.14549833181387906     
   2.5499999999999995E-002   -0.19052951518432792     
   2.5800000000000003E-002   -0.24290604625212986     
   2.6099999999999998E-002   -0.30162602655947479     
   2.6400000000000007E-002   -0.36466720915441792     
   2.6700000000000002E-002   -0.42872690344896786     
   2.6999999999999996E-002   -0.48911522462895329     
   2.7300000000000005E-002   -0.53976388635304184     
   2.7600000000000000E-002   -0.57325756026879793     
   2.7900000000000008E-002   -0.58109049070358054     
   2.8200000000000003E-002   -0.55405482182072519     
   2.8499999999999998E-002   -0.48293300898806091     
   2.8800000000000006E-002   -0.35931150209586027     
   2.9100000000000001E-002   -0.17656690879295872     
   2.9400000000000003E-002     6.9013866051148468E-002
   2.9700000000000004E-002    0.37730454722016971     
   3.0000000000000006E-002    0.74324060006464299     
   3.0300000000000001E-002     1.1562193756337436     
   3.0600000000000002E-002     1.5997596004261561     
   3.0900000000000004E-002     2.0515816557083912     
   3.1199999999999999E-002     2.4845520281197149     
   3.1500000000000007E-002     2.8678205586536700     
   3.1800000000000002E-002     3.1686551481586935     
   3.2099999999999997E-002     3.3550768423255062     
   3.2400000000000005E-002     3.3982564498836592     
   3.2700000000000000E-002     3.2753260961263138     
   3.3000000000000002E-002     2.9720408578393007     
   3.3300000000000003E-002     2.4848676621692571     
   3.3599999999999998E-002     1.8225168587184579     
   3.3900000000000000E-002     1.0065056042801532     
   3.4200000000000001E-002     7.0610985113803371E-002
   3.4500000000000003E-002   -0.94041450284781869     
   3.4799999999999998E-002    -1.9736216354536680     
   3.5099999999999999E-002    -2.9712114187231986     
   3.5400000000000001E-002    -3.8740885836930818     
   3.5699999999999996E-002    -4.6269262540887466     
   3.6000000000000004E-002    -5.1816508219749284     
   3.6299999999999999E-002    -5.5009915673482084     
   3.6600000000000008E-002    -5.5622714846099086     
   3.6900000000000002E-002    -5.3581958494413602     
   3.7199999999999997E-002    -4.8978915677435060     
   3.7500000000000006E-002    -4.2068948308187064     
   3.7800000000000000E-002    -3.3240535834942833     
   3.8100000000000009E-002    -2.2999962959387021     
   3.8400000000000004E-002    -1.1935795029897578     
   3.8699999999999998E-002    -6.6828069933053014E-002
   3.9000000000000007E-002     1.0175827514302294     
   3.9300000000000002E-002     2.0004145646877136     
   3.9600000000000003E-002     2.8300524705602257     
   3.9900000000000005E-002     3.4639373994576461     
   4.0200000000000000E-002     3.8707956233614969     
   4.0500000000000001E-002     4.0327314856713237     
   4.0800000000000003E-002     3.9440861875814468     
   4.1100000000000005E-002     3.6122540959533316     
   4.1399999999999999E-002     3.0572358462156339     
   4.1700000000000008E-002     2.3090350245736002     
   4.2000000000000003E-002     1.4074817675201021     
   4.2299999999999997E-002    0.39975842547361273     
   4.2600000000000006E-002   -0.66244044876091590     
   4.2900000000000001E-002    -1.7241687321476120     
   4.3200000000000002E-002    -2.7309433198652289     
   4.3500000000000004E-002    -3.6311555816538750     
   4.3799999999999999E-002    -4.3783227806016729     
   4.4100000000000000E-002    -4.9344078635932433     
   4.4400000000000002E-002    -5.2714301937295893     
   4.4700000000000004E-002    -5.3730146454484764     
   4.4999999999999998E-002    -5.2354799657219173     
   4.5300000000000000E-002    -4.8677542325792835     
   4.5600000000000002E-002    -4.2900342349462024     
   4.5899999999999996E-002    -3.5326401836076258     
   4.6200000000000005E-002    -2.6337035235823891     
   4.6500000000000000E-002    -1.6352308878924693     
   4.6799999999999994E-002   -0.58178310903817887     
   4.7100000000000003E-002    0.48316904199413324     
   4.7399999999999998E-002     1.5202005999782344     
   4.7700000000000006E-002     2.4939673184306348     
   4.8000000000000001E-002     3.3752729747277486     
   4.8300000000000010E-002     4.1421724184285642     
   4.8600000000000004E-002     4.7771874977511475     
   4.8899999999999999E-002     5.2686682460548733     
   4.9200000000000008E-002     5.6104085544605518     
   4.9500000000000002E-002     5.7981370846777089     
   4.9800000000000011E-002     5.8328472085244556     
   5.0100000000000006E-002     5.7185203978389749     
   5.0400000000000000E-002     5.4622457112048615     
   5.0700000000000009E-002     5.0776314713374733     
   5.1000000000000004E-002     4.5823324887989436     
   5.1299999999999998E-002     4.0000466244298121     
   5.1600000000000007E-002     3.3611629811034054     
   5.1900000000000002E-002     2.6994277081015787     
   5.2200000000000010E-002     2.0529873304510451     
   5.2500000000000005E-002     1.4605725967201482     
   5.2800000000000000E-002    0.95690165251227022     
   5.3099999999999994E-002    0.57301979795118074     
   5.3400000000000003E-002    0.32933500966177953     
   5.3699999999999998E-002    0.23463999115767342     
   5.4000000000000006E-002    0.28577473001570325     
   5.4300000000000001E-002    0.46445057063579487     
   5.4599999999999996E-002    0.74087517966877448     
   5.4900000000000004E-002     1.0766706218772431     
   5.5199999999999999E-002     1.4259589590857302     
   5.5499999999999994E-002     1.7438066415012792     
   5.5800000000000002E-002     1.9880863235538233     
   5.6099999999999997E-002     2.1250672689618013     
   5.6400000000000006E-002     2.1336315470106517     
   5.6700000000000000E-002     2.0049890048285484     
   5.6999999999999995E-002     1.7452224093284245     
   5.7300000000000004E-002     1.3725345783072864     
   5.7599999999999998E-002    0.91299092171188390     
   5.7900000000000007E-002    0.39750159802021962     
   5.8200000000000002E-002   -0.14514520220211169     
   5.8499999999999996E-002   -0.69256294413192876     
   5.8800000000000005E-002    -1.2337369536392306     
   5.9100000000000000E-002    -1.7719292079804720     
   5.9400000000000008E-002    -2.3232986857618165     
   5.9700000000000003E-002    -2.9170694909143386     
   6.0000000000000012E-002    -3.5889368902699545     
   6.0300000000000006E-002    -4.3726171146467028     
   6.0600000000000001E-002    -5.2937619546404253     
   6.0900000000000010E-002    -6.3580195120374103     
   6.1200000000000004E-002    -7.5431965211152354     
   6.1500000000000013E-002    -8.7949964045456603     
   6.1800000000000008E-002    -10.022092453659486     
   6.2100000000000002E-002    -11.100898263460873     
   6.2399999999999997E-002    -11.882422653242587     
   6.2700000000000006E-002    -12.204739682873788     
   6.3000000000000000E-002    -11.910947268586224     
   6.3300000000000009E-002    -10.868127886777328     
   6.3600000000000004E-002    -8.9879411994346405     
   6.3899999999999998E-002    -6.2451298059538400     
   6.4199999999999993E-002    -2.6904451072557567     
   6.4500000000000002E-002     1.5411045774043668     
   6.4800000000000010E-002     6.2314692196955122     
   6.5100000000000005E-002     11.092154282475654     
   6.5400000000000000E-002     15.779092260901216     
   6.5700000000000008E-002     19.922936271425286     
   6.5999999999999989E-002     23.159320371465341     
   6.6299999999999998E-002     25.160717356958369     
   6.6600000000000006E-002     25.671898714170400     
   6.6900000000000001E-002     24.535402391076914     
   6.7199999999999996E-002     21.709244631930265     
   6.7500000000000004E-002     17.280018589710245     
   6.7800000000000013E-002     11.457881703365054     
   6.8099999999999994E-002     4.5616271558693047     
   6.8400000000000002E-002    -2.9997833354659669     
   6.8700000000000011E-002    -10.764788505278498     
   6.8999999999999992E-002    -18.252566881846676     
   6.9300000000000000E-002    -24.999581308292701     
   6.9600000000000009E-002    -30.598308588642301     
   6.9900000000000004E-002    -34.724321204211797     
   7.0199999999999999E-002    -37.158085978929321     
   7.0500000000000007E-002    -37.798368223253284     
   7.0800000000000016E-002    -36.661849836991536     
   7.1099999999999997E-002    -33.874352631587890     
   7.1400000000000005E-002    -29.655786484195914     
   7.1700000000000000E-002    -24.294605353898788     
   7.1999999999999995E-002    -18.122005966172775     
   7.2300000000000003E-002    -11.484318441557580     
   7.2600000000000012E-002    -4.7163783213005290     
   7.2900000000000006E-002     1.8781876306508245     
   7.3200000000000001E-002     8.0471522719477413     
   7.3499999999999996E-002     13.593371531715380     
   7.3800000000000004E-002     18.383783112455571     
   7.4099999999999999E-002     22.345048236590088     
   7.4400000000000008E-002     25.451568683687206     
   7.4700000000000003E-002     27.725592426468676     
   7.5000000000000011E-002     29.215566336403864     
   7.5299999999999992E-002     29.988054663908265     
   7.5600000000000001E-002     30.122036528999026     
   7.5900000000000009E-002     29.690808427698045     
   7.6200000000000004E-002     28.764282454575188     
   7.6499999999999999E-002     27.404592944388000     
   7.6800000000000007E-002     25.660562658835694     
   7.7099999999999988E-002     23.574689673881753     
   7.7399999999999997E-002     21.182721443024743     
   7.7700000000000005E-002     18.516024030056510     
   7.8000000000000014E-002     15.607441694753369     
   7.8299999999999995E-002     12.493143219072961     
   7.8600000000000003E-002     9.2139003856649477     
   7.8900000000000012E-002     5.8174698468439443     
   7.9199999999999993E-002     2.3614751403130043     
   7.9500000000000001E-002    -1.0922552336530020     
   7.9800000000000010E-002    -4.4747457994290656     
   8.0100000000000018E-002    -7.7122300477107109     
   8.0399999999999999E-002    -10.733152425041958     
   8.0700000000000008E-002    -13.466409311423149     
   8.1000000000000003E-002    -15.846572535020712     
   8.1299999999999997E-002    -17.820387586964429     
   8.1600000000000006E-002    -19.343234029957191     
   8.1900000000000014E-002    -20.387932131792219     
   8.2199999999999995E-002    -20.942588670854690     
   8.2500000000000004E-002    -21.010164031724543     
   8.2799999999999999E-002    -20.613867373459570     
   8.3100000000000007E-002    -19.788756817013201     
   8.3400000000000002E-002    -18.582597685678422     
   8.3700000000000011E-002    -17.058808023168524     
   8.4000000000000005E-002    -15.280961943910889     
   8.4300000000000000E-002    -13.321800520786276     
   8.4599999999999995E-002    -11.257502347120450     
   8.4900000000000003E-002    -9.1562255731520210     
   8.5199999999999998E-002    -7.0868069426328724     
   8.5500000000000007E-002    -5.1118260116634744     
   8.5800000000000001E-002    -3.2794444226988029     
   8.6100000000000010E-002    -1.6335792049164275     
   8.6399999999999991E-002   -0.20188644756666552     
   8.6699999999999999E-002     1.0015685397509779     
   8.7000000000000008E-002     1.9725568336472956     
   8.7300000000000003E-002     2.7239815895999255     
   8.7599999999999997E-002     3.2783951692304250     
   8.7900000000000006E-002     3.6675629082679522     
   8.8200000000000014E-002     3.9329457790780280     
   8.8499999999999995E-002     4.1168240701984855     
   8.8800000000000004E-002     4.2641027795626423     
   8.9100000000000013E-002     4.4155228783629337     
   8.9399999999999993E-002     4.6040651452841104     
   8.9700000000000002E-002     4.8562614853629809     
   9.0000000000000011E-002     5.1834120399423842     
   9.0299999999999991E-002     5.5871460983735668     
   9.0600000000000000E-002     6.0567473467717052     
   9.0900000000000009E-002     6.5670762365764528     
   9.1200000000000017E-002     7.0871758431549692     
   9.1499999999999998E-002     7.5784034196365919     
   9.1800000000000007E-002     7.9955936317681804     
   9.2100000000000001E-002     8.2988216235918273     
   9.2399999999999996E-002     8.4467770354275231     
   9.2700000000000005E-002     8.4057351314994975     
   9.3000000000000013E-002     8.1551145024965344     
   9.3300000000000008E-002     7.6802348401717637     
   9.3600000000000003E-002     6.9833447072274115     
   9.3899999999999997E-002     6.0810209064510641     
   9.4200000000000006E-002     4.9987224290796304     
   9.4500000000000001E-002     3.7789459232058888     
   9.4800000000000009E-002     2.4713131321339699     
   9.5100000000000004E-002     1.1308593540125043     
   9.5399999999999999E-002   -0.18075827215788842     
   9.5699999999999993E-002    -1.4056630371800050     
   9.6000000000000002E-002    -2.4915261306106791     
   9.6300000000000011E-002    -3.3910615075051957     
   9.6600000000000005E-002    -4.0728485834156389     
   9.6900000000000000E-002    -4.5174079154178770     
   9.7200000000000009E-002    -4.7193603038738434     
   9.7499999999999989E-002    -4.6918938997256330     
   9.7799999999999998E-002    -4.4587561217432121     
   9.8100000000000007E-002    -4.0565202552801578     
   9.8400000000000015E-002    -3.5323734248835876     
   9.8699999999999996E-002    -2.9357248637233844     
   9.9000000000000005E-002    -2.3187623886398301     
   9.9300000000000013E-002    -1.7325858658675530     
   9.9599999999999994E-002    -1.2190772680458237     
   9.9900000000000003E-002   -0.81467202052512722     
  0.10020000000000001        -0.54425557195832508     
  0.10049999999999999        -0.41931236984091391     
  0.10080000000000000        -0.44224487510086286     
  0.10110000000000001        -0.60288490291848706     
  0.10140000000000000        -0.87948957901278924     
  0.10170000000000000         -1.2454821475737063     
  0.10200000000000001         -1.6666908373043521     
  0.10230000000000002         -2.1042507112809772     
  0.10260000000000000         -2.5219418884328362     
  0.10290000000000001         -2.8817636848513422     
  0.10320000000000000         -3.1499159103702921     
  0.10350000000000001         -3.2997945882351352     
  0.10380000000000000         -3.3080563898604538     
  0.10410000000000001         -3.1621506252391818     
  0.10440000000000001         -2.8574535900283493     
  0.10470000000000000         -2.3971164248688366     
  0.10500000000000000         -1.7959059844090506     
  0.10530000000000000         -1.0770515625557551     
  0.10560000000000000        -0.26994893865891345     
  0.10590000000000001         0.58434060876470539     
  0.10620000000000000          1.4438170753030206     
  0.10650000000000001          2.2615398547650836     
  0.10679999999999999          2.9892968952631618     
  0.10710000000000000          3.5856387390449527     
  0.10740000000000001          4.0118706696543676     
  0.10770000000000000          4.2409786913425123     
  0.10800000000000000          4.2592711878197580     
  0.10830000000000001          4.0639362532952372     
  0.10859999999999999          3.6705472218658812     
  0.10890000000000000          3.1082687927757924     
  0.10920000000000001          2.4157993396555160     
  0.10950000000000001          1.6462637157399178     
  0.10979999999999999         0.85414169553116492     
  0.11009999999999999          9.5493610412246577E-002
  0.11040000000000001        -0.57521040317461147     
  0.11070000000000001         -1.1163377608214411     
  0.11100000000000000         -1.4940006260029812     
  0.11130000000000000         -1.6901303470922922     
  0.11160000000000002         -1.7045725072354658     
  0.11190000000000001         -1.5473511515003713     
  0.11220000000000001         -1.2454052715069492     
  0.11250000000000000        -0.83635742781283251     
  0.11280000000000000        -0.36085755033980188     
  0.11309999999999999         0.13297796822534558     
  0.11340000000000001         0.60017605047085931     
  0.11369999999999998          1.0015430071413247     
  0.11400000000000000          1.3016331127508503     
  0.11430000000000000          1.4788257092824835     
  0.11460000000000002          1.5200440957135128     
  0.11489999999999999          1.4231388507459037     
  0.11520000000000001          1.1992717744732326     
  0.11550000000000001         0.86654882704807623     
  0.11580000000000000         0.45196785188581745     
  0.11609999999999999         -1.1100050423530142E-002
  0.11640000000000002        -0.48884321498654237     
  0.11670000000000001        -0.94477513241164690     
  0.11700000000000001         -1.3466777841464188     
  0.11730000000000000         -1.6668082194470624     
  0.11760000000000000         -1.8840550883773544     
  0.11789999999999999         -1.9867468601044811     
  0.11820000000000001         -1.9709980589548044     
  0.11850000000000001         -1.8424618195844387     
  0.11880000000000000         -1.6162311071489417     
  0.11910000000000000         -1.3131571955549250     
  0.11940000000000002        -0.96003320181650786     
  0.11970000000000001        -0.58665367361055709     
  0.12000000000000001        -0.22260337661314644     
  0.12030000000000000         0.10259193023349661     
  0.12060000000000000         0.36508874335636815     
  0.12089999999999999         0.54504860979572101     
  0.12119999999999999         0.63009895735217025     
  0.12150000000000001         0.61634083076807533     
  0.12180000000000001         0.50540616202558442     
  0.12210000000000000         0.30890718924031402     
  0.12239999999999999          4.3200139430235249E-002
  0.12270000000000002        -0.27046365571880970     
  0.12300000000000001        -0.60412374802706736     
  0.12330000000000001        -0.93248386596497435     
  0.12360000000000000         -1.2277888876155616     
  0.12390000000000000         -1.4633674574236737     
  0.12419999999999999         -1.6212483024229134     
  0.12450000000000001         -1.6844314094652413     
  0.12480000000000001         -1.6436480806609950     
  0.12509999999999999         -1.5006028094651787     
  0.12540000000000001         -1.2586115303465442     
  0.12570000000000003        -0.93177594934699681     
  0.12600000000000000        -0.54046899761536960     
  0.12630000000000002        -0.10504328791853329     
  0.12659999999999999         0.34626345179517043     
  0.12690000000000001         0.78693760083417130     
  0.12719999999999998          1.1938209926773888     
  0.12750000000000000          1.5409165503137976     
  0.12780000000000002          1.8113932772574062     
  0.12809999999999999          1.9927286900133945     
  0.12840000000000001          2.0755637924107586     
  0.12869999999999998          2.0609783221917573     
  0.12900000000000000          1.9538685980917680     
  0.12930000000000003          1.7636348961988848     
  0.12959999999999999          1.5086191987351985     
  0.12990000000000002          1.2068644174114338     
  0.13019999999999998         0.87977313945922053     
  0.13050000000000000         0.55225948062005048     
  0.13080000000000003         0.24395686060141208     
  0.13109999999999999         -2.4183134887451163E-002
  0.13140000000000002        -0.23497333349493413     
  0.13169999999999998        -0.37927606306723827     
  0.13200000000000001        -0.44927974051942832     
  0.13229999999999997        -0.44399061650766380     
  0.13260000000000000        -0.37054749516918878     
  0.13290000000000002        -0.23721360862857632     
  0.13319999999999999         -5.7973935273285246E-002
  0.13350000000000001         0.14827095986416416     
  0.13380000000000003         0.36555988327026390     
  0.13410000000000000         0.57486351698955152     
  0.13440000000000002         0.75718416597572813     
  0.13469999999999999         0.90012340461905738     
  0.13500000000000001         0.99053295437370048     
  0.13529999999999998          1.0201404131773795     
  0.13560000000000000         0.98648107602981083     
  0.13590000000000002         0.88931790413989020     
  0.13619999999999999         0.73308577979328648     
  0.13650000000000001         0.52759180210692036     
  0.13680000000000003         0.28379309869880887     
  0.13710000000000000          1.5883002485516835E-002
  0.13740000000000002        -0.25916204550027022     
  0.13769999999999999        -0.52526813261893479     
  0.13800000000000001        -0.76711026431078300     
  0.13829999999999998        -0.96901578199901817     
  0.13860000000000000         -1.1193561026035153     
  0.13890000000000002         -1.2116979803288799     
  0.13919999999999999         -1.2398308758551877     
  0.13950000000000001         -1.2045231286012594     
  0.13979999999999998         -1.1122718467798827     
  0.14010000000000000        -0.96867118767021165     
  0.14040000000000002        -0.78692908122141969     
  0.14069999999999999        -0.58230993220817384     
  0.14100000000000001        -0.36605278832575328     
  0.14130000000000004        -0.15642103481558503     
  0.14160000000000000          3.2931660675080188E-002
  0.14189999999999997         0.19277419593030062     
  0.14219999999999999         0.30947132369958863     
  0.14250000000000002         0.37912139267853634     
  0.14279999999999998         0.39945093458327668     
  0.14310000000000000         0.36749406540426577     
  0.14339999999999997         0.29048818198588261     
  0.14369999999999999         0.17376849318195672     
  0.14400000000000002          2.5200276544483896E-002
  0.14429999999999998        -0.14040198385889796     
  0.14460000000000001        -0.31339307126570121     
  0.14490000000000003        -0.47986854432737780     
  0.14520000000000000        -0.62522926803045797     
  0.14550000000000002        -0.74077010744114280     
  0.14579999999999999        -0.81540548433499227     
  0.14610000000000001        -0.84275540232213964     
  0.14640000000000003        -0.82183085875396145     
  0.14670000000000000        -0.75035202862896788     
  0.14699999999999996        -0.63473603983314408     
  0.14729999999999999        -0.48198687247687388     
  0.14760000000000001        -0.30024125937342688     
  0.14789999999999998        -0.10357259431054323     
  0.14820000000000000          9.7864011016935371E-002