  -1.4999999999999999E-002     0.0000000000000000     
  -1.4700000000000000E-002     0.0000000000000000     
  -1.4400000000000000E-002    -3.2248692768768599E-031
  -1.4100000000000000E-002    -6.2777685423279789E-027
  -1.3800000000000000E-002    -1.6483979108346042E-024
  -1.3500000000000000E-002     1.5952633153632858E-023
  -1.3200000000000000E-002     1.1265279402344846E-021
  -1.2899999999999998E-002    -7.8122276430502598E-021
  -1.2600000000000000E-002    -4.7327690717288072E-020
  -1.2299999999999998E-002     3.7190149551847480E-019
  -1.2000000000000000E-002     1.7137375696791556E-019
  -1.1699999999999999E-002    -3.8526445468399895E-018
  -1.1399999999999999E-002    -1.2806544826265260E-018
  -1.1099999999999999E-002     2.2513222176197885E-017
  -1.0799999999999999E-002     2.8594288025637057E-017
  -1.0499999999999999E-002    -1.1609774110425673E-016
  -1.0199999999999999E-002    -1.3801800737587262E-016
  -9.8999999999999991E-003     1.2089921101730230E-016
  -9.5999999999999992E-003     8.4550241711175303E-016
  -9.2999999999999992E-003     8.4779726469192930E-016
  -8.9999999999999993E-003    -2.5304805611496622E-015
  -8.6999999999999994E-003    -7.4839096024499588E-015
  -8.3999999999999995E-003     5.5898835182884529E-015
  -8.0999999999999996E-003     2.2800048810455486E-014
  -7.7999999999999988E-003    -1.5020405546190142E-015
  -7.4999999999999997E-003    -1.2313943131007219E-014
  -7.1999999999999998E-003    -6.7734273549424177E-014
  -6.8999999999999981E-003    -1.0623114821211027E-013
  -6.5999999999999982E-003     2.2966203099982897E-013
  -6.3000000000000000E-003     5.0540187092700620E-013
  -6.0000000000000001E-003    -5.2531253881408400E-013
  -5.6999999999999985E-003    -5.1537538349548227E-013
  -5.3999999999999986E-003    -3.4037914681307315E-014
  -5.1000000000000004E-003    -1.3538445301944907E-012
  -4.7999999999999987E-003     2.7912812135798383E-012
  -4.5000000000000005E-003     6.3929061619983605E-012
  -4.1999999999999989E-003    -7.0037854093531858E-012
  -3.8999999999999990E-003    -1.0884147620310262E-011
  -3.5999999999999990E-003     1.0378253178659923E-011
  -3.2999999999999991E-003    -9.6270817322954208E-012
  -2.9999999999999992E-003     2.1000832105488509E-012
  -2.6999999999999993E-003     7.8799044833239807E-011
  -2.3999999999999994E-003    -5.8343800895171807E-011
  -2.0999999999999977E-003    -1.2552815935537717E-010
  -1.7999999999999995E-003     1.4686504994316391E-010
  -1.4999999999999979E-003    -7.7763786246073721E-011
  -1.1999999999999997E-003    -1.0728652290778734E-010
  -8.9999999999999976E-004     6.1713019033485981E-010
  -5.9999999999999810E-004    -2.8442774997821095E-010
  -2.9999999999999992E-004    -9.1171591596287528E-010
   0.0000000000000000          9.7920375789236809E-010
   3.0000000000000165E-004    -1.6042666477348689E-010
   5.9999999999999984E-004    -1.5307275803609954E-009
   9.0000000000000149E-004     3.0586212459711485E-009
   1.2000000000000031E-003     1.1117804183036439E-009
   1.5000000000000013E-003    -6.1943243133619777E-009
   1.8000000000000030E-003     1.6194278516838397E-009
   2.1000000000000012E-003     6.4086037533481624E-009
   2.3999999999999994E-003    -7.7322442420352420E-009
   2.7000000000000010E-003    -2.0450342571776857E-009
   2.9999999999999992E-003     1.4798389076865454E-008
   3.3000000000000008E-003    -4.0662349942124127E-009
   3.6000000000000025E-003    -1.4468368808093009E-008
   3.9000000000000007E-003     4.1354989171978547E-009
   4.2000000000000023E-003     1.5862005811046168E-009
   4.5000000000000005E-003     8.7621861979015875E-009
   4.7999999999999987E-003     1.2381036413539010E-008
   5.1000000000000004E-003    -3.1802964556046755E-008
   5.4000000000000020E-003    -8.2417256882627130E-009
   5.7000000000000037E-003     5.0890736366285075E-008
   5.9999999999999984E-003    -1.4351808527478419E-008
   6.3000000000000000E-003    -4.3504428158780311E-008
   6.6000000000000017E-003     2.6105812161915022E-008
   6.9000000000000034E-003    -3.3761456832344900E-009
   7.2000000000000015E-003    -8.9974679012246704E-009
   7.5000000000000032E-003     5.8123384187013692E-008
   7.8000000000000014E-003     1.7616662012916547E-008
   8.0999999999999996E-003    -3.7926022859418427E-008
   8.4000000000000012E-003    -1.2567692878141158E-007
   8.7000000000000029E-003    -1.6248971878775946E-007
   9.0000000000000011E-003     5.2320217110203143E-007
   9.2999999999999992E-003     1.9776000242442890E-006
   9.6000000000000009E-003     3.3457662929036790E-006
   9.8999999999999991E-003     4.5428283447710306E-006
   1.0200000000000001E-002     6.3157688756831274E-006
   1.0500000000000002E-002     9.7931424540514381E-006
   1.0800000000000004E-002     1.6767554504613559E-005
   1.1099999999999999E-002     2.8097224862417541E-005
   1.1400000000000000E-002     4.2666991822468713E-005
   1.1700000000000002E-002     6.0867505694955568E-005
   1.2000000000000004E-002     8.6005228143857539E-005
   1.2300000000000002E-002     1.1405352527554076E-004
   1.2600000000000000E-002     1.2986677759000025E-004
   1.2900000000000002E-002     1.2485744524391167E-004
   1.3200000000000000E-002     9.8809790236307118E-005
   1.3500000000000002E-002     3.6574764485586237E-005
   1.3800000000000003E-002    -9.2314416340853934E-005
   1.4100000000000001E-002    -3.2413123861142485E-004
   1.4400000000000000E-002    -7.2465653794670428E-004
   1.4700000000000001E-002    -1.4172686283440896E-003
   1.4999999999999999E-002    -2.5915122307540971E-003
   1.5300000000000001E-002    -4.5105249914828491E-003
   1.5600000000000003E-002    -7.5277512226258284E-003
   1.5899999999999997E-002    -1.2112455197053625E-002
   1.6199999999999999E-002    -1.8882091109589556E-002
   1.6500000000000001E-002    -2.8658122328307126E-002
   1.6800000000000002E-002    -4.2520819006601943E-002
   1.7100000000000004E-002    -6.1804811034851859E-002
   1.7400000000000006E-002    -8.8098873595743671E-002
   1.7700000000000000E-002   -0.12326003393514773     
   1.8000000000000002E-002   -0.16936593540720118     
   1.8300000000000004E-002   -0.22865015971021371     
   1.8600000000000005E-002   -0.30342272218720323     
   1.8900000000000000E-002   -0.39591432165826101     
   1.9200000000000002E-002   -0.50805342593300584     
   1.9500000000000003E-002   -0.64112187374884155     
   1.9799999999999998E-002   -0.79536694212963899     
   2.0100000000000000E-002   -0.96980257994033447     
   2.0400000000000001E-002    -1.1618778199359543     
   2.0700000000000003E-002    -1.3670142826181098     
   2.0999999999999998E-002    -1.5784327225275914     
   2.1299999999999999E-002    -1.7870836444745801     
   2.1600000000000001E-002    -1.9817566566436629     
   2.1900000000000003E-002    -2.1494766621593295     
   2.2200000000000004E-002    -2.2759133129648177     
   2.2500000000000006E-002    -2.3464503710063656     
   2.2800000000000001E-002    -2.3470679044159652     
   2.3100000000000002E-002    -2.2659382592009338     
   2.3400000000000004E-002    -2.0944014550911723     
   2.3699999999999999E-002    -1.8283683487776599     
   2.4000000000000000E-002    -1.4695206083498469     
   2.4300000000000002E-002    -1.0255579928791625     
   2.4599999999999997E-002   -0.51066732780291435     
   2.4900000000000005E-002     5.5026036482297647E-002
   2.5200000000000000E-002    0.64675479872364927     
   2.5499999999999995E-002     1.2367805710233926     
   2.5800000000000003E-002     1.7970874815602387     
   2.6099999999999998E-002     2.3013872603375112     
   2.6400000000000007E-002     2.7282980844659743     
   2.6700000000000002E-002     3.0633531788404378     
   2.6999999999999996E-002     3.3009391561005543     
   2.7300000000000005E-002     3.4453828361242085     
   2.7600000000000000E-002     3.5103807391512070     
   2.7900000000000008E-002     3.5183763862828767     
   2.8200000000000003E-002     3.4977447458225801     
   2.8499999999999998E-002     3.4799315480523165     
   2.8800000000000006E-002     3.4957664216352429     
   2.9100000000000001E-002     3.5715323904225831     
   2.9400000000000003E-002     3.7258068460928717     
   2.9700000000000004E-002     3.9658533389995192     
   3.0000000000000006E-002     4.2868411627773302     
   3.0300000000000001E-002     4.6705790596460020     
   3.0600000000000002E-002     5.0868111016465427     
   3.0900000000000004E-002     5.4954642232232622     
   3.1199999999999999E-002     5.8500476946803213     
   3.1500000000000007E-002     6.1010304877695187     
   3.1800000000000002E-002     6.2009802226124107     
   3.2099999999999997E-002     6.1083253097862880     
   3.2400000000000005E-002     5.7911180541130971     
   3.2700000000000000E-002     5.2304871288000294     
   3.3000000000000002E-002     4.4210595622859179     
   3.3300000000000003E-002     3.3739445133195209     
   3.3599999999999998E-002     2.1134703589354031     
   3.3900000000000000E-002    0.67871416956676001     
   3.4200000000000001E-002   -0.88194827514240393     
   3.4500000000000003E-002    -2.5116151115872603     
   3.4799999999999998E-002    -4.1491696557669080     
   3.5099999999999999E-002    -5.7334552055734793     
   3.5400000000000001E-002    -7.2048610337108503     
   3.5699999999999996E-002    -8.5108482236356284     
   3.6000000000000004E-002    -9.6057458100988384     
   3.6299999999999999E-002    -10.453257877560278     
   3.6600000000000008E-002    -11.028193004125177     
   3.6900000000000002E-002    -11.313257829365554     
   3.7199999999999997E-002    -11.302059160707504     
   3.7500000000000006E-002    -10.992713847302261     
   3.7800000000000000E-002    -10.390353128929458     
   3.8100000000000009E-002    -9.5019238824383905     
   3.8400000000000004E-002    -8.3367607289680805     
   3.8699999999999998E-002    -6.9060984315614977     
   3.9000000000000007E-002    -5.2231495675166126     
   3.9300000000000002E-002    -3.3064163213615716     
   3.9600000000000003E-002    -1.1823669937671566     
   3.9900000000000005E-002     1.1101836072777496     
   4.0200000000000000E-002     3.5152889381548866     
   4.0500000000000001E-002     5.9575209461474294     
   4.0800000000000003E-002     8.3384610522847442     
   4.1100000000000005E-002     10.539216058894391     
   4.1399999999999999E-002     12.423457907996381     
   4.1700000000000008E-002     13.845110469896063     
   4.2000000000000003E-002     14.660157310953940     
   4.2299999999999997E-002     14.738433767920920     
   4.2600000000000006E-002     13.980155678110899     
   4.2900000000000001E-002     12.328344807391474     
   4.3200000000000002E-002     9.7827204915157182     
   4.3500000000000004E-002     6.4067688147891673     
   4.3799999999999999E-002     2.3296500043662856     
   4.4100000000000000E-002    -2.2558820574084852     
   4.4400000000000002E-002    -7.1056832959417342     
   4.4700000000000004E-002    -11.940088995826226     
   4.4999999999999998E-002    -16.464402884049811     
   4.5300000000000000E-002    -20.392537916873593     
   4.5600000000000002E-002    -23.470339645576644     
   4.5899999999999996E-002    -25.497514640114968     
   4.6200000000000005E-002    -26.341951578694012     
   4.6500000000000000E-002    -25.952303568151663     
   4.6799999999999994E-002    -24.357991883042324     
   4.7100000000000003E-002    -21.666892043511265     
   4.7399999999999998E-002    -18.049773598579542     
   4.7700000000000006E-002    -13.728651140525045     
   4.8000000000000001E-002    -8.9501222477138800     
   4.8300000000000010E-002    -3.9712589473182973     
   4.8600000000000004E-002    0.96618633598755510     
   4.8899999999999999E-002     5.6488041239544211     
   4.9200000000000008E-002     9.9043019341157379     
   4.9500000000000002E-002     13.609477226333777     
   4.9800000000000011E-002     16.687021168295395     
   5.0100000000000006E-002     19.108370892623746     
   5.0400000000000000E-002     20.878449882671500     
   5.0700000000000009E-002     22.033056245790888     
   5.1000000000000004E-002     22.623581053473792     
   5.1299999999999998E-002     22.709187557519353     
   5.1600000000000007E-002     22.348587899422959     
   5.1900000000000002E-002     21.593899142909368     
   5.2200000000000010E-002     20.488093535498074     
   5.2500000000000005E-002     19.067053663527908     
   5.2800000000000000E-002     17.357127355251659     
   5.3099999999999994E-002     15.382743202723081     
   5.3400000000000003E-002     13.170127960329291     
   5.3699999999999998E-002     10.747864434547964     
   5.4000000000000006E-002     8.1555231919997233     
   5.4300000000000001E-002     5.4408425435872854     
   5.4599999999999996E-002     2.6629005535732411     
   5.4900000000000004E-002   -0.10960582217644377     
   5.5199999999999999E-002    -2.8019266426182354     
   5.5499999999999994E-002    -5.3358509468876871     
   5.5800000000000002E-002    -7.6348350598646757     
   5.6099999999999997E-002    -9.6277519820364610     
   5.6400000000000006E-002    -11.255730784377583     
   5.6700000000000000E-002    -12.472372928362194     
   5.6999999999999995E-002    -13.252263481312227     
   5.7300000000000004E-002    -13.587731200757634     
   5.7599999999999998E-002    -13.493768134300396     
   5.7900000000000007E-002    -13.004527507149341     
   5.8200000000000002E-002    -12.173744549678071     
   5.8499999999999996E-002    -11.068956149881718     
   5.8800000000000005E-002    -9.7694498513993189     
   5.9100000000000000E-002    -8.3594032941770866     
   5.9400000000000008E-002    -6.9228695286486790     
   5.9700000000000003E-002    -5.5379244635600902     
   6.0000000000000012E-002    -4.2721607166809275     
   6.0300000000000006E-002    -3.1785075633124902     
   6.0600000000000001E-002    -2.2907913211468474     
   6.0900000000000010E-002    -1.6250316141999805     
   6.1200000000000004E-002    -1.1771917857566305     
   6.1500000000000013E-002   -0.92627108084306409     
   6.1800000000000008E-002   -0.83711428193299509     
   6.2100000000000002E-002   -0.86317499431692113     
   6.2399999999999997E-002   -0.95296575514786896     
   6.2700000000000006E-002    -1.0528433323316857     
   6.3000000000000000E-002    -1.1133174014942657     
   6.3300000000000009E-002    -1.0909551936649322     
   6.3600000000000004E-002   -0.95434218561763107     
   6.3899999999999998E-002   -0.68136044729097700     
   6.4199999999999993E-002   -0.26689189733533464     
   6.4500000000000002E-002    0.28383473084165511     
   6.4800000000000010E-002    0.95118700673154388     
   6.5100000000000005E-002     1.7054542883938397     
   6.5400000000000000E-002     2.5080070337509914     
   6.5700000000000008E-002     3.3141181368467207     
   6.5999999999999989E-002     4.0774408941409410     
   6.6299999999999998E-002     4.7514038864837111     
   6.6600000000000006E-002     5.2934029167321999     
   6.6900000000000001E-002     5.6685981023677714     
   6.7199999999999996E-002     5.8500820462251477     
   6.7500000000000004E-002     5.8252123233679765     
   6.7800000000000013E-002     5.5905103927291915     
   6.8099999999999994E-002     5.1591828290866246     
   6.8400000000000002E-002     4.5538529121424549     
   6.8700000000000011E-002     3.8099141910489465     
   6.8999999999999992E-002     2.9699863905216217     
   6.9300000000000000E-002     2.0827944837650625     
   6.9600000000000009E-002     1.1982023661388843     
   6.9900000000000004E-002    0.36521385653983174     
   7.0199999999999999E-002   -0.37395695453352729     
   7.0500000000000007E-002   -0.98241423823322682     
   7.0800000000000016E-002    -1.4374423622784200     
   7.1099999999999997E-002    -1.7242373976028935     
   7.1400000000000005E-002    -1.8428472086739838     
   7.1700000000000000E-002    -1.8040785738146328     
   7.1999999999999995E-002    -1.6295639186442024     
   7.2300000000000003E-002    -1.3490489433645969     
   7.2600000000000012E-002   -0.99831595339020063     
   7.2900000000000006E-002   -0.61623552846886132     
   7.3200000000000001E-002   -0.24200931410220766     
   7.3499999999999996E-002     8.9493697499917688E-002
   7.3800000000000004E-002    0.34600251821593769     
   7.4099999999999999E-002    0.50666464749477058     
   7.4400000000000008E-002    0.55549723667635120     
   7.4700000000000003E-002    0.49069463611545883     
   7.5000000000000011E-002    0.31615520946678921     
   7.5299999999999992E-002     4.9092634909201086E-002
   7.5600000000000001E-002   -0.28822039883468326     
   7.5900000000000009E-002   -0.66710806839584202     
   7.6200000000000004E-002    -1.0546977810154929     
   7.6499999999999999E-002    -1.4188904829808899     
   7.6800000000000007E-002    -1.7294856290622791     
   7.7099999999999988E-002    -1.9607124147093256     
   7.7399999999999997E-002    -2.0951153208923348     
   7.7700000000000005E-002    -2.1217341055825059     
   7.8000000000000014E-002    -2.0416449107251311     
   7.8299999999999995E-002    -1.8619915709589208     
   7.8600000000000003E-002    -1.6003930655445167     
   7.8900000000000012E-002    -1.2787763123214209     
   7.9199999999999993E-002   -0.92432027128705441     
   7.9500000000000001E-002   -0.56398474792321063     
   7.9800000000000010E-002   -0.22529809099323883     
   8.0100000000000018E-002     7.1165932437719542E-002
   8.0399999999999999E-002    0.30675538554550152     
   8.0700000000000008E-002    0.47453248941485748     
   8.1000000000000003E-002    0.57055199128959477     
   8.1299999999999997E-002    0.60153756554651694     
   8.1600000000000006E-002    0.57810632484062818     
   8.1900000000000014E-002    0.51543619010361641     
   8.2199999999999995E-002    0.43192458308122228     
   8.2500000000000004E-002    0.34396806898844728     
   8.2799999999999999E-002    0.26783415576647202     
   8.3100000000000007E-002    0.21467647238678361     
   8.3400000000000002E-002    0.19118245196656944     
   8.3700000000000011E-002    0.20006808656391942     
   8.4000000000000005E-002    0.23671197394384375     
   8.4300000000000000E-002    0.29622487427291688     
   8.4599999999999995E-002    0.36640483821724323     
   8.4900000000000003E-002    0.43894749333335448     
   8.5199999999999998E-002    0.50056461573081712     
   8.5500000000000007E-002    0.54441772815933820     
   8.5800000000000001E-002    0.56307216251535863     
   8.6100000000000010E-002    0.55365443765012812     
   8.6399999999999991E-002    0.51625423385177349     
   8.6699999999999999E-002    0.45286426255825096     
   8.7000000000000008E-002    0.36900038557552867     
   8.7300000000000003E-002    0.27035885119642783     
   8.7599999999999997E-002    0.16288700564870850     
   8.7900000000000006E-002     5.3405379656260965E-002
   8.8200000000000014E-002    -5.4130679090007836E-002
   8.8499999999999995E-002   -0.15491478581578899     
   8.8800000000000004E-002   -0.24675139352720954     
   8.9100000000000013E-002   -0.32654248167544797     
   8.9399999999999993E-002   -0.39354643867656924     
   8.9700000000000002E-002   -0.44440568954133763     
   9.0000000000000011E-002   -0.47874755646757639     
   9.0299999999999991E-002   -0.49256513532622270     
   9.0600000000000000E-002   -0.48457203578738606     
   9.0900000000000009E-002   -0.45115662044125149     
   9.1200000000000017E-002   -0.39167056818962426     
   9.1499999999999998E-002   -0.30522716667036681     
   9.1800000000000007E-002   -0.19293016024718179     
   9.2100000000000001E-002    -5.8690313007624118E-002
   9.2399999999999996E-002     9.2014968461340954E-002
   9.2700000000000005E-002    0.25151305296544196     
   9.3000000000000013E-002    0.41072191339986097     
   9.3300000000000008E-002    0.55895785948572096     
   9.3600000000000003E-002    0.68616878443484453     
   9.3899999999999997E-002    0.78303787171106476     
   9.4200000000000006E-002    0.84027257369839226     
   9.4500000000000001E-002    0.85379635163798562     
   9.4800000000000009E-002    0.81853402156057653     
   9.5100000000000004E-002    0.73610007647368081     
   9.5399999999999999E-002    0.60806245914341661     
   9.5699999999999993E-002    0.44161766545885028     
   9.6000000000000002E-002    0.24442815174454124     
   9.6300000000000011E-002     2.7980648234474645E-002
   9.6600000000000005E-002   -0.19597747367956417     
   9.6900000000000000E-002   -0.41434751781332368     
   9.7200000000000009E-002   -0.61440716686706343     
   9.7499999999999989E-002   -0.78380884540050444     
   9.7799999999999998E-002   -0.91248477554444141     
   9.8100000000000007E-002   -0.99210093311418435     
   9.8400000000000015E-002    -1.0174828520051200     
   9.8699999999999996E-002   -0.98744195626240994     
   9.9000000000000005E-002   -0.90261437182959314     
   9.9300000000000013E-002   -0.76880998327818151     
   9.9599999999999994E-002   -0.59405609900688294     
   9.9900000000000003E-002   -0.38815853591837657     
  0.10020000000000001        -0.16496412913824790     
  0.10049999999999999          6.4783158611080402E-002
  0.10080000000000000         0.28528854907310797     
  0.10110000000000001         0.48776203837136445     
  0.10140000000000000         0.65926644981365912     
  0.10170000000000000         0.79389542664370549     
  0.10200000000000001         0.88627971038299946     
  0.10230000000000002         0.93331193121520095     
  0.10260000000000000         0.93769185668468502     
  0.10290000000000001         0.89977164680945076     
  0.10320000000000000         0.82653442709261649     
  0.10350000000000001         0.72311531801911211     
  0.10380000000000000         0.59723847466531188     
  0.10410000000000001         0.45725151605114267     
  0.10440000000000001         0.30874741537094169     
  0.10470000000000000         0.16147072388158565     
  0.10500000000000000          1.9333146385175141E-002
  0.10530000000000000        -0.11002278921482608     
  0.10560000000000000        -0.22358304184037803     
  0.10590000000000001        -0.31787851021120850     
  0.10620000000000000        -0.39094638785708780     
  0.10650000000000001        -0.44231057075231195     
  0.10679999999999999        -0.47318344916092259     
  0.10710000000000000        -0.48538206486793467     
  0.10740000000000001        -0.48204137963042315     
  0.10770000000000000        -0.46688972766502801     
  0.10800000000000000        -0.44467877957137902     
  0.10830000000000001        -0.41909299763573227     
  0.10859999999999999        -0.39488823752850516     
  0.10890000000000000        -0.37478118516790354     
  0.10920000000000001        -0.36078202254184738     
  0.10950000000000001        -0.35493659705208891     
  0.10979999999999999        -0.35582000396230573     
  0.11009999999999999        -0.36268677293564655     
  0.11040000000000001        -0.37263310396905525     
  0.11070000000000001        -0.38257618029379586     
  0.11100000000000000        -0.38958683043453057     
  0.11130000000000000        -0.38902431377045399     
  0.11160000000000002        -0.38068111845222374     
  0.11190000000000001        -0.36029566216902797     
  0.11220000000000001        -0.32971686069125683     
  0.11250000000000000        -0.28765908893682118     
  0.11280000000000000        -0.23724561838215474     
  0.11309999999999999        -0.18079550894106300     
  0.11340000000000001        -0.12160558799696281     
  0.11369999999999998         -6.4178203813706022E-002
  0.11400000000000000         -1.0706946763517772E-002
  0.11430000000000000          3.3708936069762968E-002
  0.11460000000000002          6.8264038958827669E-002
  0.11489999999999999          8.9872702020944439E-002
  0.11520000000000001          9.8487861175242844E-002
  0.11550000000000001          9.4236246499659629E-002
  0.11580000000000000          7.8418282517763171E-002
  0.11609999999999999          5.3808647958438212E-002
  0.11640000000000002          2.2616959665616155E-002
  0.11670000000000001         -1.0296605313991947E-002
  0.11700000000000001         -4.2426219155788918E-002
  0.11730000000000000         -6.8312415179161035E-002
  0.11760000000000000         -8.5169086639248937E-002
  0.11789999999999999         -8.9174365448800488E-002
  0.11820000000000001         -7.8070897590395150E-002
  0.11850000000000001         -5.0199462755209819E-002
  0.11880000000000000         -5.9771697060766044E-003
  0.11910000000000000          5.3869461621615891E-002
  0.11940000000000002         0.12717891054372082     
  0.11970000000000001         0.21003262551366603     
  0.12000000000000001         0.29907018452843537     
  0.12030000000000000         0.38873713955278782     
  0.12060000000000000         0.47537908451152422     
  0.12089999999999999         0.55439249128380652     
  0.12119999999999999         0.62250212152211526     
  0.12150000000000001         0.67687273422036454     
  0.12180000000000001         0.71596097453234553     
  0.12210000000000000         0.73914751049431193     
  0.12239999999999999         0.74606318531179394     
  0.12270000000000002         0.73777094218253503     
  0.12300000000000001         0.71477119315959681     
  0.12330000000000001         0.67853479671571437     
  0.12360000000000000         0.63030540444628391     
  0.12390000000000000         0.57128350665430028     
  0.12419999999999999         0.50249497881468941     
  0.12450000000000001         0.42593964415291830     
  0.12480000000000001         0.34296656676644749     
  0.12509999999999999         0.25563881952269135     
  0.12540000000000001         0.16633606378931864     
  0.12570000000000003          7.7784248340384596E-002
  0.12600000000000000         -7.5638138538932018E-003
  0.12630000000000002         -8.6634979200139878E-002
  0.12659999999999999        -0.15623943399564247     
  0.12690000000000001        -0.21582762533987257     
  0.12719999999999998        -0.26076045798903680     
  0.12750000000000000        -0.29299959421153765     
  0.12780000000000002        -0.31002436161282243     
  0.12809999999999999        -0.31276042040929081     
  0.12840000000000001        -0.30303111468051169     
  0.12869999999999998        -0.28063333631799259     
  0.12900000000000000        -0.25004535916230480     
  0.12930000000000003        -0.21131689156343553     
  0.12959999999999999        -0.16909741049918448     
  0.12990000000000002        -0.12530150229020406     
  0.13019999999999998         -8.2944610236453858E-002
  0.13050000000000000         -4.5085994000925306E-002
  0.13080000000000003         -1.3779744078192151E-002
  0.13109999999999999          8.5544730403242352E-003
  0.13140000000000002          2.1361581691329519E-002
  0.13169999999999998          2.3392254921537903E-002
  0.13200000000000001          1.5905254241150999E-002
  0.13229999999999997          5.3464705216860198E-005
  0.13260000000000000         -2.1586235776395901E-002
  0.13290000000000002         -4.6767160451696717E-002
  0.13319999999999999         -7.1160761146825319E-002
  0.13350000000000001         -9.2946040027826499E-002
  0.13380000000000003        -0.10795160402001761     
  0.13410000000000000        -0.11540676023635479     
  0.13440000000000002        -0.11365927818197388     
  0.13469999999999999        -0.10261329330334690     
  0.13500000000000001         -8.4577918423138776E-002
  0.13529999999999998         -5.9989721596287487E-002
  0.13560000000000000         -3.3326992066726624E-002
  0.13590000000000002         -6.1376128725996876E-003
  0.13619999999999999          1.7499270040410429E-002
  0.13650000000000001          3.5147407244713547E-002
  0.13680000000000003          4.5096835161722235E-002
  0.13710000000000000          4.5204324022957300E-002
  0.13740000000000002          3.5883829792906621E-002
  0.13769999999999999          1.6732533625017497E-002
  0.13800000000000001         -1.1199565239830137E-002
  0.13829999999999998         -4.6331793201233915E-002
  0.13860000000000000         -8.6738767402119110E-002
  0.13890000000000002        -0.13028120820620132     
  0.13919999999999999        -0.17460333253114846     
  0.13950000000000001        -0.21724631047037385     
  0.13979999999999998        -0.25584385301419366     
  0.14010000000000000        -0.28850488689886389     
  0.14040000000000002        -0.31281891219814273     
  0.14069999999999999        -0.32794945030314837     
  0.14100000000000001        -0.33265098542620281     
  0.14130000000000004        -0.32645699727699617     
  0.14160000000000000        -0.31046000173975630     
  0.14189999999999997        -0.28482482628926842     
  0.14219999999999999        -0.25210298331165976     
  0.14250000000000002        -0.21396520164970145     
  0.14279999999999998        -0.17368167013027674     
  0.14310000000000000        -0.13330749180858570     
  0.14339999999999997         -9.5911036023055674E-002
  0.14369999999999999         -6.3723537060851376E-002
  0.14400000000000002         -3.8066231146669918E-002
  0.14429999999999998         -2.1013705319929195E-002
  0.14460000000000001         -1.1903300546169818E-002
  0.14490000000000003         -1.1457030875598569E-002
  0.14520000000000000         -1.8283367303109008E-002
  0.14550000000000002         -3.1230480274534029E-002
  0.14579999999999999         -4.9194888321503774E-002
  0.14610000000000001         -6.9382792447005764E-002
  0.14640000000000003         -9.0717036526438324E-002
  0.14670000000000000        -0.11116539765383429     
  0.14699999999999996        -0.12889176872129304     
  0.14729999999999999        -0.14249006611552881     
  0.14760000000000001        -0.15064904597096823     
  0.14789999999999998        -0.15206948729345438     
  0.14820000000000000        -0.14700963002458656     