  -1.4999999999999999E-002     0.0000000000000000     
  -1.4700000000000000E-002     0.0000000000000000     
  -1.4400000000000000E-002     0.0000000000000000     
  -1.4100000000000000E-002     0.0000000000000000     
  -1.3800000000000000E-002     0.0000000000000000     
  -1.3500000000000000E-002     0.0000000000000000     
  -1.3200000000000000E-002     0.0000000000000000     
  -1.2899999999999998E-002     0.0000000000000000     
  -1.2600000000000000E-002     0.0000000000000000     
  -1.2299999999999998E-002     0.0000000000000000     
  -1.2000000000000000E-002     0.0000000000000000     
  -1.1699999999999999E-002     0.0000000000000000     
  -1.1399999999999999E-002     0.0000000000000000     
  -1.1099999999999999E-002     0.0000000000000000     
  -1.0799999999999999E-002     0.0000000000000000     
  -1.0499999999999999E-002     0.0000000000000000     
  -1.0199999999999999E-002     0.0000000000000000     
  -9.8999999999999991E-003     0.0000000000000000     
  -9.5999999999999992E-003     0.0000000000000000     
  -9.2999999999999992E-003     0.0000000000000000     
  -8.9999999999999993E-003     0.0000000000000000     
  -8.6999999999999994E-003     0.0000000000000000     
  -8.3999999999999995E-003     0.0000000000000000     
  -8.0999999999999996E-003     0.0000000000000000     
  -7.7999999999999988E-003     0.0000000000000000     
  -7.4999999999999997E-003     0.0000000000000000     
  -7.1999999999999998E-003     0.0000000000000000     
  -6.8999999999999981E-003     0.0000000000000000     
  -6.5999999999999982E-003     0.0000000000000000     
  -6.3000000000000000E-003     0.0000000000000000     
  -6.0000000000000001E-003     0.0000000000000000     
  -5.6999999999999985E-003     0.0000000000000000     
  -5.3999999999999986E-003     0.0000000000000000     
  -5.1000000000000004E-003     0.0000000000000000     
  -4.7999999999999987E-003     0.0000000000000000     
  -4.5000000000000005E-003     0.0000000000000000     
  -4.1999999999999989E-003     0.0000000000000000     
  -3.8999999999999990E-003     0.0000000000000000     
  -3.5999999999999990E-003     0.0000000000000000     
  -3.2999999999999991E-003     0.0000000000000000     
  -2.9999999999999992E-003     0.0000000000000000     
  -2.6999999999999993E-003     0.0000000000000000     
  -2.3999999999999994E-003     0.0000000000000000     
  -2.0999999999999977E-003     0.0000000000000000     
  -1.7999999999999995E-003     0.0000000000000000     
  -1.4999999999999979E-003     0.0000000000000000     
  -1.1999999999999997E-003     0.0000000000000000     
  -8.9999999999999976E-004     0.0000000000000000     
  -5.9999999999999810E-004     0.0000000000000000     
  -2.9999999999999992E-004     0.0000000000000000     
   0.0000000000000000          0.0000000000000000     
   3.0000000000000165E-004     0.0000000000000000     
   5.9999999999999984E-004     0.0000000000000000     
   9.0000000000000149E-004     0.0000000000000000     
   1.2000000000000031E-003     0.0000000000000000     
   1.5000000000000013E-003     0.0000000000000000     
   1.8000000000000030E-003     0.0000000000000000     
   2.1000000000000012E-003     0.0000000000000000     
   2.3999999999999994E-003     0.0000000000000000     
   2.7000000000000010E-003     0.0000000000000000     
   2.9999999999999992E-003     0.0000000000000000     
   3.3000000000000008E-003     0.0000000000000000     
   3.6000000000000025E-003     0.0000000000000000     
   3.9000000000000007E-003     0.0000000000000000     
   4.2000000000000023E-003     0.0000000000000000     
   4.5000000000000005E-003     0.0000000000000000     
   4.7999999999999987E-003     0.0000000000000000     
   5.1000000000000004E-003     0.0000000000000000     
   5.4000000000000020E-003     0.0000000000000000     
   5.7000000000000037E-003     0.0000000000000000     
   5.9999999999999984E-003     0.0000000000000000     
   6.3000000000000000E-003     0.0000000000000000     
   6.6000000000000017E-003     0.0000000000000000     
   6.9000000000000034E-003     0.0000000000000000     
   7.2000000000000015E-003     0.0000000000000000     
   7.5000000000000032E-003     0.0000000000000000     
   7.8000000000000014E-003     0.0000000000000000     
   8.0999999999999996E-003     0.0000000000000000     
   8.4000000000000012E-003     0.0000000000000000     
   8.7000000000000029E-003     0.0000000000000000     
   9.0000000000000011E-003     0.0000000000000000     
   9.2999999999999992E-003     0.0000000000000000     
   9.6000000000000009E-003     0.0000000000000000     
   9.8999999999999991E-003     0.0000000000000000     
   1.0200000000000001E-002     0.0000000000000000     
   1.0500000000000002E-002     0.0000000000000000     
   1.0800000000000004E-002     0.0000000000000000     
   1.1099999999999999E-002     0.0000000000000000     
   1.1400000000000000E-002     0.0000000000000000     
   1.1700000000000002E-002     0.0000000000000000     
   1.2000000000000004E-002     0.0000000000000000     
   1.2300000000000002E-002     0.0000000000000000     
   1.2600000000000000E-002     0.0000000000000000     
   1.2900000000000002E-002     0.0000000000000000     
   1.3200000000000000E-002     0.0000000000000000     
   1.3500000000000002E-002     0.0000000000000000     
   1.3800000000000003E-002     0.0000000000000000     
   1.4100000000000001E-002     0.0000000000000000     
   1.4400000000000000E-002     0.0000000000000000     
   1.4700000000000001E-002     0.0000000000000000     
   1.4999999999999999E-002     0.0000000000000000     
   1.5300000000000001E-002     0.0000000000000000     
   1.5600000000000003E-002     0.0000000000000000     
   1.5899999999999997E-002     0.0000000000000000     
   1.6199999999999999E-002     0.0000000000000000     
   1.6500000000000001E-002     0.0000000000000000     
   1.6800000000000002E-002     0.0000000000000000     
   1.7100000000000004E-002     0.0000000000000000     
   1.7400000000000006E-002     0.0000000000000000     
   1.7700000000000000E-002     0.0000000000000000     
   1.8000000000000002E-002     0.0000000000000000     
   1.8300000000000004E-002     0.0000000000000000     
   1.8600000000000005E-002     0.0000000000000000     
   1.8900000000000000E-002     0.0000000000000000     
   1.9200000000000002E-002     0.0000000000000000     
   1.9500000000000003E-002     0.0000000000000000     
   1.9799999999999998E-002     0.0000000000000000     
   2.0100000000000000E-002     0.0000000000000000     
   2.0400000000000001E-002     0.0000000000000000     
   2.0700000000000003E-002     5.7821671989335931E-044
   2.0999999999999998E-002     8.0087082729201850E-043
   2.1299999999999999E-002     1.2918007559991031E-037
   2.1600000000000001E-002     5.0863497666970765E-037
   2.1900000000000003E-002    -1.2957905272890835E-036
   2.2200000000000004E-002    -2.5098917990547832E-036
   2.2500000000000006E-002     9.8062487560076220E-036
   2.2800000000000001E-002    -8.6872204912698276E-036
   2.3100000000000002E-002     3.8012033540436049E-035
   2.3400000000000004E-002     1.1257365861851371E-035
   2.3699999999999999E-002    -2.9683468868355630E-034
   2.4000000000000000E-002     1.0479673238891131E-033
   2.4300000000000002E-002    -1.9167704855001028E-033
   2.4599999999999997E-002     5.9811594157900905E-033
   2.4900000000000005E-002    -2.1073895414162716E-032
   2.5200000000000000E-002     7.0187550269637824E-032
   2.5499999999999995E-002    -2.1532522709269555E-031
   2.5800000000000003E-002     6.0898308857654015E-031
   2.6099999999999998E-002    -1.5835193243649708E-030
   2.6400000000000007E-002     3.7074087594767000E-030
   2.6700000000000002E-002    -7.4461809535725821E-030
   2.6999999999999996E-002     1.1175140468363416E-029
   2.7300000000000005E-002    -4.0568142719592892E-030
   2.7600000000000000E-002    -5.3921165679425233E-029
   2.7900000000000008E-002     2.7711831903747114E-028
   2.8200000000000003E-002    -9.3098616220482092E-028
   2.8499999999999998E-002     2.4932415547103812E-027
   2.8800000000000006E-002    -5.4664312947407225E-027
   2.9100000000000001E-002     9.2644977137105671E-027
   2.9400000000000003E-002    -8.7846680560022938E-027
   2.9700000000000004E-002    -1.3025541966970394E-026
   3.0000000000000006E-002     9.5599303193256424E-026
   3.0300000000000001E-002    -3.0165175547380769E-025
   3.0600000000000002E-002     6.6864634014800463E-025
   3.0900000000000004E-002    -1.0337842079000962E-024
   3.1199999999999999E-002     6.6657940836565899E-025
   3.1500000000000007E-002     2.1322653857964235E-024
   3.1800000000000002E-002    -9.6158901503112121E-024
   3.2099999999999997E-002     2.1377011432446990E-023
   3.2400000000000005E-002    -2.6202216328261798E-023
   3.2700000000000000E-002    -7.6403994238080803E-024
   3.3000000000000002E-002     1.2118503560362358E-022
   3.3300000000000003E-002    -2.7565000592631439E-022
   3.3599999999999998E-002     1.1590883684430408E-022
   3.3900000000000000E-002     1.3376400271153075E-021
   3.4200000000000001E-002    -5.4203623437567109E-021
   3.4500000000000003E-002     1.1096735644168369E-020
   3.4799999999999998E-002    -6.5655543121248693E-021
   3.5099999999999999E-002    -4.6119444981744908E-020
   3.5400000000000001E-002     2.1992143573272861E-019
   3.5699999999999996E-002    -5.6515363325143749E-019
   3.6000000000000004E-002     8.3349301023958353E-019
   3.6299999999999999E-002     2.2936612110600527E-019
   3.6600000000000008E-002    -5.8640979083154899E-018
   3.6900000000000002E-002     2.0552572143404701E-017
   3.7199999999999997E-002    -4.1152658437780135E-017
   3.7500000000000006E-002     2.9722600405578838E-017
   3.7800000000000000E-002     1.2734746012740242E-016
   3.8100000000000009E-002    -5.9715283108713526E-016
   3.8400000000000004E-002     1.2984507290260833E-015
   3.8699999999999998E-002    -1.0905176044450938E-015
   3.9000000000000007E-002    -3.0625291291929983E-015
   3.9300000000000002E-002     1.4454401636101365E-014
   3.9600000000000003E-002    -2.8260488703396155E-014
   3.9900000000000005E-002     1.6898300357176729E-014
   4.0200000000000000E-002     7.2119734433356595E-014
   4.0500000000000001E-002    -2.6594312854917014E-013
   4.0800000000000003E-002     4.4326023092627572E-013
   4.1100000000000005E-002    -2.0597569516749842E-013
   4.1399999999999999E-002    -1.1180430144752167E-012
   4.1700000000000008E-002     4.2083695927987271E-012
   4.2000000000000003E-002    -8.4816542486001805E-012
   4.2299999999999997E-002     6.8027775560893878E-012
   4.2600000000000006E-002     2.5724305587532159E-011
   4.2900000000000001E-002    -1.2353165764255042E-010
   4.3200000000000002E-002     2.0947627259039841E-010
   4.3500000000000004E-002     1.8403196313564099E-010
   4.3799999999999999E-002    -1.6994283439340334E-009
   4.4100000000000000E-002     2.6339401952356127E-009
   4.4400000000000002E-002     4.6492165531035034E-009
   4.4700000000000004E-002    -2.2953647886131847E-008
   4.4999999999999998E-002     2.4756277758951353E-009
   4.5300000000000000E-002     1.0875872602180314E-007
   4.5600000000000002E-002    -1.1275741358978090E-007
   4.5899999999999996E-002    -3.8781635848284865E-007
   4.6200000000000005E-002     2.0847272929400897E-006
   4.6500000000000000E-002     1.0685117985510890E-005
   4.6799999999999994E-002     2.4825526069196682E-005
   4.7100000000000003E-002     4.0049771290306595E-005
   4.7399999999999998E-002     5.3364015220732694E-005
   4.7700000000000006E-002     6.8741414699003854E-005
   4.8000000000000001E-002     9.8264951464805319E-005
   4.8300000000000010E-002     1.5456616741003497E-004
   4.8600000000000004E-002     2.4318420243504818E-004
   4.8899999999999999E-002     3.6962317470916393E-004
   4.9200000000000008E-002     5.4902568591117375E-004
   4.9500000000000002E-002     8.0152039847822851E-004
   4.9800000000000011E-002     1.1484569910416198E-003
   5.0100000000000006E-002     1.6185141287515213E-003
   5.0400000000000000E-002     2.2482286028226977E-003
   5.0700000000000009E-002     3.0767801341488031E-003
   5.1000000000000004E-002     4.1428312685619752E-003
   5.1299999999999998E-002     5.4807319675006551E-003
   5.1600000000000007E-002     7.1201816701520187E-003
   5.1900000000000002E-002     9.0853034875715121E-003
   5.2200000000000010E-002     1.1382010892079804E-002
   5.2500000000000005E-002     1.3982086472906104E-002
   5.2800000000000000E-002     1.6816567061889748E-002
   5.3099999999999994E-002     1.9770005621941172E-002
   5.3400000000000003E-002     2.2671662421658058E-002
   5.3699999999999998E-002     2.5292479090105388E-002
   5.4000000000000006E-002     2.7351659795826481E-002
   5.4300000000000001E-002     2.8522745920762857E-002
   5.4599999999999996E-002     2.8442925081808033E-002
   5.4900000000000004E-002     2.6743360987494726E-002
   5.5199999999999999E-002     2.3095288345798951E-002
   5.5499999999999994E-002     1.7252033336998353E-002
   5.5800000000000002E-002     9.0907978217594689E-003
   5.6099999999999997E-002    -1.3451621833999615E-003
   5.6400000000000006E-002    -1.3802370803580873E-002
   5.6700000000000000E-002    -2.7810844884802392E-002
   5.6999999999999995E-002    -4.2706749959010470E-002
   5.7300000000000004E-002    -5.7675774896298979E-002
   5.7599999999999998E-002    -7.1792489118158581E-002
   5.7900000000000007E-002    -8.4136744538624561E-002
   5.8200000000000002E-002    -9.3968181414533947E-002
   5.8499999999999996E-002   -0.10083558487750363     
   5.8800000000000005E-002   -0.10466057472155815     
   5.9100000000000000E-002   -0.10586111766721912     
   5.9400000000000008E-002   -0.10539104067148908     
   5.9700000000000003E-002   -0.10469684904146334     
   6.0000000000000012E-002   -0.10562981885667731     
   6.0300000000000006E-002   -0.11017545765239151     
   6.0600000000000001E-002   -0.12018907971282630     
   6.0900000000000010E-002   -0.13712466797623593     
   6.1200000000000004E-002   -0.16163108255157649     
   6.1500000000000013E-002   -0.19332094380319123     
   6.1800000000000008E-002   -0.23052205341442550     
   6.2100000000000002E-002   -0.27020803550381628     
   6.2399999999999997E-002   -0.30806978048896755     
   6.2700000000000006E-002   -0.33880732394411139     
   6.3000000000000000E-002   -0.35654181569642890     
   6.3300000000000009E-002   -0.35540974586210128     
   6.3600000000000004E-002   -0.33022489577712022     
   6.3899999999999998E-002   -0.27711186541616678     
   6.4199999999999993E-002   -0.19414623004655177     
   6.4500000000000002E-002    -8.1910069583927270E-002
   6.4800000000000010E-002     5.6392867363116883E-002
   6.5100000000000005E-002    0.21480628140134256     
   6.5400000000000000E-002    0.38490999837944162     
   6.5700000000000008E-002    0.55643225279244168     
   6.5999999999999989E-002    0.71785010335313204     
   6.6299999999999998E-002    0.85740685532911631     
   6.6600000000000006E-002    0.96405289247827008     
   6.6900000000000001E-002     1.0283511170545503     
   6.7199999999999996E-002     1.0433874323746513     
   6.7500000000000004E-002     1.0053215907880686     
   6.7800000000000013E-002    0.91386719151435436     
   6.8099999999999994E-002    0.77225075945689869     
   6.8400000000000002E-002    0.58725113082719615     
   6.8700000000000011E-002    0.36860441488034501     
   6.8999999999999992E-002    0.12843486245993413     
   6.9300000000000000E-002   -0.11962230426964257     
   6.9600000000000009E-002   -0.36124357097149884     
   6.9900000000000004E-002   -0.58241067949382053     
   7.0199999999999999E-002   -0.77025836819069027     
   7.0500000000000007E-002   -0.91391620490885406     
   7.0800000000000016E-002    -1.0051860465790523     
   7.1099999999999997E-002    -1.0390162542219477     
   7.1400000000000005E-002    -1.0139018973138918     
   7.1700000000000000E-002   -0.93193483832066848     
   7.1999999999999995E-002   -0.79878975131159824     
   7.2300000000000003E-002   -0.62332676112272689     
   7.2600000000000012E-002   -0.41717417094958475     
   7.2900000000000006E-002   -0.19405221762807484     
   7.3200000000000001E-002     3.1112412118901304E-002
   7.3499999999999996E-002    0.24308597052827680     
   7.3800000000000004E-002    0.42750526911601727     
   7.4099999999999999E-002    0.57170084613336136     
   7.4400000000000008E-002    0.66566500690587160     
   7.4700000000000003E-002    0.70292598356666247     
   7.5000000000000011E-002    0.68110674106979308     
   7.5299999999999992E-002    0.60214354343025156     
   7.5600000000000001E-002    0.47224149116116543     
   7.5900000000000009E-002    0.30156378379836146     
   7.6200000000000004E-002    0.10359913831106607     
   7.6499999999999999E-002   -0.10597934101746798     
   7.6800000000000007E-002   -0.31025145421061140     
   7.7099999999999988E-002   -0.49253818365437307     
   7.7399999999999997E-002   -0.63763005832055009     
   7.7700000000000005E-002   -0.73288967170650410     
   7.8000000000000014E-002   -0.76947288136192671     
   7.8299999999999995E-002   -0.74286032665827229     
   7.8600000000000003E-002   -0.65330858644431000     
   7.8900000000000012E-002   -0.50580814410481267     
   7.9199999999999993E-002   -0.30966308171454499     
   7.9500000000000001E-002    -7.7849640609664109E-002
   7.9800000000000010E-002    0.17433036880820871     
   8.0100000000000018E-002    0.43020323144178929     
   8.0399999999999999E-002    0.67312118845151370     
   8.0700000000000008E-002    0.88784744803531601     
   8.1000000000000003E-002     1.0616871316813261     
   8.1299999999999997E-002     1.1853432918752147     
   8.1600000000000006E-002     1.2536017542547158     
   8.1900000000000014E-002     1.2653058714932661     
   8.2199999999999995E-002     1.2235055211957717     
   8.2500000000000004E-002     1.1348390744013661     
   8.2799999999999999E-002     1.0086704345542019     
   8.3100000000000007E-002    0.85622806983964472     
   8.3400000000000002E-002    0.68950516409759144     
   8.3700000000000011E-002    0.52012492190741444     
   8.4000000000000005E-002    0.35852947061352436     
   8.4300000000000000E-002    0.21299716834554983     
   8.4599999999999995E-002     8.9135651730468640E-002
   8.4900000000000003E-002    -1.0164873354307994E-002
   8.5199999999999998E-002    -8.5002582521778142E-002
   8.5500000000000007E-002   -0.13815409831303974     
   8.5800000000000001E-002   -0.17451700903936523     
   8.6100000000000010E-002   -0.20066165797088009     
   8.6399999999999991E-002   -0.22389720476285510     
   8.6699999999999999E-002   -0.25166416595042623     
   8.7000000000000008E-002   -0.29078547927469917     
   8.7300000000000003E-002   -0.34664981473270906     
   8.7599999999999997E-002   -0.42269900014695749     
   8.7900000000000006E-002   -0.52012919969022398     
   8.8200000000000014E-002   -0.63734322141928379     
   8.8499999999999995E-002   -0.77043574138733950     
   8.8800000000000004E-002   -0.91279990824208967     
   8.9100000000000013E-002    -1.0559247769327147     
   8.9399999999999993E-002    -1.1898349937023647     
   8.9700000000000002E-002    -1.3039574510248744     
   9.0000000000000011E-002    -1.3879077469165042     
   9.0299999999999991E-002    -1.4325413246145229     
   9.0600000000000000E-002    -1.4305869019781841     
   9.0900000000000009E-002    -1.3777724904718085     
   9.1200000000000017E-002    -1.2729286089505982     
   9.1499999999999998E-002    -1.1188399633901205     
   9.1800000000000007E-002   -0.92139515390220650     
   9.2100000000000001E-002   -0.69010652778989712     
   9.2399999999999996E-002   -0.43658667649028704     
   9.2700000000000005E-002   -0.17426307132951302     
   9.3000000000000013E-002     8.3014378130992356E-002
   9.3300000000000008E-002    0.32224906623065308     
   9.3600000000000003E-002    0.53203178018933572     
   9.3899999999999997E-002    0.70367478220630764     
   9.4200000000000006E-002    0.83206350118626449     
   9.4500000000000001E-002    0.91533509927376899     
   9.4800000000000009E-002    0.95559562677827237     
   9.5100000000000004E-002    0.95786868471204456     
   9.5399999999999999E-002    0.92979119543333488     
   9.5699999999999993E-002    0.88046770361540805     
   9.6000000000000002E-002    0.81970518003044313     
   9.6300000000000011E-002    0.75658002956215165     
   9.6600000000000005E-002    0.69882508130370879     
   9.6900000000000000E-002    0.65193215396354254     
   9.7200000000000009E-002    0.61878591292045071     
   9.7499999999999989E-002    0.59927348677358960     
   9.7799999999999998E-002    0.59090655964850491     
   9.8100000000000007E-002    0.58854929214890728     
   9.8400000000000015E-002    0.58575610150422364     
   9.8699999999999996E-002    0.57503772019888211     
   9.9000000000000005E-002    0.54893904711818642     
   9.9300000000000013E-002    0.50095013015543088     
   9.9599999999999994E-002    0.42588356533255639     
   9.9900000000000003E-002    0.32103251625140788     
  0.10020000000000001         0.18594367024320826     
  0.10049999999999999          2.2861071981181938E-002
  0.10080000000000000        -0.16328299792837786     
  0.10110000000000001        -0.36569397700869188     
  0.10140000000000000        -0.57519838378054833     
  0.10170000000000000        -0.78197448596922370     
  0.10200000000000001        -0.97537850046614016     
  0.10230000000000002         -1.1449634981064751     
  0.10260000000000000         -1.2813655088834599     
  0.10290000000000001         -1.3763946708608106     
  0.10320000000000000         -1.4241688030451869     
  0.10350000000000001         -1.4210524278392880     
  0.10380000000000000         -1.3662377487619379     
  0.10410000000000001         -1.2617266684622959     
  0.10440000000000001         -1.1121375664784172     
  0.10470000000000000        -0.92511685619371820     
  0.10500000000000000        -0.70998857855829822     
  0.10530000000000000        -0.47830662771778376     
  0.10560000000000000        -0.24222141023689975     
  0.10590000000000001         -1.4601694081495746E-002
  0.10620000000000000         0.19217461200287439     
  0.10650000000000001         0.36726987701301972     
  0.10679999999999999         0.50174868304167752     
  0.10710000000000000         0.58931984226687661     
  0.10740000000000001         0.62705954417379017     
  0.10770000000000000         0.61566433785514163     
  0.10800000000000000         0.55901494615186220     
  0.10830000000000001         0.46485545883914303     
  0.10859999999999999         0.34326194447153935     
  0.10890000000000000         0.20624604973361993     
  0.10920000000000001          6.7141369811327498E-002
  0.10950000000000001         -6.1318990641475800E-002
  0.10979999999999999        -0.16721737977611884     
  0.11009999999999999        -0.24123762407616256     
  0.11040000000000001        -0.27685842082421674     
  0.11070000000000001        -0.27132512267655645     
  0.11100000000000000        -0.22521743953129730     
  0.11130000000000000        -0.14293217628900895     
  0.11160000000000002         -3.1404974112123465E-002
  0.11190000000000001         0.10035277896055735     
  0.11220000000000001         0.24242956700420470     
  0.11250000000000000         0.38515787070144392     
  0.11280000000000000         0.52008275427743411     
  0.11309999999999999         0.64090243423501447     
  0.11340000000000001         0.74359135874457616     
  0.11369999999999998         0.82724738938747799     
  0.11400000000000000         0.89302593687957221     
  0.11430000000000000         0.94425904635203661     
  0.11460000000000002         0.98559368532115732     
  0.11489999999999999          1.0215042324808328     
  0.11520000000000001          1.0564938661632199     
  0.11550000000000001          1.0930537172206649     
  0.11580000000000000          1.1322440201341553     
  0.11609999999999999          1.1728749055600720     
  0.11640000000000002          1.2113669775884732     
  0.11670000000000001          1.2427300370708265     
  0.11700000000000001          1.2606449956548986     
  0.11730000000000000          1.2578922495421159     
  0.11760000000000000          1.2279175491884358     
  0.11789999999999999          1.1645759265941491     
  0.11820000000000001          1.0632930336507380     
  0.11850000000000001         0.92138564061684791     
  0.11880000000000000         0.73808917287359610     
  0.11910000000000000         0.51481754083447318     
  0.11940000000000002         0.25515353386249628     
  0.11970000000000001         -3.5035888083424255E-002
  0.12000000000000001        -0.34860718720053369     
  0.12030000000000000        -0.67591609787713769     
  0.12060000000000000         -1.0064544744863810     
  0.12089999999999999         -1.3283873461968914     
  0.12119999999999999         -1.6284818526002236     
  0.12150000000000001         -1.8939521943825790     
  0.12180000000000001         -2.1111426082760500     
  0.12210000000000000         -2.2678280164571913     
  0.12239999999999999         -2.3533783258919931     
  0.12270000000000002         -2.3591977411819176     
  0.12300000000000001         -2.2807178045869647     
  0.12330000000000001         -2.1171899977857791     
  0.12360000000000000         -1.8727356948435556     
  0.12390000000000000         -1.5564283604217628     
  0.12419999999999999         -1.1822080492199494     
  0.12450000000000001        -0.76828681504841834     
  0.12480000000000001        -0.33618149322336971     
  0.12509999999999999          9.0873962874012254E-002
  0.12540000000000001         0.48947345289115629     
  0.12570000000000003         0.83745189653873964     
  0.12600000000000000          1.1162155724238665     
  0.12630000000000002          1.3116906306562521     
  0.12659999999999999          1.4157438013134747     
  0.12690000000000001          1.4263570505282717     
  0.12719999999999998          1.3481627600861326     
  0.12750000000000000          1.1916558205604482     
  0.12780000000000002         0.97234175931942923     
  0.12809999999999999         0.70949497208397516     
  0.12840000000000001         0.42434911832580202     
  0.12869999999999998         0.13911524638833320     
  0.12900000000000000        -0.12540081268114348     
  0.12930000000000003        -0.35013336148228941     
  0.12959999999999999        -0.51932349761426566     
  0.12990000000000002        -0.62152713718577890     
  0.13019999999999998        -0.64869237514771039     
  0.13050000000000000        -0.59846168310032977     
  0.13080000000000003        -0.47193348244184696     
  0.13109999999999999        -0.27490675092359995     
  0.13140000000000002         -1.7244204614610167E-002
  0.13169999999999998         0.28790070074204910     
  0.13200000000000001         0.62380608784524250     
  0.13229999999999997         0.97143185779274832     
  0.13260000000000000          1.3097145205778322     
  0.13290000000000002          1.6168031406831682     
  0.13319999999999999          1.8709182521709078     
  0.13350000000000001          2.0518465445559149     
  0.13380000000000003          2.1422869711461399     
  0.13410000000000000          2.1293547122831002     
  0.13440000000000002          2.0055937585455625     
  0.13469999999999999          1.7701650360409475     
  0.13500000000000001          1.4295419824925653     
  0.13529999999999998         0.99708431220004901     
  0.13560000000000000         0.49316690381749795     
  0.13590000000000002         -5.6535434261990536E-002
  0.13619999999999999        -0.62166218299089193     
  0.13650000000000001         -1.1704137718300096     
  0.13680000000000003         -1.6699797909584646     
  0.13710000000000000         -2.0905601087507915     
  0.13740000000000002         -2.4059358748460147     
  0.13769999999999999         -2.5961671140406861     
  0.13800000000000001         -2.6490945156003747     
  0.13829999999999998         -2.5608647473239232     
  0.13860000000000000         -2.3367010654753217     
  0.13890000000000002         -1.9909698881538054     
  0.13919999999999999         -1.5464076877447193     
  0.13950000000000001         -1.0324558953310263     
  0.13979999999999998        -0.48422094353509126     
  0.14010000000000000          6.0110530442002791E-002
  0.14040000000000002         0.56218432592141265     
  0.14069999999999999         0.98522063529592430     
  0.14100000000000001          1.2978753364969635     
  0.14130000000000004          1.4756707835361911     
  0.14160000000000000          1.5043681280029682     
  0.14189999999999997          1.3796289424609038     
  0.14219999999999999          1.1098275763051657     
  0.14250000000000002         0.71385124140499501     
  0.14279999999999998         0.22081882511248596     
  0.14310000000000000        -0.33219677272337922     
  0.14339999999999997        -0.90356770678306553     
  0.14369999999999999         -1.4499009710022333     
  0.14400000000000002         -1.9306043593436453     
  0.14429999999999998         -2.3104296197199847     
  0.14460000000000001         -2.5632696266296602     
  0.14490000000000003         -2.6740069381152107     
  0.14520000000000000         -2.6393850323869890     
  0.14550000000000002         -2.4689732721337379     
  0.14579999999999999         -2.1824706616740110     
  0.14610000000000001         -1.8092053278846403     
  0.14640000000000003         -1.3834475043102041     
  0.14670000000000000        -0.94247730035625499     
  0.14699999999999996        -0.52138680438742591     
  0.14729999999999999        -0.15111204340233575     
  0.14760000000000001         0.14478747289604216     
  0.14789999999999998         0.35249930723630868     
  0.14820000000000000         0.46758858300620687     