  -1.4999999999999999E-002     0.0000000000000000     
  -1.4700000000000000E-002     0.0000000000000000     
  -1.4400000000000000E-002     0.0000000000000000     
  -1.4100000000000000E-002     0.0000000000000000     
  -1.3800000000000000E-002     0.0000000000000000     
  -1.3500000000000000E-002     0.0000000000000000     
  -1.3200000000000000E-002     0.0000000000000000     
  -1.2899999999999998E-002     0.0000000000000000     
  -1.2600000000000000E-002     0.0000000000000000     
  -1.2299999999999998E-002     0.0000000000000000     
  -1.2000000000000000E-002     0.0000000000000000     
  -1.1699999999999999E-002     0.0000000000000000     
  -1.1399999999999999E-002     0.0000000000000000     
  -1.1099999999999999E-002     0.0000000000000000     
  -1.0799999999999999E-002     0.0000000000000000     
  -1.0499999999999999E-002     0.0000000000000000     
  -1.0199999999999999E-002     0.0000000000000000     
  -9.8999999999999991E-003     0.0000000000000000     
  -9.5999999999999992E-003     0.0000000000000000     
  -9.2999999999999992E-003     0.0000000000000000     
  -8.9999999999999993E-003     0.0000000000000000     
  -8.6999999999999994E-003     0.0000000000000000     
  -8.3999999999999995E-003     0.0000000000000000     
  -8.0999999999999996E-003     0.0000000000000000     
  -7.7999999999999988E-003     0.0000000000000000     
  -7.4999999999999997E-003     0.0000000000000000     
  -7.1999999999999998E-003     0.0000000000000000     
  -6.8999999999999981E-003     0.0000000000000000     
  -6.5999999999999982E-003     0.0000000000000000     
  -6.3000000000000000E-003     0.0000000000000000     
  -6.0000000000000001E-003     0.0000000000000000     
  -5.6999999999999985E-003     0.0000000000000000     
  -5.3999999999999986E-003     0.0000000000000000     
  -5.1000000000000004E-003     0.0000000000000000     
  -4.7999999999999987E-003     0.0000000000000000     
  -4.5000000000000005E-003     0.0000000000000000     
  -4.1999999999999989E-003     0.0000000000000000     
  -3.8999999999999990E-003     0.0000000000000000     
  -3.5999999999999990E-003     0.0000000000000000     
  -3.2999999999999991E-003     0.0000000000000000     
  -2.9999999999999992E-003     0.0000000000000000     
  -2.6999999999999993E-003     0.0000000000000000     
  -2.3999999999999994E-003     0.0000000000000000     
  -2.0999999999999977E-003     0.0000000000000000     
  -1.7999999999999995E-003     0.0000000000000000     
  -1.4999999999999979E-003     0.0000000000000000     
  -1.1999999999999997E-003     0.0000000000000000     
  -8.9999999999999976E-004     0.0000000000000000     
  -5.9999999999999810E-004     0.0000000000000000     
  -2.9999999999999992E-004     0.0000000000000000     
   0.0000000000000000          0.0000000000000000     
   3.0000000000000165E-004     0.0000000000000000     
   5.9999999999999984E-004     0.0000000000000000     
   9.0000000000000149E-004     0.0000000000000000     
   1.2000000000000031E-003     0.0000000000000000     
   1.5000000000000013E-003     0.0000000000000000     
   1.8000000000000030E-003     0.0000000000000000     
   2.1000000000000012E-003     0.0000000000000000     
   2.3999999999999994E-003     0.0000000000000000     
   2.7000000000000010E-003     0.0000000000000000     
   2.9999999999999992E-003     0.0000000000000000     
   3.3000000000000008E-003     0.0000000000000000     
   3.6000000000000025E-003     0.0000000000000000     
   3.9000000000000007E-003     0.0000000000000000     
   4.2000000000000023E-003     0.0000000000000000     
   4.5000000000000005E-003     0.0000000000000000     
   4.7999999999999987E-003     0.0000000000000000     
   5.1000000000000004E-003     0.0000000000000000     
   5.4000000000000020E-003     0.0000000000000000     
   5.7000000000000037E-003     0.0000000000000000     
   5.9999999999999984E-003     0.0000000000000000     
   6.3000000000000000E-003     0.0000000000000000     
   6.6000000000000017E-003     0.0000000000000000     
   6.9000000000000034E-003     0.0000000000000000     
   7.2000000000000015E-003     0.0000000000000000     
   7.5000000000000032E-003     0.0000000000000000     
   7.8000000000000014E-003     0.0000000000000000     
   8.0999999999999996E-003     0.0000000000000000     
   8.4000000000000012E-003     0.0000000000000000     
   8.7000000000000029E-003     0.0000000000000000     
   9.0000000000000011E-003     0.0000000000000000     
   9.2999999999999992E-003     0.0000000000000000     
   9.6000000000000009E-003     0.0000000000000000     
   9.8999999999999991E-003     0.0000000000000000     
   1.0200000000000001E-002     0.0000000000000000     
   1.0500000000000002E-002     0.0000000000000000     
   1.0800000000000004E-002     0.0000000000000000     
   1.1099999999999999E-002     0.0000000000000000     
   1.1400000000000000E-002     0.0000000000000000     
   1.1700000000000002E-002     0.0000000000000000     
   1.2000000000000004E-002     0.0000000000000000     
   1.2300000000000002E-002     0.0000000000000000     
   1.2600000000000000E-002     0.0000000000000000     
   1.2900000000000002E-002     0.0000000000000000     
   1.3200000000000000E-002     0.0000000000000000     
   1.3500000000000002E-002     0.0000000000000000     
   1.3800000000000003E-002     0.0000000000000000     
   1.4100000000000001E-002     0.0000000000000000     
   1.4400000000000000E-002     0.0000000000000000     
   1.4700000000000001E-002     0.0000000000000000     
   1.4999999999999999E-002     0.0000000000000000     
   1.5300000000000001E-002     0.0000000000000000     
   1.5600000000000003E-002     0.0000000000000000     
   1.5899999999999997E-002     0.0000000000000000     
   1.6199999999999999E-002     0.0000000000000000     
   1.6500000000000001E-002     0.0000000000000000     
   1.6800000000000002E-002     0.0000000000000000     
   1.7100000000000004E-002     0.0000000000000000     
   1.7400000000000006E-002     0.0000000000000000     
   1.7700000000000000E-002     0.0000000000000000     
   1.8000000000000002E-002     0.0000000000000000     
   1.8300000000000004E-002     0.0000000000000000     
   1.8600000000000005E-002     0.0000000000000000     
   1.8900000000000000E-002     0.0000000000000000     
   1.9200000000000002E-002     0.0000000000000000     
   1.9500000000000003E-002     0.0000000000000000     
   1.9799999999999998E-002     0.0000000000000000     
   2.0100000000000000E-002     0.0000000000000000     
   2.0400000000000001E-002     0.0000000000000000     
   2.0700000000000003E-002     0.0000000000000000     
   2.0999999999999998E-002     0.0000000000000000     
   2.1299999999999999E-002     0.0000000000000000     
   2.1600000000000001E-002     0.0000000000000000     
   2.1900000000000003E-002     0.0000000000000000     
   2.2200000000000004E-002     0.0000000000000000     
   2.2500000000000006E-002     0.0000000000000000     
   2.2800000000000001E-002     0.0000000000000000     
   2.3100000000000002E-002     0.0000000000000000     
   2.3400000000000004E-002     0.0000000000000000     
   2.3699999999999999E-002     0.0000000000000000     
   2.4000000000000000E-002     0.0000000000000000     
   2.4300000000000002E-002     0.0000000000000000     
   2.4599999999999997E-002     0.0000000000000000     
   2.4900000000000005E-002     0.0000000000000000     
   2.5200000000000000E-002     0.0000000000000000     
   2.5499999999999995E-002     0.0000000000000000     
   2.5800000000000003E-002     0.0000000000000000     
   2.6099999999999998E-002     0.0000000000000000     
   2.6400000000000007E-002     0.0000000000000000     
   2.6700000000000002E-002     0.0000000000000000     
   2.6999999999999996E-002    -2.4595604800819968E-042
   2.7300000000000005E-002    -1.8050240249880595E-043
   2.7600000000000000E-002     1.3759344727168936E-040
   2.7900000000000008E-002     3.4556216633081211E-038
   2.8200000000000003E-002     5.2976590643663355E-037
   2.8499999999999998E-002    -3.2912502313584174E-036
   2.8800000000000006E-002    -2.2133375703235141E-037
   2.9100000000000001E-002     6.2880256633233604E-035
   2.9400000000000003E-002    -3.6872447055781732E-034
   2.9700000000000004E-002     6.3780004436263966E-034
   3.0000000000000006E-002    -1.6765835000498557E-033
   3.0300000000000001E-002     5.7699821617097662E-033
   3.0600000000000002E-002    -2.4739636049569358E-032
   3.0900000000000004E-002     9.0221731743269675E-032
   3.1199999999999999E-002    -2.8160960911300547E-031
   3.1500000000000007E-002     7.7545805232958513E-031
   3.1800000000000002E-002    -1.8757309063798908E-030
   3.2099999999999997E-002     3.8536965813687557E-030
   3.2400000000000005E-002    -5.9650743597984847E-030
   3.2700000000000000E-002     3.0110815259261146E-030
   3.3000000000000002E-002     2.3910300041235045E-029
   3.3300000000000003E-002    -1.2689856227893751E-028
   3.3599999999999998E-002     4.1950387677078528E-028
   3.3900000000000000E-002    -1.0809875379627839E-027
   3.4200000000000001E-002     2.2098519859641541E-027
   3.4500000000000003E-002    -3.2019403500999546E-027
   3.4799999999999998E-002     1.0783360509835563E-027
   3.5099999999999999E-002     1.2679681597214440E-026
   3.5400000000000001E-002    -5.5367164433773987E-026
   3.5699999999999996E-002     1.4872024770694220E-025
   3.6000000000000004E-002    -2.8649563064928590E-025
   3.6299999999999999E-002     3.3957679173471568E-025
   3.6600000000000008E-002     1.1933073603052460E-025
   3.6900000000000002E-002    -1.9648787460617077E-024
   3.7199999999999997E-002     6.2005922811116036E-024
   3.7500000000000006E-002    -1.2230985377332222E-023
   3.7800000000000000E-002     1.3749144524459860E-023
   3.8100000000000009E-002     6.5566817485058147E-024
   3.8400000000000004E-002    -7.5504411995309245E-023
   3.8699999999999998E-002     2.0263028845107599E-022
   3.9000000000000007E-002    -3.0828803611313410E-022
   3.9300000000000002E-002     1.2764265443462739E-022
   3.9600000000000003E-002     7.6959971578197198E-022
   3.9900000000000005E-002    -2.5480001060135931E-021
   4.0200000000000000E-002     4.0294911659009683E-021
   4.0500000000000001E-002    -1.5083914777250472E-021
   4.0800000000000003E-002    -1.0260659460871747E-020
   4.1100000000000005E-002     3.1075033651822683E-020
   4.1399999999999999E-002    -4.0722191235367968E-020
   4.1700000000000008E-002    -1.4509401432338503E-020
   4.2000000000000003E-002     2.0888029588763919E-019
   4.2299999999999997E-002    -5.5943482986977770E-019
   4.2600000000000006E-002     8.3818829711021730E-019
   4.2900000000000001E-002    -2.0334509021423933E-019
   4.3200000000000002E-002    -3.3994038397659645E-018
   4.3500000000000004E-002     1.3398954170238767E-017
   4.3799999999999999E-002    -3.0537953542712213E-017
   4.4100000000000000E-002     3.4691183130699926E-017
   4.4400000000000002E-002     5.5538811082501463E-017
   4.4700000000000004E-002    -4.0367876712765520E-016
   4.4999999999999998E-002     1.0598738110217817E-015
   4.5300000000000000E-002    -1.1702657505236663E-015
   4.5600000000000002E-002    -2.3890853419453913E-015
   4.5899999999999996E-002     1.4554248512373946E-014
   4.6200000000000005E-002    -3.2425071601599151E-014
   4.6500000000000000E-002     1.8060809099404303E-014
   4.6799999999999994E-002     1.2836999760875602E-013
   4.7100000000000003E-002    -4.9203967329034632E-013
   4.7399999999999998E-002     7.5682379712483608E-013
   4.7700000000000006E-002     5.1250762388018894E-013
   4.8000000000000001E-002    -5.7402693700952364E-012
   4.8300000000000010E-002     1.3556487911392844E-011
   4.8600000000000004E-002    -5.1864399106932483E-012
   4.8899999999999999E-002    -6.4306296054059035E-011
   4.9200000000000008E-002     1.9739892796744591E-010
   4.9500000000000002E-002    -1.0480800198916429E-010
   4.9800000000000011E-002    -9.2353947752731216E-010
   5.0100000000000006E-002     2.5187004952549625E-009
   5.0400000000000000E-002     7.4280620744499099E-010
   5.0700000000000009E-002    -1.5857886144810518E-008
   5.1000000000000004E-002     1.4677902360449963E-008
   5.1299999999999998E-002     6.6650285643460430E-008
   5.1600000000000007E-002    -1.3796220231078729E-007
   5.1900000000000002E-002    -2.4460868942984257E-007
   5.2200000000000010E-002     1.6024770961832095E-006
   5.2500000000000005E-002     6.7832738713981628E-006
   5.2800000000000000E-002     1.3517035546786339E-005
   5.3099999999999994E-002     1.8667808464119245E-005
   5.3400000000000003E-002     2.2252996746250020E-005
   5.3699999999999998E-002     2.8871227808639562E-005
   5.4000000000000006E-002     4.4962083270824014E-005
   5.4300000000000001E-002     7.4411491726612488E-005
   5.4599999999999996E-002     1.1723473598206758E-004
   5.4900000000000004E-002     1.7393691230891832E-004
   5.5199999999999999E-002     2.5018307996512243E-004
   5.5499999999999994E-002     3.5697094636678715E-004
   5.5800000000000002E-002     5.0737451497646381E-004
   5.6099999999999997E-002     7.1283009959820676E-004
   5.6400000000000006E-002     9.8360620596750600E-004
   5.6700000000000000E-002     1.3311224704578742E-003
   5.6999999999999995E-002     1.7664015447740953E-003
   5.7300000000000004E-002     2.2995143509750059E-003
   5.7599999999999998E-002     2.9393978997065049E-003
   5.7900000000000007E-002     3.6865225899960366E-003
   5.8200000000000002E-002     4.5260639608490126E-003
   5.8499999999999996E-002     5.4247111172815339E-003
   5.8800000000000005E-002     6.3307602428398901E-003
   5.9100000000000000E-002     7.1767637439355460E-003
   5.9400000000000008E-002     7.8704787940177684E-003
   5.9700000000000003E-002     8.2812359525741459E-003
   6.0000000000000012E-002     8.2540023653655085E-003
   6.0300000000000006E-002     7.6312443734659705E-003
   6.0600000000000001E-002     6.2553612648990394E-003
   6.0900000000000010E-002     3.9765872019528999E-003
   6.1200000000000004E-002     6.7234523416336348E-004
   6.1500000000000013E-002    -3.7177847498870119E-003
   6.1800000000000008E-002    -9.1572807615391862E-003
   6.2100000000000002E-002    -1.5500877136207659E-002
   6.2399999999999997E-002    -2.2489560977564764E-002
   6.2700000000000006E-002    -2.9725748832644137E-002
   6.3000000000000000E-002    -3.6673926738448229E-002
   6.3300000000000009E-002    -4.2693083732104967E-002
   6.3600000000000004E-002    -4.7092860924598419E-002
   6.3899999999999998E-002    -4.9186087964913625E-002
   6.4199999999999993E-002    -4.8351327916069130E-002
   6.4500000000000002E-002    -4.4123743235208290E-002
   6.4800000000000010E-002    -3.6304524689781771E-002
   6.5100000000000005E-002    -2.5050887393137981E-002
   6.5400000000000000E-002    -1.0914356200589921E-002
   6.5700000000000008E-002     5.1293098608499099E-003
   6.5999999999999989E-002     2.1682701808785849E-002
   6.6299999999999998E-002     3.6987553702341885E-002
   6.6600000000000006E-002     4.9031442391698765E-002
   6.6900000000000001E-002     5.5697405964791696E-002
   6.7199999999999996E-002     5.4937488654574741E-002
   6.7500000000000004E-002     4.5006872146594205E-002
   6.7800000000000013E-002     2.4664862667223390E-002
   6.8099999999999994E-002    -6.6247674490261550E-003
   6.8400000000000002E-002    -4.8544624983363892E-002
   6.8700000000000011E-002    -9.9853618522452919E-002
   6.8999999999999992E-002   -0.15831790835936677     
   6.9300000000000000E-002   -0.22082179014096470     
   6.9600000000000009E-002   -0.28342653014503516     
   6.9900000000000004E-002   -0.34167222498239114     
   7.0199999999999999E-002   -0.39082642657810607     
   7.0500000000000007E-002   -0.42622082653828353     
   7.0800000000000016E-002   -0.44361445801540444     
   7.1099999999999997E-002   -0.43955999484631708     
   7.1400000000000005E-002   -0.41175321482792282     
   7.1700000000000000E-002   -0.35925684232265442     
   7.1999999999999995E-002   -0.28279893923571009     
   7.2300000000000003E-002   -0.18476449307951437     
   7.2600000000000012E-002    -6.9192390472761739E-002
   7.2900000000000006E-002     5.8347204706184402E-002
   7.3200000000000001E-002    0.19113825487112032     
   7.3499999999999996E-002    0.32162225480345774     
   7.3800000000000004E-002    0.44199636418848376     
   7.4099999999999999E-002    0.54476497341426944     
   7.4400000000000008E-002    0.62330499125073313     
   7.4700000000000003E-002    0.67246164421161003     
   7.5000000000000011E-002    0.68897173596526562     
   7.5299999999999992E-002    0.67183270401302519     
   7.5600000000000001E-002    0.62243045840441813     
   7.5900000000000009E-002    0.54451280666510415     
   7.6200000000000004E-002    0.44393497134399085     
   7.6499999999999999E-002    0.32820591443279290     
   7.6800000000000007E-002    0.20595659312388634     
   7.7099999999999988E-002     8.6200274350570510E-002
   7.7399999999999997E-002    -2.2432186419428846E-002
   7.7700000000000005E-002   -0.11230645255846250     
   7.8000000000000014E-002   -0.17753836100380543     
   7.8299999999999995E-002   -0.21425586259892507     
   7.8600000000000003E-002   -0.22113850029818158     
   7.8900000000000012E-002   -0.19924255413852965     
   7.9199999999999993E-002   -0.15200954000614647     
   7.9500000000000001E-002    -8.4836136299299925E-002
   7.9800000000000010E-002    -4.6001673252336998E-003
   8.0100000000000018E-002     8.0924124685923748E-002
   8.0399999999999999E-002    0.16377690406591858     
   8.0700000000000008E-002    0.23636615544403444     
   8.1000000000000003E-002    0.29218763027999750     
   8.1299999999999997E-002    0.32611078851261310     
   8.1600000000000006E-002    0.33490722232880421     
   8.1900000000000014E-002    0.31725378266940035     
   8.2199999999999995E-002    0.27393752468216676     
   8.2500000000000004E-002    0.20752180875833282     
   8.2799999999999999E-002    0.12216437556090184     
   8.3100000000000007E-002     2.3232760997250496E-002
   8.3400000000000002E-002    -8.3079078246584767E-002
   8.3700000000000011E-002   -0.19033523960394783     
   8.4000000000000005E-002   -0.29225113723902774     
   8.4300000000000000E-002   -0.38302210422672728     
   8.4599999999999995E-002   -0.45783071072077208     
   8.4900000000000003E-002   -0.51286055719991930     
   8.5199999999999998E-002   -0.54556480868422619     
   8.5500000000000007E-002   -0.55464653315913282     
   8.5800000000000001E-002   -0.53995372977944101     
   8.6100000000000010E-002   -0.50234804610137229     
   8.6399999999999991E-002   -0.44353652634449547     
   8.6699999999999999E-002   -0.36581207527847087     
   8.7000000000000008E-002   -0.27183850071850246     
   8.7300000000000003E-002   -0.16466780755053559     
   8.7599999999999997E-002    -4.7296094094806340E-002
   8.7900000000000006E-002     7.6961177623856430E-002
   8.8200000000000014E-002    0.20481126285034945     
   8.8499999999999995E-002    0.33283492635752754     
   8.8800000000000004E-002    0.45733971056919809     
   8.9100000000000013E-002    0.57437570672191596     
   8.9399999999999993E-002    0.67982102315712267     
   8.9700000000000002E-002    0.76922793490094676     
   9.0000000000000011E-002    0.83828569674269615     
   9.0299999999999991E-002    0.88277597606819525     
   9.0600000000000000E-002    0.89896992435407341     
   9.0900000000000009E-002    0.88393722532379115     
   9.1200000000000017E-002    0.83595410477746135     
   9.1499999999999998E-002    0.75475089645727211     
   9.1800000000000007E-002    0.64172510651304804     
   9.2100000000000001E-002    0.50015353154902065     
   9.2399999999999996E-002    0.33492209563043029     
   9.2700000000000005E-002    0.15266957374970239     
   9.3000000000000013E-002    -3.8892995053915004E-002
   9.3300000000000008E-002   -0.23114737685373116     
   9.3600000000000003E-002   -0.41530218093967591     
   9.3899999999999997E-002   -0.58290693484067824     
   9.4200000000000006E-002   -0.72644345198582472     
   9.4500000000000001E-002   -0.83991989080118823     
   9.4800000000000009E-002   -0.91895111913205407     
   9.5100000000000004E-002   -0.96150583217302987     
   9.5399999999999999E-002   -0.96760470457279091     
   9.5699999999999993E-002   -0.93933673334789347     
   9.6000000000000002E-002   -0.88081470760618941     
   9.6300000000000011E-002   -0.79756392051256630     
   9.6600000000000005E-002   -0.69636471022115209     
   9.6900000000000000E-002   -0.58452886167065954     
   9.7200000000000009E-002   -0.46951493568710934     
   9.7499999999999989E-002   -0.35836709811295570     
   9.7799999999999998E-002   -0.25736245872834806     
   9.8100000000000007E-002   -0.17170673980151357     
   9.8400000000000015E-002   -0.10505812179450588     
   9.8699999999999996E-002    -5.9687991360895892E-002
   9.9000000000000005E-002    -3.6205056285404005E-002
   9.9300000000000013E-002    -3.3660272441125738E-002
   9.9599999999999994E-002    -4.9771426122526580E-002
   9.9900000000000003E-002    -8.1067752943053448E-002
  0.10020000000000001        -0.12322683922362987     
  0.10049999999999999        -0.17124266879536720     
  0.10080000000000000        -0.21986833054172242     
  0.10110000000000001        -0.26385004824665603     
  0.10140000000000000        -0.29825563932676946     
  0.10170000000000000        -0.31887141805576430     
  0.10200000000000001        -0.32217251284118864     
  0.10230000000000002        -0.30574243180255811     
  0.10260000000000000        -0.26841300677583502     
  0.10290000000000001        -0.21014002425476452     
  0.10320000000000000        -0.13233631114682681     
  0.10350000000000001         -3.7555764629312725E-002
  0.10380000000000000          7.0404616350825192E-002
  0.10410000000000001         0.18686960273281750     
  0.10440000000000001         0.30633503034968740     
  0.10470000000000000         0.42283910825808146     
  0.10500000000000000         0.53043760730452405     
  0.10530000000000000         0.62313570777916383     
  0.10560000000000000         0.69576603162355433     
  0.10590000000000001         0.74388322541749741     
  0.10620000000000000         0.76425825908466860     
  0.10650000000000001         0.75516187853780281     
  0.10679999999999999         0.71628842384992408     
  0.10710000000000000         0.64898314190433992     
  0.10740000000000001         0.55617790268058565     
  0.10770000000000000         0.44215013640906564     
  0.10800000000000000         0.31221632971847790     
  0.10830000000000001         0.17256947983967694     
  0.10859999999999999          2.9474709100666449E-002
  0.10890000000000000        -0.11067079207063568     
  0.10920000000000001        -0.24214720155464675     
  0.10950000000000001        -0.36028139963668820     
  0.10979999999999999        -0.46156417879109923     
  0.11009999999999999        -0.54379433614245531     
  0.11040000000000001        -0.60639932621243842     
  0.11070000000000001        -0.64989508844177613     
  0.11100000000000000        -0.67577841678748263     
  0.11130000000000000        -0.68603239311969322     
  0.11160000000000002        -0.68244457598406438     
  0.11190000000000001        -0.66663633325896587     
  0.11220000000000001        -0.63883640342632042     
  0.11250000000000000        -0.59841460301738647     
  0.11280000000000000        -0.54319145970413341     
  0.11309999999999999        -0.46982099664315857     
  0.11340000000000001        -0.37460720599940223     
  0.11369999999999998        -0.25375225582888389     
  0.11400000000000000        -0.10411690273989910     
  0.11430000000000000          7.5356619948167142E-002
  0.11460000000000002         0.28299892004281163     
  0.11489999999999999         0.51424428399973410     
  0.11520000000000001         0.76030450113206582     
  0.11550000000000001          1.0093296662570888     
  0.11580000000000000          1.2463652042015037     
  0.11609999999999999          1.4539876878098430     
  0.11640000000000002          1.6146954210554223     
  0.11670000000000001          1.7115899401567305     
  0.11700000000000001          1.7303246496194893     
  0.11730000000000000          1.6613530657325648     
  0.11760000000000000          1.5006422721402202     
  0.11789999999999999          1.2505848642312452     
  0.11820000000000001         0.92130540546090867     
  0.11850000000000001         0.52890213656533303     
  0.11880000000000000          9.5792444827045742E-002
  0.11910000000000000        -0.35136227620370297     
  0.11940000000000002        -0.78369000869130201     
  0.11970000000000001         -1.1722787596921775     
  0.12000000000000001         -1.4902563950504510     
  0.12030000000000000         -1.7155256807332626     
  0.12060000000000000         -1.8320699912466654     
  0.12089999999999999         -1.8315858150823687     
  0.12119999999999999         -1.7142768785016360     
  0.12150000000000001         -1.4886397186845497     
  0.12180000000000001         -1.1710771743937709     
  0.12210000000000000        -0.78451127341037574     
  0.12239999999999999        -0.35668451763786607     
  0.12270000000000002          8.2053443316301905E-002
  0.12300000000000001         0.50079545240189716     
  0.12330000000000001         0.87055261592431832     
  0.12360000000000000          1.1662532991692101     
  0.12390000000000000          1.3685737139549152     
  0.12419999999999999          1.4651675694163271     
  0.12450000000000001          1.4514746389461552     
  0.12480000000000001          1.3309471861181983     
  0.12509999999999999          1.1145194322266592     
  0.12540000000000001         0.81975902243956500     
  0.12570000000000003         0.46943346021677801     
  0.12600000000000000          8.9808780281447315E-002
  0.12630000000000002        -0.29147703327054419     
  0.12659999999999999        -0.64702106881755850     
  0.12690000000000001        -0.95198165673378732     
  0.12719999999999998         -1.1852621412404860     
  0.12750000000000000         -1.3310003077185055     
  0.12780000000000002         -1.3796422832194541     
  0.12809999999999999         -1.3277150278365091     
  0.12840000000000001         -1.1784174455954437     
  0.12869999999999998        -0.94061368620669894     
  0.12900000000000000        -0.62848720383253476     
  0.12930000000000003        -0.25997909302453964     
  0.12959999999999999         0.14372894701436253     
  0.12990000000000002         0.56019009281727361     
  0.13019999999999998         0.96627402185733580     
  0.13050000000000000          1.3397170578570536     
  0.13080000000000003          1.6599510282820071     
  0.13109999999999999          1.9088519982637875     
  0.13140000000000002          2.0718326325089631     
  0.13169999999999998          2.1381971542743905     
  0.13200000000000001          2.1016798513824795     
  0.13229999999999997          1.9610033970702005     
  0.13260000000000000          1.7198293941694507     
  0.13290000000000002          1.3868272186068065     
  0.13319999999999999         0.97564734440903389     
  0.13350000000000001         0.50422062662828626     
  0.13380000000000003         -5.9754590192647034E-003
  0.13410000000000000        -0.53064543788884944     
  0.13440000000000002         -1.0445909371456421     
  0.13469999999999999         -1.5223636466066692     
  0.13500000000000001         -1.9405453384006908     
  0.13529999999999998         -2.2789749388316931     
  0.13560000000000000         -2.5218857500566871     
  0.13590000000000002         -2.6597352860554313     
  0.13619999999999999         -2.6891723445253266     
  0.13650000000000001         -2.6135144667918766     
  0.13680000000000003         -2.4425464296610073     
  0.13710000000000000         -2.1914910802857630     
  0.13740000000000002         -1.8798870710778508     
  0.13769999999999999         -1.5296939118616013     
  0.13800000000000001         -1.1638033603766540     
  0.13829999999999998        -0.80339479560444671     
  0.13860000000000000        -0.46751727322953796     
  0.13890000000000002        -0.17021326836998035     
  0.13919999999999999          7.9156806819015935E-002
  0.13950000000000001         0.27680964402219632     
  0.13979999999999998         0.42454430207238170     
  0.14010000000000000         0.52808794870910758     
  0.14040000000000002         0.59718626771761607     
  0.14069999999999999         0.64261540453489430     
  0.14100000000000001         0.67617813455461073     
  0.14130000000000004         0.70781456409442522     
  0.14160000000000000         0.74527047182463035     
  0.14189999999999997         0.79308687243574816     
  0.14219999999999999         0.85137390191104823     
  0.14250000000000002         0.91734886485683065     
  0.14279999999999998         0.98419779678704811     
  0.14310000000000000          1.0434183114449511     
  0.14339999999999997          1.0847320507885607     
  0.14369999999999999          1.0982029554864319     
  0.14400000000000002          1.0753067969674726     
  0.14429999999999998          1.0093344188389515     
  0.14460000000000001         0.89776713093310612     
  0.14490000000000003         0.74110618602059108     
  0.14520000000000000         0.54492255375310195     
  0.14550000000000002         0.31819668368949922     
  0.14579999999999999          7.4068587696357824E-002
  0.14610000000000001        -0.17146279911716883     
  0.14640000000000003        -0.40047812227197588     
  0.14670000000000000        -0.59387332421537486     
  0.14699999999999996        -0.73358588949149173     
  0.14729999999999999        -0.80314148801376428     
  0.14760000000000001        -0.78941604077726746     
  0.14789999999999998        -0.68386829963430884     
  0.14820000000000000        -0.48322861571653319     