  -1.4999999999999999E-002     0.0000000000000000     
  -1.4700000000000000E-002    -5.6821977310017562E-023
  -1.4400000000000000E-002    -1.6422516549560902E-018
  -1.4100000000000000E-002    -9.0212662191043457E-017
  -1.3800000000000000E-002     3.2836930625127422E-015
  -1.3500000000000000E-002     9.8002069412297794E-016
  -1.3200000000000000E-002    -1.5457893762251851E-013
  -1.2899999999999998E-002     2.1080157633286085E-013
  -1.2600000000000000E-002     1.3786337772712911E-012
  -1.2299999999999998E-002    -7.9225872653671495E-013
  -1.2000000000000000E-002    -8.2870161533398687E-012
  -1.1699999999999999E-002    -4.2486838389562707E-012
  -1.1399999999999999E-002     3.3802888679451598E-011
  -1.1099999999999999E-002     3.5815735353110891E-011
  -1.0799999999999999E-002    -2.6089715519296189E-011
  -1.0499999999999999E-002    -2.0719718514272284E-010
  -1.0199999999999999E-002    -1.9802045332561083E-010
  -9.8999999999999991E-003     4.7903541735516826E-010
  -9.5999999999999992E-003     1.1544672538089616E-009
  -9.2999999999999992E-003    -3.9054968770289754E-010
  -8.9999999999999993E-003    -2.2639600104349700E-009
  -8.6999999999999994E-003    -1.6712184413378172E-009
  -8.3999999999999995E-003    -9.1019839408528528E-010
  -8.0999999999999996E-003     7.4815260231035448E-009
  -7.7999999999999988E-003     1.3534501386365193E-008
  -7.4999999999999997E-003    -9.9746783465501084E-009
  -7.1999999999999998E-003    -2.9950279894544282E-008
  -6.8999999999999981E-003    -3.3784418342923836E-009
  -6.5999999999999982E-003     8.0461244055473094E-009
  -6.3000000000000000E-003     3.2603082138523382E-008
  -6.0000000000000001E-003     9.8657273620955624E-008
  -5.6999999999999985E-003    -3.7303917370697211E-008
  -5.3999999999999986E-003    -2.1463312950224054E-007
  -5.1000000000000004E-003    -3.3005373866222968E-008
  -4.7999999999999987E-003     1.0924653256228907E-007
  -4.5000000000000005E-003     7.4750005520394341E-008
  -4.1999999999999989E-003     3.4598024580364683E-007
  -3.8999999999999990E-003     1.3121167535179995E-007
  -3.5999999999999990E-003    -7.6838365465094092E-007
  -3.2999999999999991E-003    -4.3289712415432640E-007
  -2.9999999999999992E-003     4.5820233330392390E-007
  -2.6999999999999993E-003     1.5339429350157554E-007
  -2.3999999999999994E-003     4.8492743999460209E-007
  -2.0999999999999977E-003     9.7548870195155068E-007
  -1.7999999999999995E-003    -1.0706560916703271E-006
  -1.4999999999999979E-003    -1.6878259641774955E-006
  -1.1999999999999997E-003     1.0482251707456486E-006
  -8.9999999999999976E-004     4.9292121360701711E-007
  -5.9999999999999810E-004    -9.0171587758462561E-007
  -2.9999999999999992E-004     1.4986405190856859E-006
   0.0000000000000000         -2.6453028148365805E-007
   3.0000000000000165E-004    -2.1029218924478424E-006
   5.9999999999999984E-004     3.0148935098388953E-006
   9.0000000000000149E-004     1.3179630799004906E-006
   1.2000000000000031E-003    -3.3192940052029651E-006
   1.5000000000000013E-003     3.0146196943859912E-006
   1.8000000000000030E-003     3.9740841385759642E-006
   2.1000000000000012E-003    -6.8631108744290567E-007
   2.3999999999999994E-003     7.0620720756527373E-006
   2.7000000000000010E-003     1.7200790803633685E-005
   2.9999999999999992E-003     2.7310450363424147E-005
   3.3000000000000008E-003     4.0457855793462743E-005
   3.6000000000000025E-003     4.5298606870557102E-005
   3.9000000000000007E-003     5.5681728952231271E-005
   4.2000000000000023E-003     6.9820618364321870E-005
   4.5000000000000005E-003     5.6863948178668245E-005
   4.7999999999999987E-003     3.1280361061791697E-005
   5.1000000000000004E-003     1.0387314114747421E-005
   5.4000000000000020E-003    -2.1829652878618220E-005
   5.7000000000000037E-003    -8.2626783738701872E-005
   5.9999999999999984E-003    -2.4133210718517084E-004
   6.3000000000000000E-003    -6.0432723121995669E-004
   6.6000000000000017E-003    -1.2318717392821993E-003
   6.9000000000000034E-003    -2.2060812788612244E-003
   7.2000000000000015E-003    -3.6943483030421830E-003
   7.5000000000000032E-003    -5.9362737103737240E-003
   7.8000000000000014E-003    -9.2908242158719189E-003
   8.0999999999999996E-003    -1.4246192750122160E-002
   8.4000000000000012E-003    -2.1390590343401041E-002
   8.7000000000000029E-003    -3.1406095005708533E-002
   9.0000000000000011E-003    -4.5056193450633816E-002
   9.2999999999999992E-003    -6.3208718563972630E-002
   9.6000000000000009E-003    -8.6886584851037701E-002
   9.8999999999999991E-003   -0.11719532545426911     
   1.0200000000000001E-002   -0.15515497904826447     
   1.0500000000000002E-002   -0.20151556540319632     
   1.0800000000000004E-002   -0.25661656359363955     
   1.1099999999999999E-002   -0.32032619755244540     
   1.1400000000000000E-002   -0.39186799511867687     
   1.1700000000000002E-002   -0.46951504322863824     
   1.2000000000000004E-002   -0.55034772621346684     
   1.2300000000000002E-002   -0.63008959991121904     
   1.2600000000000000E-002   -0.70300837025541529     
   1.2900000000000002E-002   -0.76183092675641784     
   1.3200000000000000E-002   -0.79801231891252566     
   1.3500000000000002E-002   -0.80209632917092266     
   1.3800000000000003E-002   -0.76413684181885000     
   1.4100000000000001E-002   -0.67439589431765778     
   1.4400000000000000E-002   -0.52425696716202941     
   1.4700000000000001E-002   -0.30720313921737746     
   1.4999999999999999E-002    -1.9612825161809594E-002
   1.5300000000000001E-002    0.33819793778549823     
   1.5600000000000003E-002    0.76152074991225693     
   1.5899999999999997E-002     1.2406946431478356     
   1.6199999999999999E-002     1.7608953497982887     
   1.6500000000000001E-002     2.3024433725196225     
   1.6800000000000002E-002     2.8412519710316677     
   1.7100000000000004E-002     3.3502507373571069     
   1.7400000000000006E-002     3.8000668084696674     
   1.7700000000000000E-002     4.1604779376674434     
   1.8000000000000002E-002     4.4020674579879611     
   1.8300000000000004E-002     4.4965067111605750     
   1.8600000000000005E-002     4.4176035148278814     
   1.8900000000000000E-002     4.1418236122051724     
   1.9200000000000002E-002     3.6484039061297344     
   1.9500000000000003E-002     2.9195414688558463     
   1.9799999999999998E-002     1.9404980460269927     
   2.0100000000000000E-002    0.70060366452284439     
   2.0400000000000001E-002   -0.80471916236901375     
   2.0700000000000003E-002    -2.5718464482381083     
   2.0999999999999998E-002    -4.5846456410971301     
   2.1299999999999999E-002    -6.8102637731793019     
   2.1600000000000001E-002    -9.1942166047773259     
   2.1900000000000003E-002    -11.655583874162016     
   2.2200000000000004E-002    -14.083921132730437     
   2.2500000000000006E-002    -16.338854330940435     
   2.2800000000000001E-002    -18.252587029592682     
   2.3100000000000002E-002    -19.637049778609935     
   2.3400000000000004E-002    -20.295296656292642     
   2.3699999999999999E-002    -20.037308599359129     
   2.4000000000000000E-002    -18.698468873488466     
   2.4300000000000002E-002    -16.162104830138404     
   2.4599999999999997E-002    -12.377293275273729     
   2.4900000000000005E-002    -7.3768093538935773     
   2.5200000000000000E-002    -1.2913196558976368     
   2.5499999999999995E-002     5.6541024561436384     
   2.5800000000000003E-002     13.135679593554260     
   2.6099999999999998E-002     20.754975333725550     
   2.6400000000000007E-002     28.062603379341812     
   2.6700000000000002E-002     34.585195805393909     
   2.6999999999999996E-002     39.870311462591822     
   2.7300000000000005E-002     43.521837479451733     
   2.7600000000000000E-002     45.232259099910834     
   2.7900000000000008E-002     44.818487522554399     
   2.8200000000000003E-002     42.235604025771657     
   2.8499999999999998E-002     37.582849206605154     
   2.8800000000000006E-002     31.103221258608833     
   2.9100000000000001E-002     23.158353783552794     
   2.9400000000000003E-002     14.201643204921524     
   2.9700000000000004E-002     4.7452034600279767     
   3.0000000000000006E-002    -4.6882338764596554     
   3.0300000000000001E-002    -13.597405077475386     
   3.0600000000000002E-002    -21.543244757136687     
   3.0900000000000004E-002    -28.177358686620067     
   3.1199999999999999E-002    -33.255987708183262     
   3.1500000000000007E-002    -36.655263126621755     
   3.1800000000000002E-002    -38.365685912020197     
   3.2099999999999997E-002    -38.477436220902774     
   3.2400000000000005E-002    -37.168399685929188     
   3.2700000000000000E-002    -34.676711958897400     
   3.3000000000000002E-002    -31.272083677476921     
   3.3300000000000003E-002    -27.240228943065674     
   3.3599999999999998E-002    -22.851276012169713     
   3.3900000000000000E-002    -18.346239122057206     
   3.4200000000000001E-002    -13.928961510777754     
   3.4500000000000003E-002    -9.7507328311235284     
   3.4799999999999998E-002    -5.9199642626804714     
   3.5099999999999999E-002    -2.4971362287812280     
   3.5400000000000001E-002    0.49631004561594305     
   3.5699999999999996E-002     3.0643457881776941     
   3.6000000000000004E-002     5.2356238643141992     
   3.6299999999999999E-002     7.0494873115223022     
   3.6600000000000008E-002     8.5477675662895916     
   3.6900000000000002E-002     9.7744596767552263     
   3.7199999999999997E-002     10.766312724995327     
   3.7500000000000006E-002     11.551930382218785     
   3.7800000000000000E-002     12.155807632603265     
   3.8100000000000009E-002     12.588983335597888     
   3.8400000000000004E-002     12.859647771523083     
   3.8699999999999998E-002     12.971546594330702     
   3.9000000000000007E-002     12.918372857728354     
   3.9300000000000002E-002     12.699486405755286     
   3.9600000000000003E-002     12.309693715941499     
   3.9900000000000005E-002     11.743422173952551     
   4.0200000000000000E-002     11.004903112292958     
   4.0500000000000001E-002     10.096118094029231     
   4.0800000000000003E-002     9.0286144896815763     
   4.1100000000000005E-002     7.8243947507841014     
   4.1399999999999999E-002     6.5052291386575796     
   4.1700000000000008E-002     5.1085191678835606     
   4.2000000000000003E-002     3.6743276997684085     
   4.2299999999999997E-002     2.2439223831428965     
   4.2600000000000006E-002    0.86755415943252712     
   4.2900000000000001E-002   -0.41162713152936237     
   4.3200000000000002E-002    -1.5552371620126646     
   4.3500000000000004E-002    -2.5251983007041368     
   4.3799999999999999E-002    -3.3013590461835145     
   4.4100000000000000E-002    -3.8703358842737021     
   4.4400000000000002E-002    -4.2285092508545326     
   4.4700000000000004E-002    -4.3901837807030795     
   4.4999999999999998E-002    -4.3730574042651975     
   4.5300000000000000E-002    -4.2064413051449385     
   4.5600000000000002E-002    -3.9296757163434464     
   4.5899999999999996E-002    -3.5782594743402636     
   4.6200000000000005E-002    -3.1942127314559072     
   4.6500000000000000E-002    -2.8186694720953240     
   4.6799999999999994E-002    -2.4832566946044414     
   4.7100000000000003E-002    -2.2191987714906496     
   4.7399999999999998E-002    -2.0474313732501042     
   4.7700000000000006E-002    -1.9767169612365754     
   4.8000000000000001E-002    -2.0111356628121939     
   4.8300000000000010E-002    -2.1394776652313814     
   4.8600000000000004E-002    -2.3425515429259809     
   4.8899999999999999E-002    -2.5958575484727406     
   4.9200000000000008E-002    -2.8638781907473598     
   4.9500000000000002E-002    -3.1119064257773728     
   4.9800000000000011E-002    -3.3054456566298396     
   5.0100000000000006E-002    -3.4089415011247164     
   5.0400000000000000E-002    -3.3990782262043089     
   5.0700000000000009E-002    -3.2577498537586562     
   5.1000000000000004E-002    -2.9764483507743646     
   5.1299999999999998E-002    -2.5622597121170432     
   5.1600000000000007E-002    -2.0279186220555578     
   5.1900000000000002E-002    -1.3993316087552659     
   5.2200000000000010E-002   -0.71050703784833136     
   5.2500000000000005E-002     4.3492556822918860E-003
   5.2800000000000000E-002    0.70261711717260311     
   5.3099999999999994E-002     1.3462742869476050     
   5.3400000000000003E-002     1.9026971071144247     
   5.3699999999999998E-002     2.3396957003143752     
   5.4000000000000006E-002     2.6398121382435380     
   5.4300000000000001E-002     2.7917303032314353     
   5.4599999999999996E-002     2.7922160201537984     
   5.4900000000000004E-002     2.6539543945309068     
   5.5199999999999999E-002     2.3929222524242300     
   5.5499999999999994E-002     2.0352105762360813     
   5.5800000000000002E-002     1.6153471479602326     
   5.6099999999999997E-002     1.1661605031192948     
   5.6400000000000006E-002    0.72581203727692434     
   5.6700000000000000E-002    0.32887835908883878     
   5.6999999999999995E-002     3.4950628147789042E-003
   5.7300000000000004E-002   -0.22564243595590378     
   5.7599999999999998E-002   -0.34629761748801741     
   5.7900000000000007E-002   -0.35401203315313612     
   5.8200000000000002E-002   -0.25416186868128932     
   5.8499999999999996E-002    -6.3776800861038652E-002
   5.8800000000000005E-002    0.19717142484688052     
   5.9100000000000000E-002    0.49967653277234692     
   5.9400000000000008E-002    0.81379300789796705     
   5.9700000000000003E-002     1.1117918648039149     
   6.0000000000000012E-002     1.3656165153832953     
   6.0300000000000006E-002     1.5548026721444101     
   6.0600000000000001E-002     1.6656662541043379     
   6.0900000000000010E-002     1.6883560168922802     
   6.1200000000000004E-002     1.6242103575933151     
   6.1500000000000013E-002     1.4780508311629825     
   6.1800000000000008E-002     1.2590084120570935     
   6.2100000000000002E-002    0.98263002325147619     
   6.2399999999999997E-002    0.66302650051211853     
   6.2700000000000006E-002    0.31631123213958257     
   6.3000000000000000E-002    -4.1465750496343656E-002
   6.3300000000000009E-002   -0.39648238002340147     
   6.3600000000000004E-002   -0.73590660827601451     
   6.3899999999999998E-002    -1.0478421382478709     
   6.4199999999999993E-002    -1.3213647267906650     
   6.4500000000000002E-002    -1.5477304608111653     
   6.4800000000000010E-002    -1.7169332427398620     
   6.5100000000000005E-002    -1.8211209393424121     
   6.5400000000000000E-002    -1.8539644839191056     
   6.5700000000000008E-002    -1.8085384954014283     
   6.5999999999999989E-002    -1.6834450134030503     
   6.6299999999999998E-002    -1.4804021956579489     
   6.6600000000000006E-002    -1.2024611636233180     
   6.6900000000000001E-002   -0.86338154688199487     
   6.7199999999999996E-002   -0.47737738309033395     
   6.7500000000000004E-002    -6.4406930351065539E-002
   6.7800000000000013E-002    0.34787620405532060     
   6.8099999999999994E-002    0.73566855313671486     
   6.8400000000000002E-002     1.0706056956410133     
   6.8700000000000011E-002     1.3268855699958109     
   6.8999999999999992E-002     1.4881041960070460     
   6.9300000000000000E-002     1.5377567886837118     
   6.9600000000000009E-002     1.4727473219343126     
   6.9900000000000004E-002     1.3003730296938769     
   7.0199999999999999E-002     1.0303702409881321     
   7.0500000000000007E-002    0.68870749841934742     
   7.0800000000000016E-002    0.30303005266696387     
   7.1099999999999997E-002    -9.8715186931495225E-002
   7.1400000000000005E-002   -0.48009416243671510     
   7.1700000000000000E-002   -0.81553322570659370     
   7.1999999999999995E-002    -1.0823719447971449     
   7.2300000000000003E-002    -1.2607545580679140     
   7.2600000000000012E-002    -1.3475899898044579     
   7.2900000000000006E-002    -1.3421264809922329     
   7.3200000000000001E-002    -1.2507513049765377     
   7.3499999999999996E-002    -1.0924063907697721     
   7.3800000000000004E-002   -0.88278077073092365     
   7.4099999999999999E-002   -0.64176402427655987     
   7.4400000000000008E-002   -0.39328973289302982     
   7.4700000000000003E-002   -0.15231804387645956     
   7.5000000000000011E-002     6.5683575513377668E-002
   7.5299999999999992E-002    0.24737781892930494     
   7.5600000000000001E-002    0.38966899709330471     
   7.5900000000000009E-002    0.48795680762159488     
   7.6200000000000004E-002    0.54251802002386829     
   7.6499999999999999E-002    0.56018617363301626     
   7.6800000000000007E-002    0.54513587225012594     
   7.7099999999999988E-002    0.50513400303207523     
   7.7399999999999997E-002    0.45066342876629684     
   7.7700000000000005E-002    0.38830482401803318     
   7.8000000000000014E-002    0.32731442724624382     
   7.8299999999999995E-002    0.27635397362754460     
   7.8600000000000003E-002    0.23888988184945575     
   7.8900000000000012E-002    0.22130636118058344     
   7.9199999999999993E-002    0.22510328001514324     
   7.9500000000000001E-002    0.24879664972910548     
   7.9800000000000010E-002    0.29206967216285618     
   8.0100000000000018E-002    0.34869006361658972     
   8.0399999999999999E-002    0.41326213502213560     
   8.0700000000000008E-002    0.47993333909742142     
   8.1000000000000003E-002    0.53899182843826388     
   8.1299999999999997E-002    0.58590081528586291     
   8.1600000000000006E-002    0.61373808994975665     
   8.1900000000000014E-002    0.61598838263729916     
   8.2199999999999995E-002    0.59274352084025073     
   8.2500000000000004E-002    0.53991261740391239     
   8.2799999999999999E-002    0.45810928339616264     
   8.3100000000000007E-002    0.35221970819723514     
   8.3400000000000002E-002    0.22200720314943662     
   8.3700000000000011E-002     7.4991981135638264E-002
   8.4000000000000005E-002    -8.2289012246081969E-002
   8.4300000000000000E-002   -0.24604761186620516     
   8.4599999999999995E-002   -0.40512383464299945     
   8.4900000000000003E-002   -0.55308128557029534     
   8.5199999999999998E-002   -0.68470650550824030     
   8.5500000000000007E-002   -0.78978245755695153     
   8.5800000000000001E-002   -0.86490571002070171     
   8.6100000000000010E-002   -0.90601911780449707     
   8.6399999999999991E-002   -0.90907703194693656     
   8.6699999999999999E-002   -0.87660894462055738     
   8.7000000000000008E-002   -0.80948789073123262     
   8.7300000000000003E-002   -0.71146121071619017     
   8.7599999999999997E-002   -0.59012443048435426     
   8.7900000000000006E-002   -0.45142131617160208     
   8.8200000000000014E-002   -0.30441314812889331     
   8.8499999999999995E-002   -0.15737110875110219     
   8.8800000000000004E-002    -1.8245062891471653E-002
   8.9100000000000013E-002    0.10539100435117227     
   8.9399999999999993E-002    0.20780865288328076     
   8.9700000000000002E-002    0.28378516930715092     
   9.0000000000000011E-002    0.33090637733263284     
   9.0299999999999991E-002    0.34829884872750655     
   9.0600000000000000E-002    0.33586054342353971     
   9.0900000000000009E-002    0.29737444149601711     
   9.1200000000000017E-002    0.23603599027725741     
   9.1499999999999998E-002    0.15734119227542293     
   9.1800000000000007E-002     6.8376897056064617E-002
   9.2100000000000001E-002    -2.4650225381986354E-002
   9.2399999999999996E-002   -0.11414275360740343     
   9.2700000000000005E-002   -0.19359996178956007     
   9.3000000000000013E-002   -0.25742533236388643     
   9.3300000000000008E-002   -0.30049011225537431     
   9.3600000000000003E-002   -0.32064147978091062     
   9.3899999999999997E-002   -0.31577869057380820     
   9.4200000000000006E-002   -0.28683895489419819     
   9.4500000000000001E-002   -0.23670055704031578     
   9.4800000000000009E-002   -0.16731115381784706     
   9.5100000000000004E-002    -8.4948875006208208E-002
   9.5399999999999999E-002     5.5925661866837624E-003
   9.5699999999999993E-002     9.9899111301941124E-002
   9.6000000000000002E-002    0.18970905008366629     
   9.6300000000000011E-002    0.27265162307632029     
   9.6600000000000005E-002    0.34356918774065459     
   9.6900000000000000E-002    0.39670781292045804     
   9.7200000000000009E-002    0.43348496038061868     
   9.7499999999999989E-002    0.44938641118335254     
   9.7799999999999998E-002    0.44482212568401869     
   9.8100000000000007E-002    0.42346164156492921     
   9.8400000000000015E-002    0.38365981136736521     
   9.8699999999999996E-002    0.33189837451072207     
   9.9000000000000005E-002    0.27215377339153302     
   9.9300000000000013E-002    0.20602930220346682     
   9.9599999999999994E-002    0.14288237454567287     
   9.9900000000000003E-002     8.3923241006622420E-002
  0.10020000000000001          3.2968978747691932E-002
  0.10049999999999999         -3.8560180705544261E-003
  0.10080000000000000         -2.9358122599110768E-002
  0.10110000000000001         -4.0256342194466541E-002
  0.10140000000000000         -3.7070698721843980E-002
  0.10170000000000000         -2.4685081966569163E-002
  0.10200000000000001         -9.8457193559252712E-004
  0.10230000000000002          2.7610334995130430E-002
  0.10260000000000000          5.8259580675238107E-002
  0.10290000000000001          9.1205337137808637E-002
  0.10320000000000000         0.11945154504359054     
  0.10350000000000001         0.14336809404523276     
  0.10380000000000000         0.16135624441813923     
  0.10410000000000001         0.16893170926066414     
  0.10440000000000001         0.16881325807965605     
  0.10470000000000000         0.15792582819928871     
  0.10500000000000000         0.13588472003108515     
  0.10530000000000000         0.10536152933841890     
  0.10560000000000000          6.4639882175168445E-002
  0.10590000000000001          1.6956085516957611E-002
  0.10620000000000000         -3.5013875747411813E-002
  0.10650000000000001         -9.0329194853950912E-002
  0.10679999999999999        -0.14336947587977994     
  0.10710000000000000        -0.19268588237699122     
  0.10740000000000001        -0.23442117594258333     
  0.10770000000000000        -0.26515687534243665     
  0.10800000000000000        -0.28440184632388049     
  0.10830000000000001        -0.28968791238073549     
  0.10859999999999999        -0.28153514183174255     
  0.10890000000000000        -0.26050862239527905     
  0.10920000000000001        -0.22794549098943184     
  0.10950000000000001        -0.18602363042001702     
  0.10979999999999999        -0.13686586519526986     
  0.11009999999999999         -8.4185390381083733E-002
  0.11040000000000001         -2.9522476894478490E-002
  0.11070000000000001          2.4024797925897103E-002
  0.11100000000000000          7.3044262050675809E-002
  0.11130000000000000         0.11679843071962889     
  0.11160000000000002         0.15086601371578262     
  0.11190000000000001         0.17386688256519345     
  0.11220000000000001         0.18599962083476609     
  0.11250000000000000         0.18233815998456906     
  0.11280000000000000         0.16582011624489623     
  0.11309999999999999         0.13587959246528097     
  0.11340000000000001          9.1499750032316446E-002
  0.11369999999999998          3.9816423139276844E-002
  0.11400000000000000         -2.0011607420492988E-002
  0.11430000000000000         -8.3639489036581860E-002
  0.11460000000000002        -0.14312569103559902     
  0.11489999999999999        -0.19944839331627304     
  0.11520000000000001        -0.24505146035415126     
  0.11550000000000001        -0.27651675599141873     
  0.11580000000000000        -0.29568032240468167     
  0.11609999999999999        -0.29632820040761571     
  0.11640000000000002        -0.28151228694001984     
  0.11670000000000001        -0.25299558562077029     
  0.11700000000000001        -0.20944938794965143     
  0.11730000000000000        -0.15764378252204103     
  0.11760000000000000         -9.8583033063881137E-002
  0.11789999999999999         -3.4651213992914875E-002
  0.11820000000000001          2.7624242928246966E-002
  0.11850000000000001          8.7996049720856229E-002
  0.11880000000000000         0.14199103137483149     
  0.11910000000000000         0.18663263572403149     
  0.11940000000000002         0.22141999117162137     
  0.11970000000000001         0.24311020508863856     
  0.12000000000000001         0.25224890983621429     
  0.12030000000000000         0.24850836476512167     
  0.12060000000000000         0.23206125349785450     
  0.12089999999999999         0.20528223099604365     
  0.12119999999999999         0.16954336552395838     
  0.12150000000000001         0.12772951754047340     
  0.12180000000000001          8.1984368589312864E-002
  0.12210000000000000          3.5005519852992606E-002
  0.12239999999999999         -1.0819491477409550E-002
  0.12270000000000002         -5.4260116267173752E-002
  0.12300000000000001         -9.3196139209098749E-002
  0.12330000000000001        -0.12761161758347533     
  0.12360000000000000        -0.15722282897429801     
  0.12390000000000000        -0.18092074343612935     
  0.12419999999999999        -0.20078625402650604     
  0.12450000000000001        -0.21505357966207420     
  0.12480000000000001        -0.22418381745027063     
  0.12509999999999999        -0.22948335225400596     
  0.12540000000000001        -0.22775973474896025     
  0.12570000000000003        -0.22136360289283494     
  0.12600000000000000        -0.20888943931696638     
  0.12630000000000002        -0.18883696723358229     
  0.12659999999999999        -0.16497235623969572     
  0.12690000000000001        -0.13424149921328588     
  0.12719999999999998         -9.9450315169370432E-002
  0.12750000000000000         -6.3776832522257770E-002
  0.12780000000000002         -2.4956911039611618E-002
  0.12809999999999999          1.1054704357151154E-002
  0.12840000000000001          4.3556951006623365E-002
  0.12869999999999998          7.3140607475378719E-002
  0.12900000000000000          9.3579403221939070E-002
  0.12930000000000003         0.10799860517981334     
  0.12959999999999999         0.11468986435507428     
  0.12990000000000002         0.11096862036624189     
  0.13019999999999998         0.10200334899274793     
  0.13050000000000000          8.5170482575727610E-002
  0.13080000000000003          6.2492032645089401E-002
  0.13109999999999999          3.9045158211705476E-002
  0.13140000000000002          1.2717232137378498E-002
  0.13169999999999998         -1.1122191532491743E-002
  0.13200000000000001         -2.9525308442682183E-002
  0.13229999999999997         -4.3754696746559643E-002
  0.13260000000000000         -4.8035393091515506E-002
  0.13290000000000002         -4.3055277530037649E-002
  0.13319999999999999         -2.9827051361414947E-002
  0.13350000000000001         -5.5954661359215244E-003
  0.13380000000000003          2.5514526987372263E-002
  0.13410000000000000          6.2128155954051884E-002
  0.13440000000000002         0.10306338280996372     
  0.13469999999999999         0.14333586809749238     
  0.13500000000000001         0.18091710958523741     
  0.13529999999999998         0.21382912001848026     
  0.13560000000000000         0.23800685068786398     
  0.13590000000000002         0.25329278301120367     
  0.13619999999999999         0.25903356894727941     
  0.13650000000000001         0.25328819894329951     
  0.13680000000000003         0.23855321929717974     
  0.13710000000000000         0.21539026897750216     
  0.13740000000000002         0.18461794977194046     
  0.13769999999999999         0.14997576686862307     
  0.13800000000000001         0.11182199351099406     
  0.13829999999999998          7.2215327373882199E-002
  0.13860000000000000          3.5011713859649740E-002
  0.13890000000000002         -5.0290790234383802E-004
  0.13919999999999999         -3.1547844749080955E-002
  0.13950000000000001         -5.6127770130686899E-002
  0.13979999999999998         -7.5843288110028606E-002
  0.14010000000000000         -8.7358712019175347E-002
  0.14040000000000002         -9.1930824203492412E-002
  0.14069999999999999         -9.0207404479471023E-002
  0.14100000000000001         -8.0097907206103783E-002
  0.14130000000000004         -6.5160528367193798E-002
  0.14160000000000000         -4.5108732831250560E-002
  0.14189999999999997         -1.9252722874162808E-002
  0.14219999999999999          7.5749537831960416E-003
  0.14250000000000002          3.7067109874101833E-002
  0.14279999999999998          6.7257081593151774E-002
  0.14310000000000000          9.4583042223957817E-002
  0.14339999999999997         0.12136730622444111     
  0.14369999999999999         0.14335213186923007     
  0.14400000000000002         0.15956816204691288     
  0.14429999999999998         0.17120616858516155     
  0.14460000000000001         0.17393406248595922     
  0.14490000000000003         0.16887573495627042     
  0.14520000000000000         0.15620015409920790     
  0.14550000000000002         0.13324019174977500     
  0.14579999999999999         0.10314135049566302     
  0.14610000000000001          6.5769410930085467E-002
  0.14640000000000003          2.1481148208658742E-002
  0.14670000000000000         -2.5269602817782538E-002
  0.14699999999999996         -7.3895022695219387E-002
  0.14729999999999999        -0.12133059271110280     
  0.14760000000000001        -0.16436647501942706     
  0.14789999999999998        -0.20158024380404660     
  0.14820000000000000        -0.23016956479701375     