  -1.4999999999999999E-002     0.0000000000000000     
  -1.4700000000000000E-002     0.0000000000000000     
  -1.4400000000000000E-002     0.0000000000000000     
  -1.4100000000000000E-002     0.0000000000000000     
  -1.3800000000000000E-002     0.0000000000000000     
  -1.3500000000000000E-002     0.0000000000000000     
  -1.3200000000000000E-002     0.0000000000000000     
  -1.2899999999999998E-002     0.0000000000000000     
  -1.2600000000000000E-002     0.0000000000000000     
  -1.2299999999999998E-002     0.0000000000000000     
  -1.2000000000000000E-002     0.0000000000000000     
  -1.1699999999999999E-002     0.0000000000000000     
  -1.1399999999999999E-002     0.0000000000000000     
  -1.1099999999999999E-002     0.0000000000000000     
  -1.0799999999999999E-002     0.0000000000000000     
  -1.0499999999999999E-002     0.0000000000000000     
  -1.0199999999999999E-002     0.0000000000000000     
  -9.8999999999999991E-003     0.0000000000000000     
  -9.5999999999999992E-003     0.0000000000000000     
  -9.2999999999999992E-003     0.0000000000000000     
  -8.9999999999999993E-003     0.0000000000000000     
  -8.6999999999999994E-003     0.0000000000000000     
  -8.3999999999999995E-003     0.0000000000000000     
  -8.0999999999999996E-003     0.0000000000000000     
  -7.7999999999999988E-003     0.0000000000000000     
  -7.4999999999999997E-003     0.0000000000000000     
  -7.1999999999999998E-003     0.0000000000000000     
  -6.8999999999999981E-003     0.0000000000000000     
  -6.5999999999999982E-003     0.0000000000000000     
  -6.3000000000000000E-003     0.0000000000000000     
  -6.0000000000000001E-003     0.0000000000000000     
  -5.6999999999999985E-003     0.0000000000000000     
  -5.3999999999999986E-003     0.0000000000000000     
  -5.1000000000000004E-003     0.0000000000000000     
  -4.7999999999999987E-003     0.0000000000000000     
  -4.5000000000000005E-003     0.0000000000000000     
  -4.1999999999999989E-003     0.0000000000000000     
  -3.8999999999999990E-003     0.0000000000000000     
  -3.5999999999999990E-003     0.0000000000000000     
  -3.2999999999999991E-003     0.0000000000000000     
  -2.9999999999999992E-003     0.0000000000000000     
  -2.6999999999999993E-003     0.0000000000000000     
  -2.3999999999999994E-003     0.0000000000000000     
  -2.0999999999999977E-003     0.0000000000000000     
  -1.7999999999999995E-003     0.0000000000000000     
  -1.4999999999999979E-003     0.0000000000000000     
  -1.1999999999999997E-003     0.0000000000000000     
  -8.9999999999999976E-004     0.0000000000000000     
  -5.9999999999999810E-004     0.0000000000000000     
  -2.9999999999999992E-004     0.0000000000000000     
   0.0000000000000000          0.0000000000000000     
   3.0000000000000165E-004     0.0000000000000000     
   5.9999999999999984E-004     0.0000000000000000     
   9.0000000000000149E-004     0.0000000000000000     
   1.2000000000000031E-003     0.0000000000000000     
   1.5000000000000013E-003     0.0000000000000000     
   1.8000000000000030E-003     0.0000000000000000     
   2.1000000000000012E-003     0.0000000000000000     
   2.3999999999999994E-003     0.0000000000000000     
   2.7000000000000010E-003     0.0000000000000000     
   2.9999999999999992E-003     0.0000000000000000     
   3.3000000000000008E-003     0.0000000000000000     
   3.6000000000000025E-003     0.0000000000000000     
   3.9000000000000007E-003     0.0000000000000000     
   4.2000000000000023E-003     0.0000000000000000     
   4.5000000000000005E-003     0.0000000000000000     
   4.7999999999999987E-003     0.0000000000000000     
   5.1000000000000004E-003     0.0000000000000000     
   5.4000000000000020E-003     0.0000000000000000     
   5.7000000000000037E-003     0.0000000000000000     
   5.9999999999999984E-003     0.0000000000000000     
   6.3000000000000000E-003     0.0000000000000000     
   6.6000000000000017E-003     0.0000000000000000     
   6.9000000000000034E-003     0.0000000000000000     
   7.2000000000000015E-003     0.0000000000000000     
   7.5000000000000032E-003     0.0000000000000000     
   7.8000000000000014E-003     0.0000000000000000     
   8.0999999999999996E-003     0.0000000000000000     
   8.4000000000000012E-003     0.0000000000000000     
   8.7000000000000029E-003     0.0000000000000000     
   9.0000000000000011E-003     0.0000000000000000     
   9.2999999999999992E-003     0.0000000000000000     
   9.6000000000000009E-003     2.1348105634034180E-050
   9.8999999999999991E-003     3.1314131255130356E-049
   1.0200000000000001E-002    -3.4155372512209135E-049
   1.0500000000000002E-002    -1.1768233507356218E-048
   1.0800000000000004E-002     9.0081868660685336E-037
   1.1099999999999999E-002     3.6900526994668260E-035
   1.1400000000000000E-002    -4.8176574297688845E-035
   1.1700000000000002E-002    -1.8033132581643872E-034
   1.2000000000000004E-002     6.4404467774651233E-034
   1.2300000000000002E-002    -1.8882303784953157E-033
   1.2600000000000000E-002     2.2352392566070525E-033
   1.2900000000000002E-002     1.8445930868578824E-033
   1.3200000000000000E-002    -1.1200477570067600E-032
   1.3500000000000002E-002     1.3865665652172881E-032
   1.3800000000000003E-002     1.4113418669099027E-032
   1.4100000000000001E-002    -6.4975003859093638E-032
   1.4400000000000000E-002     4.6291896540547530E-032
   1.4700000000000001E-002     1.5830929077025512E-031
   1.4999999999999999E-002    -4.0824124370942340E-031
   1.5300000000000001E-002     9.9427169227111501E-032
   1.5600000000000003E-002     1.1933597065213006E-030
   1.5899999999999997E-002    -2.1168379494781753E-030
   1.6199999999999999E-002    -6.3683153823109483E-031
   1.6500000000000001E-002     7.5248257437007444E-030
   1.6800000000000002E-002    -9.0047577306445126E-030
   1.7100000000000004E-002    -9.5454226546455880E-030
   1.7400000000000006E-002     3.9924633253807869E-029
   1.7700000000000000E-002    -2.8672246139380040E-029
   1.8000000000000002E-002    -7.2164517006556585E-029
   1.8300000000000004E-002     1.7688034401193005E-028
   1.8600000000000005E-002    -4.4148246148050589E-029
   1.8900000000000000E-002    -4.0405890018096493E-028
   1.9200000000000002E-002     6.3484977993663474E-028
   1.9500000000000003E-002     2.0285338563649223E-028
   1.9799999999999998E-002    -1.7921731544682667E-027
   2.0100000000000000E-002     1.6736333251239062E-027
   2.0400000000000001E-002     2.1896939510675630E-027
   2.0700000000000003E-002    -6.2388659652426064E-027
   2.0999999999999998E-002     1.9163677259443543E-027
   2.1299999999999999E-002     1.1510419724878293E-026
   2.1600000000000001E-002    -1.5345515597262491E-026
   2.1900000000000003E-002    -1.0228828081338221E-026
   2.2200000000000004E-002     4.1603877160148636E-026
   2.2500000000000006E-002    -1.1971335688010146E-026
   2.2800000000000001E-002    -8.4680551326036960E-026
   2.3100000000000002E-002     9.6890324841826076E-026
   2.3400000000000004E-002     1.2939170220919775E-025
   2.3699999999999999E-002    -3.7199618578372360E-025
   2.4000000000000000E-002     2.9409529082700109E-026
   2.4300000000000002E-002     9.7921156477033721E-025
   2.4599999999999997E-002    -1.2515678613602375E-024
   2.4900000000000005E-002    -1.0927250047592404E-024
   2.5200000000000000E-002     5.0719401788606016E-024
   2.5499999999999995E-002    -4.4905133886529092E-024
   2.5800000000000003E-002    -9.3613090546725375E-024
   2.6099999999999998E-002     3.5907127738840117E-023
   2.6400000000000007E-002    -3.1093138669513238E-023
   2.6700000000000002E-002    -1.3489391498919345E-022
   2.6999999999999996E-002     4.9948269337188744E-022
   2.7300000000000005E-002    -1.7787381954834057E-022
   2.7600000000000000E-002    -3.0838700861324696E-021
   2.7900000000000008E-002     7.3656273438710130E-021
   2.8200000000000003E-002     7.7579104966637818E-021
   2.8499999999999998E-002    -6.7023226853287264E-020
   2.8800000000000006E-002     6.9061839329448437E-020
   2.9100000000000001E-002     3.4235705333984710E-019
   2.9400000000000003E-002    -1.0941487093502282E-018
   2.9700000000000004E-002    -2.7738542785150789E-019
   3.0000000000000006E-002     7.1379615323432012E-018
   3.0300000000000001E-002    -9.2825612640560725E-018
   3.0600000000000002E-002    -2.6425864595127048E-017
   3.0900000000000004E-002     7.8152427871301980E-017
   3.1199999999999999E-002     7.4382483065771371E-017
   3.1500000000000007E-002    -5.1584285337071380E-016
   3.1800000000000002E-002    -6.2873416480589060E-017
   3.2099999999999997E-002     3.6280703899147696E-015
   3.2400000000000005E-002    -4.1316911932790428E-015
   3.2700000000000000E-002    -1.8139346084280343E-014
   3.3000000000000002E-002     5.2515114362555943E-014
   3.3300000000000003E-002     2.6307010346500304E-014
   3.3599999999999998E-002    -3.2255074239631923E-013
   3.3900000000000000E-002     3.3272836481909188E-013
   3.4200000000000001E-002     1.0653653518956242E-012
   3.4500000000000003E-002    -2.9264722123709859E-012
   3.4799999999999998E-002    -7.0523069064837756E-013
   3.5099999999999999E-002     1.2693383662215781E-011
   3.5400000000000001E-002    -1.2817634948585792E-011
   3.5699999999999996E-002    -3.1639971896739538E-011
   3.6000000000000004E-002     8.2905501827519261E-011
   3.6299999999999999E-002     1.2832934464295696E-011
   3.6600000000000008E-002    -2.9286428821634108E-010
   3.6900000000000002E-002     2.9388680339448166E-010
   3.7199999999999997E-002     6.0493621189362575E-010
   3.7500000000000006E-002    -1.5991512543914284E-009
   3.7800000000000000E-002    -1.5139756024523031E-010
   3.8100000000000009E-002     4.9966097856049204E-009
   3.8400000000000004E-002    -4.0491161541484979E-009
   3.8699999999999998E-002    -1.1150062173811810E-008
   3.9000000000000007E-002     1.4965554133255197E-008
   3.9300000000000002E-002     2.0025213404290980E-008
   3.9600000000000003E-002    -2.6755653584189366E-008
   3.9900000000000005E-002    -8.5035075268129868E-008
   4.0200000000000000E-002     9.3705444054818874E-008
   4.0500000000000001E-002     2.4297180344269798E-006
   4.0800000000000003E-002     1.0537852099598840E-005
   4.1100000000000005E-002     2.4335389546940359E-005
   4.1399999999999999E-002     3.7679066359912597E-005
   4.1700000000000008E-002     4.8116965836912948E-005
   4.2000000000000003E-002     6.4229250070417672E-005
   4.2299999999999997E-002     9.7069975725357853E-005
   4.2600000000000006E-002     1.5216730974393526E-004
   4.2900000000000001E-002     2.3423706943466466E-004
   4.3200000000000002E-002     3.5268763550229035E-004
   4.3500000000000004E-002     5.2282853938516406E-004
   4.3799999999999999E-002     7.6475954098615480E-004
   4.4100000000000000E-002     1.0995777448432368E-003
   4.4400000000000002E-002     1.5527359056301347E-003
   4.4700000000000004E-002     2.1616657980865210E-003
   4.4999999999999998E-002     2.9674281535095929E-003
   4.5300000000000000E-002     4.0018013276041358E-003
   4.5600000000000002E-002     5.2941552759358046E-003
   4.5899999999999996E-002     6.8844821535434999E-003
   4.6200000000000005E-002     8.8178775302449990E-003
   4.6500000000000000E-002     1.1115447503559151E-002
   4.6799999999999994E-002     1.3750197223159562E-002
   4.7100000000000003E-002     1.6662245441994027E-002
   4.7399999999999998E-002     1.9784666389163846E-002
   4.7700000000000006E-002     2.3015971981905834E-002
   4.8000000000000001E-002     2.6178694979863242E-002
   4.8300000000000010E-002     2.9040900674096839E-002
   4.8600000000000004E-002     3.1362313431036792E-002
   4.8899999999999999E-002     3.2897140462019241E-002
   4.9200000000000008E-002     3.3381711310306567E-002
   4.9500000000000002E-002     3.2568137711823590E-002
   4.9800000000000011E-002     3.0292816095086730E-002
   5.0100000000000006E-002     2.6511270220383604E-002
   5.0400000000000000E-002     2.1302733286849413E-002
   5.0700000000000009E-002     1.4874446917909309E-002
   5.1000000000000004E-002     7.5805940176676238E-003
   5.1299999999999998E-002    -1.1974628184887559E-004
   5.1600000000000007E-002    -7.7234906726133630E-003
   5.1900000000000002E-002    -1.4761241026967071E-002
   5.2200000000000010E-002    -2.0909856790777417E-002
   5.2500000000000005E-002    -2.6101072951854938E-002
   5.2800000000000000E-002    -3.0639018482620909E-002
   5.3099999999999994E-002    -3.5338054873691876E-002
   5.3400000000000003E-002    -4.1539336911787593E-002
   5.3699999999999998E-002    -5.1047190310150710E-002
   5.4000000000000006E-002    -6.6041990207630852E-002
   5.4300000000000001E-002    -8.8912761524992501E-002
   5.4599999999999996E-002   -0.12197850490185405     
   5.4900000000000004E-002   -0.16709053313708511     
   5.5199999999999999E-002   -0.22524659072236114     
   5.5499999999999994E-002   -0.29623099825334620     
   5.5800000000000002E-002   -0.37829419551094240     
   5.6099999999999997E-002   -0.46793671932998337     
   5.6400000000000006E-002   -0.55985831613408787     
   5.6700000000000000E-002   -0.64715974835992907     
   5.6999999999999995E-002   -0.72168897823066047     
   5.7300000000000004E-002   -0.77458345080872160     
   5.7599999999999998E-002   -0.79703699715045284     
   5.7900000000000007E-002   -0.78112738518545877     
   5.8200000000000002E-002   -0.72061943269144790     
   5.8499999999999996E-002   -0.61184340093694323     
   5.8800000000000005E-002   -0.45420449517776990     
   5.9100000000000000E-002   -0.25064754246341681     
   5.9400000000000008E-002    -7.7793012984929090E-003
   5.9700000000000003E-002    0.26445063647778100     
   6.0000000000000012E-002    0.55318527810508222     
   6.0300000000000006E-002    0.84346674965621460     
   6.0600000000000001E-002     1.1192939161871194     
   6.0900000000000010E-002     1.3646343801170358     
   6.1200000000000004E-002     1.5647713971776274     
   6.1500000000000013E-002     1.7071029958743078     
   6.1800000000000008E-002     1.7821755220172391     
   6.2100000000000002E-002     1.7844731618388030     
   6.2399999999999997E-002     1.7125066337001824     
   6.2700000000000006E-002     1.5691557955900870     
   6.3000000000000000E-002     1.3612539623337536     
   6.3300000000000009E-002     1.0991481425287946     
   6.3600000000000004E-002    0.79603998999531123     
   6.3899999999999998E-002    0.46697276324287484     
   6.4199999999999993E-002    0.12791254968460344     
   6.4500000000000002E-002   -0.20525865051898351     
   6.4800000000000010E-002   -0.51756780803059754     
   6.5100000000000005E-002   -0.79585414291668932     
   6.5400000000000000E-002    -1.0293208252327750     
   6.5700000000000008E-002    -1.2100353113090110     
   6.5999999999999989E-002    -1.3329689361329835     
   6.6299999999999998E-002    -1.3962241262559740     
   6.6600000000000006E-002    -1.4006160347927641     
   6.6900000000000001E-002    -1.3495526168803271     
   6.7199999999999996E-002    -1.2485364540600372     
   6.7500000000000004E-002    -1.1047303556310220     
   6.7800000000000013E-002   -0.92663269215484878     
   6.8099999999999994E-002   -0.72351168777608299     
   6.8400000000000002E-002   -0.50511860267528985     
   6.8700000000000011E-002   -0.28139838232368813     
   6.8999999999999992E-002    -6.2145109111299883E-002
   6.9300000000000000E-002    0.14322586248115579     
   6.9600000000000009E-002    0.32597917010581340     
   6.9900000000000004E-002    0.47854512454175235     
   7.0199999999999999E-002    0.59460317481998615     
   7.0500000000000007E-002    0.66967546244860543     
   7.0800000000000016E-002    0.70138853050157612     
   7.1099999999999997E-002    0.68985306480763076     
   7.1400000000000005E-002    0.63781099821120779     
   7.1700000000000000E-002    0.55056219685870078     
   7.1999999999999995E-002    0.43600323302295285     
   7.2300000000000003E-002    0.30385255452562254     
   7.2600000000000012E-002    0.16547101515970428     
   7.2900000000000006E-002     3.2721123752783673E-002
   7.3200000000000001E-002    -8.2802705106684166E-002
   7.3499999999999996E-002   -0.17069928220144831     
   7.3800000000000004E-002   -0.22282256002714557     
   7.4099999999999999E-002   -0.23375756842153617     
   7.4400000000000008E-002   -0.20163017346151679     
   7.4700000000000003E-002   -0.12808489708106763     
   7.5000000000000011E-002    -1.8438037679611861E-002
   7.5299999999999992E-002    0.11872574528673170     
   7.5600000000000001E-002    0.27207904740890781     
   7.5900000000000009E-002    0.42836758024226895     
   7.6200000000000004E-002    0.57349877935323534     
   7.6499999999999999E-002    0.69326841100434367     
   7.6800000000000007E-002    0.77471958784724015     
   7.7099999999999988E-002    0.80691110258519128     
   7.7399999999999997E-002    0.78193389577386030     
   7.7700000000000005E-002    0.69552706981688106     
   7.8000000000000014E-002    0.54754548740017517     
   7.8299999999999995E-002    0.34234481749539764     
   7.8600000000000003E-002     8.8660172851687050E-002
   7.8900000000000012E-002   -0.20083026305418111     
   7.9199999999999993E-002   -0.51017408953056265     
   7.9500000000000001E-002   -0.82087199943833256     
   7.9800000000000010E-002    -1.1133862609797218     
   8.0100000000000018E-002    -1.3683814852208565     
   8.0399999999999999E-002    -1.5680764743207667     
   8.0700000000000008E-002    -1.6979979093754252     
   8.1000000000000003E-002    -1.7479657939976603     
   8.1299999999999997E-002    -1.7129987296520512     
   8.1600000000000006E-002    -1.5940799545429489     
   8.1900000000000014E-002    -1.3981350514777038     
   8.2199999999999995E-002    -1.1374591472353757     
   8.2500000000000004E-002   -0.82904600269447482     
   8.2799999999999999E-002   -0.49309503570423380     
   8.3100000000000007E-002   -0.15137913731239944     
   8.3400000000000002E-002    0.17444999257501015     
   8.3700000000000011E-002    0.46462964443346544     
   8.4000000000000005E-002    0.70292340889309346     
   8.4300000000000000E-002    0.87774859858196164     
   8.4599999999999995E-002    0.98273151008647897     
   8.4900000000000003E-002     1.0174739247800726     
   8.5199999999999998E-002    0.98687999357009393     
   8.5500000000000007E-002    0.90058343626955428     
   8.5800000000000001E-002    0.77210240735024316     
   8.6100000000000010E-002    0.61713748532537838     
   8.6399999999999991E-002    0.45246535095362933     
   8.6699999999999999E-002    0.29449367263943127     
   8.7000000000000008E-002    0.15804681082359712     
   8.7300000000000003E-002     5.5201057553460373E-002
   8.7599999999999997E-002    -5.1679359881830625E-003
   8.7900000000000006E-002    -1.7933812783242478E-002
   8.8200000000000014E-002     1.8153399881576906E-002
   8.8499999999999995E-002    0.10090792892712129     
   8.8800000000000004E-002    0.22478516223197653     
   8.9100000000000013E-002    0.38160374399741431     
   8.9399999999999993E-002    0.56125044250415290     
   8.9700000000000002E-002    0.75225978292397944     
   9.0000000000000011E-002    0.94234697989234817     
   9.0299999999999991E-002     1.1191799517598695     
   9.0600000000000000E-002     1.2708978511935394     
   9.0900000000000009E-002     1.3864875877105329     
   9.1200000000000017E-002     1.4565052822934590     
   9.1499999999999998E-002     1.4731952978609395     
   9.1800000000000007E-002     1.4311319428686475     
   9.2100000000000001E-002     1.3275476544790923     
   9.2399999999999996E-002     1.1624653208699955     
   9.2700000000000005E-002    0.93918233055358080     
   9.3000000000000013E-002    0.66403531284301942     
   9.3300000000000008E-002    0.34642105908494764     
   9.3600000000000003E-002    -1.5652291005550827E-003
   9.3899999999999997E-002   -0.36572986428845661     
   9.4200000000000006E-002   -0.73076050654415226     
   9.4500000000000001E-002    -1.0809879182220195     
   9.4800000000000009E-002    -1.4015900932617187     
   9.5100000000000004E-002    -1.6799679808067232     
   9.5399999999999999E-002    -1.9062499789053549     
   9.5699999999999993E-002    -2.0744223365938539     
   9.6000000000000002E-002    -2.1822015999516777     
   9.6300000000000011E-002    -2.2312981838432622     
   9.6600000000000005E-002    -2.2265915628492672     
   9.6900000000000000E-002    -2.1751610997544049     
   9.7200000000000009E-002    -2.0851926579582605     
   9.7499999999999989E-002    -1.9642858295775807     
   9.7799999999999998E-002    -1.8186224506668593     
   9.8100000000000007E-002    -1.6516291922093451     
   9.8400000000000015E-002    -1.4636467543446154     
   9.8699999999999996E-002    -1.2521444430880049     
   9.9000000000000005E-002    -1.0123122828640987     
   9.9300000000000013E-002   -0.73850362771013545     
   9.9599999999999994E-002   -0.42600509138024412     
   9.9900000000000003E-002    -7.2999648653408938E-002
  0.10020000000000001         0.31771790576020731     
  0.10049999999999999         0.73706053838408547     
  0.10080000000000000          1.1690665352953034     
  0.10110000000000001          1.5910950724161979     
  0.10140000000000000          1.9745974325502931     
  0.10170000000000000          2.2873184433109657     
  0.10200000000000001          2.4961731164571779     
  0.10230000000000002          2.5704371652831064     
  0.10260000000000000          2.4855692120309456     
  0.10290000000000001          2.2261028052186926     
  0.10320000000000000          1.7887230921674968     
  0.10350000000000001          1.1839238281056637     
  0.10380000000000000         0.43649410769168251     
  0.10410000000000001        -0.41511466610828524     
  0.10440000000000001         -1.3206670137621730     
  0.10470000000000000         -2.2217178100781734     
  0.10500000000000000         -3.0555355214873949     
  0.10530000000000000         -3.7592167444265714     
  0.10560000000000000         -4.2750849257906660     
  0.10590000000000001         -4.5545410613555557     
  0.10620000000000000         -4.5622014501785895     
  0.10650000000000001         -4.2786035070230453     
  0.10679999999999999         -3.7015409063839924     
  0.10710000000000000         -2.8470842524211126     
  0.10740000000000001         -1.7483018440783740     
  0.10770000000000000        -0.45351266296583792     
  0.10800000000000000         0.97616582130023821     
  0.10830000000000001          2.4708666541878559     
  0.10859999999999999          3.9554085310929610     
  0.10890000000000000          5.3536376380424819     
  0.10920000000000001          6.5924357659878234     
  0.10950000000000001          7.6053680554201559     
  0.10979999999999999          8.3361186080606871     
  0.11009999999999999          8.7412823683900811     
  0.11040000000000001          8.7925938604998350     
  0.11070000000000001          8.4787854224806107     
  0.11100000000000000          7.8056859117028701     
  0.11130000000000000          6.7973431794896033     
  0.11160000000000002          5.4938330043779340     
  0.11190000000000001          3.9506244218828459     
  0.11220000000000001          2.2359020454565064     
  0.11250000000000000         0.42699509265304819     
  0.11280000000000000         -1.3933808664969072     
  0.11309999999999999         -3.1412710814119880     
  0.11340000000000001         -4.7366408797532440     
  0.11369999999999998         -6.1077737152973901     
  0.11400000000000000         -7.1952671228792839     
  0.11430000000000000         -7.9562567803183937     
  0.11460000000000002         -8.3664340064063865     
  0.11489999999999999         -8.4216584241607606     
  0.11520000000000001         -8.1378220622367152     
  0.11550000000000001         -7.5490306980162263     
  0.11580000000000000         -6.7056841112430225     
  0.11609999999999999         -5.6692461341094091     
  0.11640000000000002         -4.5087322688038549     
  0.11670000000000001         -3.2946426499808448     
  0.11700000000000001         -2.0946116210021253     
  0.11730000000000000        -0.96862422282514360     
  0.11760000000000000          3.4639574886986227E-002
  0.11789999999999999         0.88043986842132993     
  0.11820000000000001          1.5493135286637867     
  0.11850000000000001          2.0370635765723066     
  0.11880000000000000          2.3535182219308397     
  0.11910000000000000          2.5202717504813488     
  0.11940000000000002          2.5677430347350407     
  0.11970000000000001          2.5317778308366772     
  0.12000000000000001          2.4497463433048141     
  0.12030000000000000          2.3574132659601004     
  0.12060000000000000          2.2852756725873977     
  0.12089999999999999          2.2566251507554553     
  0.12119999999999999          2.2854537714486312     
  0.12150000000000001          2.3759247998391766     
  0.12180000000000001          2.5221605027464804     
  0.12210000000000000          2.7097904388829943     
  0.12239999999999999          2.9171189946150475     
  0.12270000000000002          3.1178681512742163     
  0.12300000000000001          3.2838415743301450     
  0.12330000000000001          3.3877579797507393     
  0.12360000000000000          3.4058374987215481     
  0.12390000000000000          3.3205737704379747     
  0.12419999999999999          3.1215507641377784     
  0.12450000000000001          2.8071059870995425     
  0.12480000000000001          2.3840856287596988     
  0.12509999999999999          1.8664163142234023     
  0.12540000000000001          1.2746330354950095     
  0.12570000000000003         0.63245617595875714     
  0.12600000000000000         -3.4418624072348220E-002
  0.12630000000000002        -0.70084714174902074     
  0.12659999999999999         -1.3454204655285174     
  0.12690000000000001         -1.9494963675165395     
  0.12719999999999998         -2.5008141724367778     
  0.12750000000000000         -2.9912075672141070     
  0.12780000000000002         -3.4174313174045960     
  0.12809999999999999         -3.7798316067930489     
  0.12840000000000001         -4.0801062140590885     
  0.12869999999999998         -4.3216528423443723     
  0.12900000000000000         -4.5063433158813364     
  0.12930000000000003         -4.6354927515323237     
  0.12959999999999999         -4.7087177722173728     
  0.12990000000000002         -4.7236484972645556     
  0.13019999999999998         -4.6782979462528065     
  0.13050000000000000         -4.5697960363368475     
  0.13080000000000003         -4.3973707681599752     
  0.13109999999999999         -4.1622972042617539     
  0.13140000000000002         -3.8685218873326734     
  0.13169999999999998         -3.5237388232619113     
  0.13200000000000001         -3.1382271905601984     
  0.13229999999999997         -2.7249211970152003     
  0.13260000000000000         -2.2982823598183835     
  0.13290000000000002         -1.8729214461906336     
  0.13319999999999999         -1.4620653227259284     
  0.13350000000000001         -1.0769984598788833     
  0.13380000000000003        -0.72536914677987752     
  0.13410000000000000        -0.41117712328154732     
  0.13440000000000002        -0.13437936973849857     
  0.13469999999999999         0.10930753454625963     
  0.13500000000000001         0.32715364997709168     
  0.13529999999999998         0.52934443422444344     
  0.13560000000000000         0.72710984183271410     
  0.13590000000000002         0.93303947635649043     
  0.13619999999999999          1.1576040856391536     
  0.13650000000000001          1.4103295647190517     
  0.13680000000000003          1.6980120947445423     
  0.13710000000000000          2.0225958599957554     
  0.13740000000000002          2.3841781352798836     
  0.13769999999999999          2.7758543186022449     
  0.13800000000000001          3.1884450563535327     
  0.13829999999999998          3.6084866130905513     
  0.13860000000000000          4.0185646575414591     
  0.13890000000000002          4.4010605337345599     
  0.13919999999999999          4.7357449022585314     
  0.13950000000000001          5.0046095311875973     
  0.13979999999999998          5.1907929819319385     
  0.14010000000000000          5.2812909516448237     
  0.14040000000000002          5.2684940730405208     
  0.14069999999999999          5.1491054940329057     
  0.14100000000000001          4.9272717905195327     
  0.14130000000000004          4.6118988500044242     
  0.14160000000000000          4.2184757737467109     
  0.14189999999999997          3.7661890582755224     
  0.14219999999999999          3.2779032835080959     
  0.14250000000000002          2.7778792085403365     
  0.14279999999999998          2.2900693172448205     
  0.14310000000000000          1.8366000456207259     
  0.14339999999999997          1.4355480517185415     
  0.14369999999999999          1.1002184034103626     
  0.14400000000000002         0.83803730291612100     
  0.14429999999999998         0.64950590608192316     
  0.14460000000000001         0.52904801964360182     
  0.14490000000000003         0.46474632085754969     
  0.14520000000000000         0.44034757695421811     
  0.14550000000000002         0.43550797783972622     
  0.14579999999999999         0.42791234941832901     
  0.14610000000000001         0.39610406289312888     
  0.14640000000000003         0.31956290821338557     
  0.14670000000000000         0.18208846231420445     
  0.14699999999999996         -2.7633111711159345E-002
  0.14729999999999999        -0.31503766429308566     
  0.14760000000000001        -0.67715089761429526     
  0.14789999999999998         -1.1055186864163806     
  0.14820000000000000         -1.5837092224079126     