  -1.4999999999999999E-002     0.0000000000000000     
  -1.4700000000000000E-002     0.0000000000000000     
  -1.4400000000000000E-002     0.0000000000000000     
  -1.4100000000000000E-002     0.0000000000000000     
  -1.3800000000000000E-002     0.0000000000000000     
  -1.3500000000000000E-002     0.0000000000000000     
  -1.3200000000000000E-002     0.0000000000000000     
  -1.2899999999999998E-002     0.0000000000000000     
  -1.2600000000000000E-002     0.0000000000000000     
  -1.2299999999999998E-002     0.0000000000000000     
  -1.2000000000000000E-002     0.0000000000000000     
  -1.1699999999999999E-002     0.0000000000000000     
  -1.1399999999999999E-002     0.0000000000000000     
  -1.1099999999999999E-002     0.0000000000000000     
  -1.0799999999999999E-002     0.0000000000000000     
  -1.0499999999999999E-002     0.0000000000000000     
  -1.0199999999999999E-002     0.0000000000000000     
  -9.8999999999999991E-003     0.0000000000000000     
  -9.5999999999999992E-003     0.0000000000000000     
  -9.2999999999999992E-003     0.0000000000000000     
  -8.9999999999999993E-003     0.0000000000000000     
  -8.6999999999999994E-003     0.0000000000000000     
  -8.3999999999999995E-003     0.0000000000000000     
  -8.0999999999999996E-003     0.0000000000000000     
  -7.7999999999999988E-003     0.0000000000000000     
  -7.4999999999999997E-003     0.0000000000000000     
  -7.1999999999999998E-003     0.0000000000000000     
  -6.8999999999999981E-003     0.0000000000000000     
  -6.5999999999999982E-003     0.0000000000000000     
  -6.3000000000000000E-003     0.0000000000000000     
  -6.0000000000000001E-003     0.0000000000000000     
  -5.6999999999999985E-003     0.0000000000000000     
  -5.3999999999999986E-003     0.0000000000000000     
  -5.1000000000000004E-003     0.0000000000000000     
  -4.7999999999999987E-003     0.0000000000000000     
  -4.5000000000000005E-003     0.0000000000000000     
  -4.1999999999999989E-003     0.0000000000000000     
  -3.8999999999999990E-003     0.0000000000000000     
  -3.5999999999999990E-003     0.0000000000000000     
  -3.2999999999999991E-003     0.0000000000000000     
  -2.9999999999999992E-003     0.0000000000000000     
  -2.6999999999999993E-003     0.0000000000000000     
  -2.3999999999999994E-003     0.0000000000000000     
  -2.0999999999999977E-003     0.0000000000000000     
  -1.7999999999999995E-003     0.0000000000000000     
  -1.4999999999999979E-003     0.0000000000000000     
  -1.1999999999999997E-003     0.0000000000000000     
  -8.9999999999999976E-004     0.0000000000000000     
  -5.9999999999999810E-004     0.0000000000000000     
  -2.9999999999999992E-004     0.0000000000000000     
   0.0000000000000000          0.0000000000000000     
   3.0000000000000165E-004     0.0000000000000000     
   5.9999999999999984E-004     0.0000000000000000     
   9.0000000000000149E-004     0.0000000000000000     
   1.2000000000000031E-003     0.0000000000000000     
   1.5000000000000013E-003     0.0000000000000000     
   1.8000000000000030E-003     0.0000000000000000     
   2.1000000000000012E-003     0.0000000000000000     
   2.3999999999999994E-003     0.0000000000000000     
   2.7000000000000010E-003     0.0000000000000000     
   2.9999999999999992E-003     0.0000000000000000     
   3.3000000000000008E-003     0.0000000000000000     
   3.6000000000000025E-003     0.0000000000000000     
   3.9000000000000007E-003     0.0000000000000000     
   4.2000000000000023E-003     0.0000000000000000     
   4.5000000000000005E-003     0.0000000000000000     
   4.7999999999999987E-003     0.0000000000000000     
   5.1000000000000004E-003     0.0000000000000000     
   5.4000000000000020E-003     0.0000000000000000     
   5.7000000000000037E-003     0.0000000000000000     
   5.9999999999999984E-003     0.0000000000000000     
   6.3000000000000000E-003     0.0000000000000000     
   6.6000000000000017E-003     0.0000000000000000     
   6.9000000000000034E-003     0.0000000000000000     
   7.2000000000000015E-003     0.0000000000000000     
   7.5000000000000032E-003     0.0000000000000000     
   7.8000000000000014E-003     0.0000000000000000     
   8.0999999999999996E-003     0.0000000000000000     
   8.4000000000000012E-003     0.0000000000000000     
   8.7000000000000029E-003     0.0000000000000000     
   9.0000000000000011E-003     0.0000000000000000     
   9.2999999999999992E-003     0.0000000000000000     
   9.6000000000000009E-003     0.0000000000000000     
   9.8999999999999991E-003     0.0000000000000000     
   1.0200000000000001E-002     0.0000000000000000     
   1.0500000000000002E-002     0.0000000000000000     
   1.0800000000000004E-002     0.0000000000000000     
   1.1099999999999999E-002     0.0000000000000000     
   1.1400000000000000E-002     0.0000000000000000     
   1.1700000000000002E-002     0.0000000000000000     
   1.2000000000000004E-002     0.0000000000000000     
   1.2300000000000002E-002     0.0000000000000000     
   1.2600000000000000E-002     0.0000000000000000     
   1.2900000000000002E-002     0.0000000000000000     
   1.3200000000000000E-002     0.0000000000000000     
   1.3500000000000002E-002     0.0000000000000000     
   1.3800000000000003E-002     0.0000000000000000     
   1.4100000000000001E-002     0.0000000000000000     
   1.4400000000000000E-002     0.0000000000000000     
   1.4700000000000001E-002     0.0000000000000000     
   1.4999999999999999E-002     0.0000000000000000     
   1.5300000000000001E-002     0.0000000000000000     
   1.5600000000000003E-002     0.0000000000000000     
   1.5899999999999997E-002     0.0000000000000000     
   1.6199999999999999E-002     0.0000000000000000     
   1.6500000000000001E-002     0.0000000000000000     
   1.6800000000000002E-002     0.0000000000000000     
   1.7100000000000004E-002     0.0000000000000000     
   1.7400000000000006E-002     0.0000000000000000     
   1.7700000000000000E-002     0.0000000000000000     
   1.8000000000000002E-002     0.0000000000000000     
   1.8300000000000004E-002     0.0000000000000000     
   1.8600000000000005E-002     0.0000000000000000     
   1.8900000000000000E-002     0.0000000000000000     
   1.9200000000000002E-002     0.0000000000000000     
   1.9500000000000003E-002     0.0000000000000000     
   1.9799999999999998E-002     0.0000000000000000     
   2.0100000000000000E-002     0.0000000000000000     
   2.0400000000000001E-002     0.0000000000000000     
   2.0700000000000003E-002     0.0000000000000000     
   2.0999999999999998E-002     0.0000000000000000     
   2.1299999999999999E-002     0.0000000000000000     
   2.1600000000000001E-002     0.0000000000000000     
   2.1900000000000003E-002     0.0000000000000000     
   2.2200000000000004E-002     0.0000000000000000     
   2.2500000000000006E-002     0.0000000000000000     
   2.2800000000000001E-002     0.0000000000000000     
   2.3100000000000002E-002     0.0000000000000000     
   2.3400000000000004E-002     0.0000000000000000     
   2.3699999999999999E-002     0.0000000000000000     
   2.4000000000000000E-002     1.3699391535331513E-071
   2.4300000000000002E-002    -7.7201763392674596E-071
   2.4599999999999997E-002    -1.0830342089020056E-043
   2.4900000000000005E-002     1.1269860307055317E-042
   2.5200000000000000E-002     8.8379309171097759E-038
   2.5499999999999995E-002    -7.4251760748914529E-036
   2.5800000000000003E-002     5.7835433422207746E-035
   2.6099999999999998E-002    -1.7936631953542494E-034
   2.6400000000000007E-002     3.7874760849696819E-034
   2.6700000000000002E-002    -5.1091351941889441E-034
   2.6999999999999996E-002     1.8927242358760037E-033
   2.7300000000000005E-002    -1.2163301704367505E-032
   2.7600000000000000E-002     5.7786654232997824E-032
   2.7900000000000008E-002    -2.1625562291530007E-031
   2.8200000000000003E-002     6.9844975298101909E-031
   2.8499999999999998E-002    -2.0006266351279224E-030
   2.8800000000000006E-002     5.0950769529840600E-030
   2.9100000000000001E-002    -1.1289570981472247E-029
   2.9400000000000003E-002     2.0275733229497187E-029
   2.9700000000000004E-002    -2.2038571815554006E-029
   3.0000000000000006E-002    -2.7312056137057942E-029
   3.0300000000000001E-002     2.6223784495563997E-028
   3.0600000000000002E-002    -1.0067744578288438E-027
   3.0900000000000004E-002     2.8579463011305635E-027
   3.1199999999999999E-002    -6.4568480853164354E-027
   3.1500000000000007E-002     1.1079711781701143E-026
   3.1800000000000002E-002    -1.0284155273537863E-026
   3.2099999999999997E-002    -1.7448618718568362E-026
   3.2400000000000005E-002     1.2137577130677331E-025
   3.2700000000000000E-002    -3.7733450713027163E-025
   3.3000000000000002E-002     8.1957848565767875E-025
   3.3300000000000003E-002    -1.2038543932522243E-024
   3.3599999999999998E-002     5.1218726949943944E-025
   3.3900000000000000E-002     3.6135929580403918E-024
   3.4200000000000001E-002    -1.4478248207624574E-023
   3.4500000000000003E-002     3.2550162301422912E-023
   3.4799999999999998E-002    -4.5378599843028486E-023
   3.5099999999999999E-002     1.3098013625607183E-023
   3.5400000000000001E-002     1.3244829925074647E-022
   3.5699999999999996E-002    -4.3184670346402813E-022
   3.6000000000000004E-002     7.4278178369649570E-022
   3.6299999999999999E-002    -5.5321475364928983E-022
   3.6600000000000008E-002    -8.7152318523428001E-022
   3.6900000000000002E-002     3.3407630429318941E-021
   3.7199999999999997E-002    -3.4783642377226276E-021
   3.7500000000000006E-002    -5.8098224671664834E-021
   3.7800000000000000E-002     2.5674392076413845E-020
   3.8100000000000009E-002    -2.0992878366028661E-020
   3.8400000000000004E-002    -1.2062406260016551E-019
   3.8699999999999998E-002     5.6263627830002860E-019
   3.9000000000000007E-002    -1.2437599860128147E-018
   3.9300000000000002E-002     1.1551682572577714E-018
   3.9600000000000003E-002     2.6636869837508290E-018
   3.9900000000000005E-002    -1.5192380728204647E-017
   4.0200000000000000E-002     3.9582981367194433E-017
   4.0500000000000001E-002    -6.4208458831911674E-017
   4.0800000000000003E-002     3.2693096543417360E-017
   4.1100000000000005E-002     2.1078280727028347E-016
   4.1399999999999999E-002    -9.7397030481338714E-016
   4.1700000000000008E-002     2.5540612833718835E-015
   4.2000000000000003E-002    -4.1109384886901667E-015
   4.2299999999999997E-002     1.4089969331424449E-016
   4.2600000000000006E-002     2.5301090801747736E-014
   4.2900000000000001E-002    -9.4917754194304142E-014
   4.3200000000000002E-002     1.8193763572876009E-013
   4.3500000000000004E-002    -3.3412416463920244E-014
   4.3799999999999999E-002    -1.0370136239157758E-012
   4.4100000000000000E-002     3.5653509299839022E-012
   4.4400000000000002E-002    -4.5993438718624481E-012
   4.4700000000000004E-002    -8.2416250831885653E-012
   4.4999999999999998E-002     5.0463247270242807E-011
   4.5300000000000000E-002    -8.3356958779078534E-011
   4.5600000000000002E-002    -8.6732455566938460E-011
   4.5899999999999996E-002     6.6520171378363042E-010
   4.6200000000000005E-002    -9.1205074728888763E-010
   4.6500000000000000E-002    -1.8253215109347428E-009
   4.6799999999999994E-002     7.8955080617752895E-009
   4.7100000000000003E-002    -2.6495518323755588E-009
   4.7399999999999998E-002    -3.6348138467167019E-008
   4.7700000000000006E-002     4.9345735021694918E-008
   4.8000000000000001E-002     1.2301895450775373E-007
   4.8300000000000010E-002    -3.1882861554279942E-007
   4.8600000000000004E-002    -3.7614789686586279E-007
   4.8899999999999999E-002     2.7560457267068537E-006
   4.9200000000000008E-002     9.7272047944013353E-006
   4.9500000000000002E-002     1.7292953686508759E-005
   4.9800000000000011E-002     2.4211458039939577E-005
   5.0100000000000006E-002     3.4644395302477935E-005
   5.0400000000000000E-002     5.2883873781290298E-005
   5.0700000000000009E-002     7.9926416407866583E-005
   5.1000000000000004E-002     1.1767779790397074E-004
   5.1299999999999998E-002     1.7383485205299431E-004
   5.1600000000000007E-002     2.6120579658501695E-004
   5.1900000000000002E-002     3.9195272902212277E-004
   5.2200000000000010E-002     5.7536490882366897E-004
   5.2500000000000005E-002     8.2458696623441267E-004
   5.2800000000000000E-002     1.1616224465716555E-003
   5.3099999999999994E-002     1.6123874976548889E-003
   5.3400000000000003E-002     2.2007137922974746E-003
   5.3699999999999998E-002     2.9506529690339935E-003
   5.4000000000000006E-002     3.8917237633279231E-003
   5.4300000000000001E-002     5.0508043791251643E-003
   5.4599999999999996E-002     6.4347339825567623E-003
   5.4900000000000004E-002     8.0319332033437895E-003
   5.5199999999999999E-002     9.8226337843749390E-003
   5.5499999999999994E-002     1.1761794630674068E-002
   5.5800000000000002E-002     1.3755634342830617E-002
   5.6099999999999997E-002     1.5666077819311255E-002
   5.6400000000000006E-002     1.7323303031304648E-002
   5.6700000000000000E-002     1.8523846711101383E-002
   5.6999999999999995E-002     1.9026835296881532E-002
   5.7300000000000004E-002     1.8562425511488845E-002
   5.7599999999999998E-002     1.6861096315944860E-002
   5.7900000000000007E-002     1.3699021087320542E-002
   5.8200000000000002E-002     8.9309954663520739E-003
   5.8499999999999996E-002     2.5148391743049477E-003
   5.8800000000000005E-002    -5.4675093032897620E-003
   5.9100000000000000E-002    -1.4771132343504712E-002
   5.9400000000000008E-002    -2.4955819547914641E-002
   5.9700000000000003E-002    -3.5397592638299398E-002
   6.0000000000000012E-002    -4.5346278668495957E-002
   6.0300000000000006E-002    -5.3980138139693580E-002
   6.0600000000000001E-002    -6.0485921493811309E-002
   6.0900000000000010E-002    -6.4185517836846673E-002
   6.1200000000000004E-002    -6.4626181467849403E-002
   6.1500000000000013E-002    -6.1702252022171611E-002
   6.1800000000000008E-002    -5.5778752164654555E-002
   6.2100000000000002E-002    -4.7731233284335574E-002
   6.2399999999999997E-002    -3.8940791055918529E-002
   6.2700000000000006E-002    -3.1202237020171598E-002
   6.3000000000000000E-002    -2.6596194454499549E-002
   6.3300000000000009E-002    -2.7283114004300665E-002
   6.3600000000000004E-002    -3.5228345366733325E-002
   6.3899999999999998E-002    -5.1880704321795368E-002
   6.4199999999999993E-002    -7.7890308055660495E-002
   6.4500000000000002E-002   -0.11287212164646460     
   6.4800000000000010E-002   -0.15524397311296315     
   6.5100000000000005E-002   -0.20220933887298745     
   6.5400000000000000E-002   -0.24985278196871044     
   6.5700000000000008E-002   -0.29339643832096990     
   6.5999999999999989E-002   -0.32758489141206243     
   6.6299999999999998E-002   -0.34719503047964234     
   6.6600000000000006E-002   -0.34756946741193062     
   6.6900000000000001E-002   -0.32517474919208600     
   6.7199999999999996E-002   -0.27808192038289936     
   6.7500000000000004E-002   -0.20634826110826640     
   6.7800000000000013E-002   -0.11217408451308568     
   6.8099999999999994E-002     1.2818223099046584E-004
   6.8400000000000002E-002    0.12431461210649311     
   6.8700000000000011E-002    0.25266267488540611     
   6.8999999999999992E-002    0.37658565863326121     
   6.9300000000000000E-002    0.48730892448855007     
   6.9600000000000009E-002    0.57661799810499459     
   6.9900000000000004E-002    0.63749955803333058     
   7.0199999999999999E-002    0.66484849590439565     
   7.0500000000000007E-002    0.65590303032432906     
   7.0800000000000016E-002    0.61045365095959969     
   7.1099999999999997E-002    0.53099606411342548     
   7.1400000000000005E-002    0.42246854478527485     
   7.1700000000000000E-002    0.29196064875440586     
   7.1999999999999995E-002    0.14826681848296316     
   7.2300000000000003E-002     1.1441394311276437E-003
   7.2600000000000012E-002   -0.13932345338972854     
   7.2900000000000006E-002   -0.26347874583827280     
   7.3200000000000001E-002   -0.36271464592629898     
   7.3499999999999996E-002   -0.43008706302421645     
   7.3800000000000004E-002   -0.46090782326541940     
   7.4099999999999999E-002   -0.45297986943484336     
   7.4400000000000008E-002   -0.40689030729368403     
   7.4700000000000003E-002   -0.32590591858077855     
   7.5000000000000011E-002   -0.21586031452851528     
   7.5299999999999992E-002    -8.4859727343784205E-002
   7.5600000000000001E-002     5.7390529834127464E-002
   7.5900000000000009E-002    0.20000541877622877     
   7.6200000000000004E-002    0.33186279399995977     
   7.6499999999999999E-002    0.44224130653546712     
   7.6800000000000007E-002    0.52165255190656290     
   7.7099999999999988E-002    0.56258497339370273     
   7.7399999999999997E-002    0.56009075922651497     
   7.7700000000000005E-002    0.51220927401184269     
   7.8000000000000014E-002    0.42019576174695900     
   7.8299999999999995E-002    0.28867116216918620     
   7.8600000000000003E-002    0.12520747095181001     
   7.8900000000000012E-002    -6.0015284970344855E-002
   7.9199999999999993E-002   -0.25489959710416804     
   7.9500000000000001E-002   -0.44629372954340801     
   7.9800000000000010E-002   -0.62071779292366724     
   8.0100000000000018E-002   -0.76546649010338952     
   8.0399999999999999E-002   -0.86956016795686064     
   8.0700000000000008E-002   -0.92429905112108168     
   8.1000000000000003E-002   -0.92405103671319988     
   8.1299999999999997E-002   -0.86672453804236727     
   8.1600000000000006E-002   -0.75371758213030970     
   8.1900000000000014E-002   -0.59002629027756914     
   8.2199999999999995E-002   -0.38381915181228571     
   8.2500000000000004E-002   -0.14588170245799645     
   8.2799999999999999E-002    0.11096283283076580     
   8.3100000000000007E-002    0.37282669009911623     
   8.3400000000000002E-002    0.62577835565008944     
   8.3700000000000011E-002    0.85645436293406552     
   8.4000000000000005E-002     1.0532345176116740     
   8.4300000000000000E-002     1.2066256470018319     
   8.4599999999999995E-002     1.3100647430338310     
   8.4900000000000003E-002     1.3601266843701036     
   8.5199999999999998E-002     1.3566446974037543     
   8.5500000000000007E-002     1.3025999684571985     
   8.5800000000000001E-002     1.2036743704113992     
   8.6100000000000010E-002     1.0679368231386450     
   8.6399999999999991E-002    0.90490714272048167     
   8.6699999999999999E-002    0.72509976801263065     
   8.7000000000000008E-002    0.53891249142580511     
   8.7300000000000003E-002    0.35615635722423633     
   8.7599999999999997E-002    0.18512645469805952     
   8.7900000000000006E-002     3.2364781223394180E-002
   8.8200000000000014E-002    -9.7904124387252128E-002
   8.8499999999999995E-002   -0.20407099653188057     
   8.8800000000000004E-002   -0.28676833010428204     
   8.9100000000000013E-002   -0.34903378683748604     
   8.9399999999999993E-002   -0.39562262568942730     
   8.9700000000000002E-002   -0.43253694538067322     
   9.0000000000000011E-002   -0.46641497519265968     
   9.0299999999999991E-002   -0.50372060074240799     
   9.0600000000000000E-002   -0.54995604616419536     
   9.0900000000000009E-002   -0.60906597671121954     
   9.1200000000000017E-002   -0.68294015759306337     
   9.1499999999999998E-002   -0.77084366328553544     
   9.1800000000000007E-002   -0.86954651777781222     
   9.2100000000000001E-002   -0.97327046752813051     
   9.2399999999999996E-002    -1.0741912699083584     
   9.2700000000000005E-002    -1.1631560947829498     
   9.3000000000000013E-002    -1.2303413808956507     
   9.3300000000000008E-002    -1.2664875462706431     
   9.3600000000000003E-002    -1.2638923592219919     
   9.3899999999999997E-002    -1.2171229753915271     
   9.4200000000000006E-002    -1.1240777351004052     
   9.4500000000000001E-002   -0.98613636683226835     
   9.4800000000000009E-002   -0.80872629120896100     
   9.5100000000000004E-002   -0.60058382112474906     
   9.5399999999999999E-002   -0.37344716817990520     
   9.5699999999999993E-002   -0.14101136456342722     
   9.6000000000000002E-002     8.2481178421112619E-002
   9.6300000000000011E-002    0.28314946218411263     
   9.6600000000000005E-002    0.44916527233025971     
   9.6900000000000000E-002    0.57166220900732012     
   9.7200000000000009E-002    0.64573260451867498     
   9.7499999999999989E-002    0.67066057739292606     
   9.7799999999999998E-002    0.65021904244298545     
   9.8100000000000007E-002    0.59209741664434390     
   9.8400000000000015E-002    0.50704963027224725     
   9.8699999999999996E-002    0.40780655075681599     
   9.9000000000000005E-002    0.30777818086915071     
   9.9300000000000013E-002    0.21945205189805592     
   9.9599999999999994E-002    0.15347954424184448     
   9.9900000000000003E-002    0.11711566842510059     
  0.10020000000000001         0.11390641659856039     
  0.10049999999999999         0.14343322244771203     
  0.10080000000000000         0.20109293050358243     
  0.10110000000000001         0.27925633943152600     
  0.10140000000000000         0.36774138070899876     
  0.10170000000000000         0.45529864545863669     
  0.10200000000000001         0.53064452659697336     
  0.10230000000000002         0.58378439743476529     
  0.10260000000000000         0.60687053108007039     
  0.10290000000000001         0.59489703106514558     
  0.10320000000000000         0.54618167540990581     
  0.10350000000000001         0.46183355751803296     
  0.10380000000000000         0.34578998168104463     
  0.10410000000000001         0.20394791887767008     
  0.10440000000000001          4.3322717032846660E-002
  0.10470000000000000        -0.12839510417300329     
  0.10500000000000000        -0.30383724783339122     
  0.10530000000000000        -0.47614385952584670     
  0.10560000000000000        -0.63904545387602618     
  0.10590000000000001        -0.78739433493675581     
  0.10620000000000000        -0.91608095351174768     
  0.10650000000000001         -1.0204317089765853     
  0.10679999999999999         -1.0956798386296940     
  0.10710000000000000         -1.1367697356366036     
  0.10740000000000001         -1.1385768306673500     
  0.10770000000000000         -1.0963233343331023     
  0.10800000000000000         -1.0059294276938300     
  0.10830000000000001        -0.86494077023274896     
  0.10859999999999999        -0.67358177366494987     
  0.10890000000000000        -0.43508351670624340     
  0.10920000000000001        -0.15667693751098041     
  0.10950000000000001         0.15043886124463429     
  0.10979999999999999         0.47140925367412095     
  0.11009999999999999         0.78796385023604176     
  0.11040000000000001          1.0800474301761467     
  0.11070000000000001          1.3272864392685089     
  0.11100000000000000          1.5104087277369318     
  0.11130000000000000          1.6134812579470037     
  0.11160000000000002          1.6254763356693622     
  0.11190000000000001          1.5412351787055643     
  0.11220000000000001          1.3626863551804484     
  0.11250000000000000          1.0992396511352596     
  0.11280000000000000         0.76653139231171541     
  0.11309999999999999         0.38651364299039059     
  0.11340000000000001         -1.5062334336593021E-002
  0.11369999999999998        -0.41046851145930879     
  0.11400000000000000        -0.77162723035581005     
  0.11430000000000000         -1.0733146069555723     
  0.11460000000000002         -1.2942273141756830     
  0.11489999999999999         -1.4193971945860462     
  0.11520000000000001         -1.4407617658721352     
  0.11550000000000001         -1.3581339887643307     
  0.11580000000000000         -1.1785566292198231     
  0.11609999999999999        -0.91618978467998491     
  0.11640000000000002        -0.59050075031820581     
  0.11670000000000001        -0.22479035376552328     
  0.11700000000000001         0.15527319983202328     
  0.11730000000000000         0.52439202917575489     
  0.11760000000000000         0.85898409189647773     
  0.11789999999999999          1.1388639759987211     
  0.11820000000000001          1.3489655936071678     
  0.11850000000000001          1.4794256271201285     
  0.11880000000000000          1.5264827847262872     
  0.11910000000000000          1.4926504751975829     
  0.11940000000000002          1.3851219062176188     
  0.11970000000000001          1.2162448957338643     
  0.12000000000000001          1.0011130091087759     
  0.12030000000000000         0.75694561156440099     
  0.12060000000000000         0.50166367469617257     
  0.12089999999999999         0.25216213569697982     
  0.12119999999999999          2.3475592613589433E-002
  0.12150000000000001        -0.17231321702622368     
  0.12180000000000001        -0.32643154313160189     
  0.12210000000000000        -0.43415124313984882     
  0.12239999999999999        -0.49402751479976942     
  0.12270000000000002        -0.50847199172941859     
  0.12300000000000001        -0.48205745252472504     
  0.12330000000000001        -0.42176768400340425     
  0.12360000000000000        -0.33555865460469103     
  0.12390000000000000        -0.23150961008287954     
  0.12419999999999999        -0.11781591380772923     
  0.12450000000000001         -1.4807080361291520E-003
  0.12480000000000001         0.11124544227286609     
  0.12509999999999999         0.21510825723817012     
  0.12540000000000001         0.30574906335660290     
  0.12570000000000003         0.37924982329484203     
  0.12600000000000000         0.43160446352249371     
  0.12630000000000002         0.45884826137951684     
  0.12659999999999999         0.45656832692116456     
  0.12690000000000001         0.42011817960028008     
  0.12719999999999998         0.34507694260465982     
  0.12750000000000000         0.22785671419297329     
  0.12780000000000002          6.6307107725529515E-002
  0.12809999999999999        -0.13912734510933192     
  0.12840000000000001        -0.38497798156158758     
  0.12869999999999998        -0.66360876049016571     
  0.12900000000000000        -0.96363418078321761     
  0.12930000000000003         -1.2696161914670447     
  0.12959999999999999         -1.5627948851458158     
  0.12990000000000002         -1.8226295465784503     
  0.13019999999999998         -2.0276912318424811     
  0.13050000000000000         -2.1584340273829992     
  0.13080000000000003         -2.1980236732275422     
  0.13109999999999999         -2.1350608998245568     
  0.13140000000000002         -1.9645345060130446     
  0.13169999999999998         -1.6890984484038576     
  0.13200000000000001         -1.3191710233645300     
  0.13229999999999997        -0.87261657825925454     
  0.13260000000000000        -0.37386220049776675     
  0.13290000000000002         0.14820337644527767     
  0.13319999999999999         0.66160604379883492     
  0.13350000000000001          1.1348776173435691     
  0.13380000000000003          1.5384403037697192     
  0.13410000000000000          1.8477058150078185     
  0.13440000000000002          2.0444568248339183     
  0.13469999999999999          2.1185547017788973     
  0.13500000000000001          2.0688263071281781     
  0.13529999999999998          1.9025361359231565     
  0.13560000000000000          1.6354525977577308     
  0.13590000000000002          1.2900697712626517     
  0.13619999999999999         0.89437573407141457     
  0.13650000000000001         0.47929266210851484     
  0.13680000000000003          7.6878997134623803E-002
  0.13710000000000000        -0.28179872971428616     
  0.13740000000000002        -0.56913402241844169     
  0.13769999999999999        -0.76197854407036525     
  0.13800000000000001        -0.84408943216342092     
  0.13829999999999998        -0.80600653484097662     
  0.13860000000000000        -0.64645472983619479     
  0.13890000000000002        -0.37231269152768715     
  0.13919999999999999          2.0861358652933164E-003
  0.13950000000000001         0.45451871622137868     
  0.13979999999999998         0.95730302153131686     
  0.14010000000000000          1.4774153816810334     
  0.14040000000000002          1.9786672223106527     
  0.14069999999999999          2.4237826909833449     
  0.14100000000000001          2.7760716699793226     
  0.14130000000000004          3.0024229433241536     
  0.14160000000000000          3.0746070345903616     
  0.14189999999999997          2.9726215779937983     
  0.14219999999999999          2.6853603203139222     
  0.14250000000000002          2.2129827636746029     
  0.14279999999999998          1.5672573689059934     
  0.14310000000000000         0.77135627702152187     
  0.14339999999999997        -0.14026437662057401     
  0.14369999999999999         -1.1241731890536888     
  0.14400000000000002         -2.1301584903959272     
  0.14429999999999998         -3.1038521401358428     
  0.14460000000000001         -3.9908262741260927     
  0.14490000000000003         -4.7396714075049360     
  0.14520000000000000         -5.3054034362518507     
  0.14550000000000002         -5.6532928785296752     
  0.14579999999999999         -5.7599961700844400     
  0.14610000000000001         -5.6168053105895126     
  0.14640000000000003         -5.2287323353122641     
  0.14670000000000000         -4.6153194620851945     
  0.14699999999999996         -3.8089456038964320     
  0.14729999999999999         -2.8525005954029283     
  0.14760000000000001         -1.7971689734092879     
  0.14789999999999998        -0.69804426624570914     
  0.14820000000000000         0.38771928571409398     