  -1.4999999999999999E-002     0.0000000000000000     
  -1.4700000000000000E-002    -3.0515702250157829E-012
  -1.4400000000000000E-002    -4.0706885019069208E-010
  -1.4100000000000000E-002     9.9973439201025272E-010
  -1.3800000000000000E-002     1.3560637798697022E-008
  -1.3500000000000000E-002    -6.4339392528804459E-009
  -1.3200000000000000E-002    -6.4205455558101811E-008
  -1.2899999999999998E-002    -7.3655357274106563E-008
  -1.2600000000000000E-002     1.2308732767806794E-007
  -1.2299999999999998E-002     3.4323705477983920E-007
  -1.2000000000000000E-002     1.8783897753269851E-007
  -1.1699999999999999E-002    -4.7920982363470249E-007
  -1.1399999999999999E-002    -1.5385726430824152E-006
  -1.1099999999999999E-002    -3.3677169228041731E-007
  -1.0799999999999999E-002     1.8084704692334764E-006
  -1.0499999999999999E-002     3.1526348916874716E-006
  -1.0199999999999999E-002     1.8547082507238395E-006
  -9.8999999999999991E-003    -2.9459105100831420E-006
  -9.5999999999999992E-003    -8.2234679899834704E-006
  -9.2999999999999992E-003    -6.1526375725540897E-006
  -8.9999999999999993E-003     5.9678746743455991E-006
  -8.6999999999999994E-003     1.1736068118091082E-005
  -8.3999999999999995E-003     1.1565422680328081E-005
  -8.0999999999999996E-003     1.8141023744245158E-006
  -7.7999999999999988E-003    -1.6748197300921043E-005
  -7.4999999999999997E-003    -1.9478577049556669E-005
  -7.1999999999999998E-003    -4.4759309540086220E-006
  -6.8999999999999981E-003     1.9067015451568396E-005
  -6.5999999999999982E-003     3.0298099293164105E-005
  -6.3000000000000000E-003     4.1175927393757090E-005
  -6.0000000000000001E-003     4.0993944158405022E-005
  -5.6999999999999985E-003     4.0208873800342059E-005
  -5.3999999999999986E-003     3.6949836343577592E-005
  -5.1000000000000004E-003     1.7257365739245948E-005
  -4.7999999999999987E-003    -4.0277583991375170E-005
  -4.5000000000000005E-003    -1.0980498103115169E-004
  -4.1999999999999989E-003    -1.7547221882446780E-004
  -3.8999999999999990E-003    -2.5036713808029956E-004
  -3.5999999999999990E-003    -3.8249642001909938E-004
  -3.2999999999999991E-003    -6.4998887807446090E-004
  -2.9999999999999992E-003    -1.1837199256709116E-003
  -2.6999999999999993E-003    -2.1233592536915990E-003
  -2.3999999999999994E-003    -3.6257044013545767E-003
  -2.0999999999999977E-003    -5.9924519612570733E-003
  -1.7999999999999995E-003    -9.5789334154062801E-003
  -1.4999999999999979E-003    -1.4880894335507227E-002
  -1.1999999999999997E-003    -2.2435030811271697E-002
  -8.9999999999999976E-004    -3.3086196791797411E-002
  -5.9999999999999810E-004    -4.7855758897232627E-002
  -2.9999999999999992E-004    -6.8081448408088510E-002
   0.0000000000000000         -9.5313686502813938E-002
   3.0000000000000165E-004   -0.13151920298906572     
   5.9999999999999984E-004   -0.17887659986754692     
   9.0000000000000149E-004   -0.23987876693466170     
   1.2000000000000031E-003   -0.31716815698146622     
   1.5000000000000013E-003   -0.41378731894217163     
   1.8000000000000030E-003   -0.53288926403768033     
   2.1000000000000012E-003   -0.67759211985638257     
   2.3999999999999994E-003   -0.85120042741747659     
   2.7000000000000010E-003    -1.0566850012862901     
   2.9999999999999992E-003    -1.2968546504212910     
   3.3000000000000008E-003    -1.5739530721410098     
   3.6000000000000025E-003    -1.8900351955882744     
   3.9000000000000007E-003    -2.2457342598455101     
   4.2000000000000023E-003    -2.6402733770400006     
   4.5000000000000005E-003    -3.0704532073199915     
   4.7999999999999987E-003    -3.5305631478031101     
   5.1000000000000004E-003    -4.0112047370026529     
   5.4000000000000020E-003    -4.4975738491627011     
   5.7000000000000037E-003    -4.9689821881272431     
   5.9999999999999984E-003    -5.3966945929438817     
   6.3000000000000000E-003    -5.7444652408208894     
   6.6000000000000017E-003    -5.9660576180855349     
   6.9000000000000034E-003    -6.0078842899302982     
   7.2000000000000015E-003    -5.8085257725463482     
   7.5000000000000032E-003    -5.3028508825576406     
   7.8000000000000014E-003    -4.4260960789357213     
   8.0999999999999996E-003    -3.1193629183587928     
   8.4000000000000012E-003    -1.3378526746918611     
   8.7000000000000029E-003    0.94221940313017938     
   9.0000000000000011E-003     3.7136257707562947     
   9.2999999999999992E-003     6.9325206524571055     
   9.6000000000000009E-003     10.511704598161987     
   9.8999999999999991E-003     14.318676007776803     
   1.0200000000000001E-002     18.176833953315132     
   1.0500000000000002E-002     21.871137282508496     
   1.0800000000000004E-002     25.160190055840740     
   1.1099999999999999E-002     27.790000205844969     
   1.1400000000000000E-002     29.515179715507102     
   1.1700000000000002E-002     30.118121101111782     
   1.2000000000000004E-002     29.432156437120561     
   1.2300000000000002E-002     27.359213681794763     
   1.2600000000000000E-002     23.885651484310841     
   1.2900000000000002E-002     19.092062955419802     
   1.3200000000000000E-002     13.152411638716018     
   1.3500000000000002E-002     6.3283371209689889     
   1.3800000000000003E-002    -1.0457022598139494     
   1.4100000000000001E-002    -8.5868587340619662     
   1.4400000000000000E-002    -15.889431637162030     
   1.4700000000000001E-002    -22.556495062151775     
   1.4999999999999999E-002    -28.228297326703835     
   1.5300000000000001E-002    -32.612894896333259     
   1.5600000000000003E-002    -35.502321933424348     
   1.5899999999999997E-002    -36.793230666612224     
   1.6199999999999999E-002    -36.485296850072274     
   1.6500000000000001E-002    -34.683733646250992     
   1.6800000000000002E-002    -31.582022493522899     
   1.7100000000000004E-002    -27.445607182814324     
   1.7400000000000006E-002    -22.586404051887108     
   1.7700000000000000E-002    -17.336806731675704     
   1.8000000000000002E-002    -12.021856024224324     
   1.8300000000000004E-002    -6.9365791710957270     
   1.8600000000000005E-002    -2.3249377325567062     
   1.8900000000000000E-002     1.6324183054304440     
   1.9200000000000002E-002     4.8276138403568005     
   1.9500000000000003E-002     7.2215689713981250     
   1.9799999999999998E-002     8.8419412073856485     
   2.0100000000000000E-002     9.7708666998228626     
   2.0400000000000001E-002     10.126999218912895     
   2.0700000000000003E-002     10.056357739506188     
   2.0999999999999998E-002     9.7064966530614178     
   2.1299999999999999E-002     9.2198939410782508     
   2.1600000000000001E-002     8.7163968947667936     
   2.1900000000000003E-002     8.2864834514793930     
   2.2200000000000004E-002     7.9862644652796915     
   2.2500000000000006E-002     7.8355763586935234     
   2.2800000000000001E-002     7.8238500332631116     
   2.3100000000000002E-002     7.9095563103539659     
   2.3400000000000004E-002     8.0368871215431081     
   2.3699999999999999E-002     8.1329183318551603     
   2.4000000000000000E-002     8.1285552842051487     
   2.4300000000000002E-002     7.9587082782468883     
   2.4599999999999997E-002     7.5712637837229968     
   2.4900000000000005E-002     6.9369501994087770     
   2.5200000000000000E-002     6.0442743222477651     
   2.5499999999999995E-002     4.9111728597573956     
   2.5800000000000003E-002     3.5743329496541811     
   2.6099999999999998E-002     2.0941572237675690     
   2.6400000000000007E-002    0.54383422612481469     
   2.6700000000000002E-002   -0.99242421753129961     
   2.6999999999999996E-002    -2.4273550009057878     
   2.7300000000000005E-002    -3.6799585119739016     
   2.7600000000000000E-002    -4.6779984532005772     
   2.7900000000000008E-002    -5.3684653156622044     
   2.8200000000000003E-002    -5.7177075108010698     
   2.8499999999999998E-002    -5.7177885619871471     
   2.8800000000000006E-002    -5.3843854453493023     
   2.9100000000000001E-002    -4.7560699961319504     
   2.9400000000000003E-002    -3.8920637200536299     
   2.9700000000000004E-002    -2.8640166454979599     
   3.0000000000000006E-002    -1.7559977845957100     
   3.0300000000000001E-002   -0.64977523254520220     
   3.0600000000000002E-002    0.37325631034485207     
   3.0900000000000004E-002     1.2445165453298153     
   3.1199999999999999E-002     1.9091028307718632     
   3.1500000000000007E-002     2.3299737124418054     
   3.1800000000000002E-002     2.4909353244119452     
   3.2099999999999997E-002     2.3952841619966496     
   3.2400000000000005E-002     2.0652205716359160     
   3.2700000000000000E-002     1.5393697939633972     
   3.3000000000000002E-002    0.86971238378831628     
   3.3300000000000003E-002    0.11524255977948439     
   3.3599999999999998E-002   -0.65924652438830011     
   3.3900000000000000E-002    -1.3921518445611376     
   3.4200000000000001E-002    -2.0250899818867119     
   3.4500000000000003E-002    -2.5107357431802222     
   3.4799999999999998E-002    -2.8127667746234053     
   3.5099999999999999E-002    -2.9116906889538723     
   3.5400000000000001E-002    -2.8018548212342251     
   3.5699999999999996E-002    -2.4952966873657365     
   3.6000000000000004E-002    -2.0177905282113224     
   3.6299999999999999E-002    -1.4071558485609896     
   3.6600000000000008E-002   -0.71192483556673314     
   3.6900000000000002E-002     1.7484062963664258E-002
   3.7199999999999997E-002    0.72533279070554335     
   3.7500000000000006E-002     1.3639454661420225     
   3.7800000000000000E-002     1.8879763785522394     
   3.8100000000000009E-002     2.2660331324883844     
   3.8400000000000004E-002     2.4758226383717004     
   3.8699999999999998E-002     2.5097870275369565     
   3.9000000000000007E-002     2.3726591475613228     
   3.9300000000000002E-002     2.0807306170077751     
   3.9600000000000003E-002     1.6609901804893143     
   3.9900000000000005E-002     1.1471363967739336     
   4.0200000000000000E-002    0.57831235081108223     
   4.0500000000000001E-002    -5.4821689880366117E-003
   4.0800000000000003E-002   -0.56443431734206528     
   4.1100000000000005E-002    -1.0636125968990224     
   4.1399999999999999E-002    -1.4724425136798265     
   4.1700000000000008E-002    -1.7690248447188355     
   4.2000000000000003E-002    -1.9389980901621517     
   4.2299999999999997E-002    -1.9776495494778406     
   4.2600000000000006E-002    -1.8885249843105074     
   4.2900000000000001E-002    -1.6839861596594654     
   4.3200000000000002E-002    -1.3825053895670354     
   4.3500000000000004E-002    -1.0087872492888874     
   4.3799999999999999E-002   -0.59055385866032861     
   4.4100000000000000E-002   -0.15627437775401748     
   4.4400000000000002E-002    0.26439900136778921     
   4.4700000000000004E-002    0.64727264907957349     
   4.4999999999999998E-002    0.96993261214822046     
   4.5300000000000000E-002     1.2164733318786454     
   4.5600000000000002E-002     1.3775377135449447     
   4.5899999999999996E-002     1.4477387495866982     
   4.6200000000000005E-002     1.4306890769945435     
   4.6500000000000000E-002     1.3312338388059675     
   4.6799999999999994E-002     1.1617407595515052     
   4.7100000000000003E-002    0.93342934149692369     
   4.7399999999999998E-002    0.66310576911786390     
   4.7700000000000006E-002    0.36556144220689685     
   4.8000000000000001E-002     5.7314618119002424E-002
   4.8300000000000010E-002   -0.24600932317470239     
   4.8600000000000004E-002   -0.53004890305638530     
   4.8899999999999999E-002   -0.77938370756487640     
   4.9200000000000008E-002   -0.98228631394937616     
   4.9500000000000002E-002    -1.1256056736500464     
   4.9800000000000011E-002    -1.2005539759145329     
   5.0100000000000006E-002    -1.1986645013281276     
   5.0400000000000000E-002    -1.1163573953659620     
   5.0700000000000009E-002   -0.95273620527557490     
   5.1000000000000004E-002   -0.71255577280293381     
   5.1299999999999998E-002   -0.40521274087381920     
   5.1600000000000007E-002    -4.5134916989126764E-002
   5.1900000000000002E-002    0.34690204234226424     
   5.2200000000000010E-002    0.74868072566388599     
   5.2500000000000005E-002     1.1328791363903388     
   5.2800000000000000E-002     1.4731496382488554     
   5.3099999999999994E-002     1.7438664078267834     
   5.3400000000000003E-002     1.9227377863248922     
   5.3699999999999998E-002     1.9938264466369979     
   5.4000000000000006E-002     1.9477295187556991     
   5.4300000000000001E-002     1.7844125518179395     
   5.4599999999999996E-002     1.5115298555663079     
   5.4900000000000004E-002     1.1465449942355497     
   5.5199999999999999E-002    0.71254773408222039     
   5.5499999999999994E-002    0.24007204294044077     
   5.5800000000000002E-002   -0.23922937641335265     
   5.6099999999999997E-002   -0.69272016631385280     
   5.6400000000000006E-002    -1.0896173456850566     
   5.6700000000000000E-002    -1.4054134676125927     
   5.6999999999999995E-002    -1.6211361365289143     
   5.7300000000000004E-002    -1.7273553020957899     
   5.7599999999999998E-002    -1.7225204094642650     
   5.7900000000000007E-002    -1.6140281562610366     
   5.8200000000000002E-002    -1.4159838621820122     
   5.8499999999999996E-002    -1.1491281542944902     
   5.8800000000000005E-002   -0.83660027027192485     
   5.9100000000000000E-002   -0.50371161931169017     
   5.9400000000000008E-002   -0.17454842255187775     
   5.9700000000000003E-002    0.12943586571340243     
   6.0000000000000012E-002    0.39058666326362440     
   6.0300000000000006E-002    0.59647671493571852     
   6.0600000000000001E-002    0.73958775932735166     
   6.0900000000000010E-002    0.81788948319578925     
   6.1200000000000004E-002    0.83303472354308317     
   6.1500000000000013E-002    0.79221346881719878     
   6.1800000000000008E-002    0.70344796793642395     
   6.2100000000000002E-002    0.57876667596966602     
   6.2399999999999997E-002    0.42944905670743794     
   6.2700000000000006E-002    0.26831937697506092     
   6.3000000000000000E-002    0.10748512045904587     
   6.3300000000000009E-002    -4.2928790973670534E-002
   6.3600000000000004E-002   -0.17287523504072227     
   6.3899999999999998E-002   -0.27609283303538162     
   6.4199999999999993E-002   -0.34735495098738195     
   6.4500000000000002E-002   -0.38509461253223959     
   6.4800000000000010E-002   -0.38963639490374025     
   6.5100000000000005E-002   -0.36408984266296807     
   6.5400000000000000E-002   -0.31372788059639939     
   6.5700000000000008E-002   -0.24509745315887269     
   6.5999999999999989E-002   -0.16663276622715339     
   6.6299999999999998E-002    -8.5794384339674359E-002
   6.6600000000000006E-002    -1.1166174984325504E-002
   6.6900000000000001E-002     5.0961852508282710E-002
   6.7199999999999996E-002     9.5144707779355700E-002
   6.7500000000000004E-002    0.11715233695508778     
   6.7800000000000013E-002    0.11622266080354811     
   6.8099999999999994E-002     9.2064011718587010E-002
   6.8400000000000002E-002     4.7032430805012154E-002
   6.8700000000000011E-002    -1.4861883477044266E-002
   6.8999999999999992E-002    -8.9365545301342289E-002
   6.9300000000000000E-002   -0.16990749111050987     
   6.9600000000000009E-002   -0.25009399212841105     
   6.9900000000000004E-002   -0.32366674674013080     
   7.0199999999999999E-002   -0.38402938364342531     
   7.0500000000000007E-002   -0.42617886762242257     
   7.0800000000000016E-002   -0.44514333695914454     
   7.1099999999999997E-002   -0.43840398872259728     
   7.1400000000000005E-002   -0.40433239447185521     
   7.1700000000000000E-002   -0.34458899026168233     
   7.1999999999999995E-002   -0.26098793332541936     
   7.2300000000000003E-002   -0.15843480491149009     
   7.2600000000000012E-002    -4.3328413060184916E-002
   7.2900000000000006E-002     7.8444601390229740E-002
   7.3200000000000001E-002    0.19804844284802509     
   7.3499999999999996E-002    0.30932274361509360     
   7.3800000000000004E-002    0.40499511158324147     
   7.4099999999999999E-002    0.48041191392853760     
   7.4400000000000008E-002    0.53112977376846449     
   7.4700000000000003E-002    0.55619740056882161     
   7.5000000000000011E-002    0.55468272705861610     
   7.5299999999999992E-002    0.52830761208941879     
   7.5600000000000001E-002    0.48038491139124623     
   7.5900000000000009E-002    0.41392781898108977     
   7.6200000000000004E-002    0.33480399436862202     
   7.6499999999999999E-002    0.24696667134088776     
   7.6800000000000007E-002    0.15606809843004527     
   7.7099999999999988E-002     6.6762713115146338E-002
   7.7399999999999997E-002    -1.6285421256425386E-002
   7.7700000000000005E-002    -8.9473948921429070E-002
   7.8000000000000014E-002   -0.14913760159522646     
   7.8299999999999995E-002   -0.19350814781346545     
   7.8600000000000003E-002   -0.22116567091652503     
   7.8900000000000012E-002   -0.23180654497151537     
   7.9199999999999993E-002   -0.22659797779988589     
   7.9500000000000001E-002   -0.20716963502561023     
   7.9800000000000010E-002   -0.17629059947391970     
   8.0100000000000018E-002   -0.13776491389568327     
   8.0399999999999999E-002    -9.4865886765863175E-002
   8.0700000000000008E-002    -5.2018778947435944E-002
   8.1000000000000003E-002    -1.2247995530238370E-002
   8.1299999999999997E-002     2.0888707223317381E-002
   8.1600000000000006E-002     4.5648221105765989E-002
   8.1900000000000014E-002     6.0270666979153266E-002
   8.2199999999999995E-002     6.4218848703667508E-002
   8.2500000000000004E-002     5.8261662271375823E-002
   8.2799999999999999E-002     4.2794379908067844E-002
   8.3100000000000007E-002     2.0087580685928513E-002
   8.3400000000000002E-002    -8.5643486488979140E-003
   8.3700000000000011E-002    -4.0849294675613858E-002
   8.4000000000000005E-002    -7.4685431956775516E-002
   8.4300000000000000E-002   -0.10824655705222389     
   8.4599999999999995E-002   -0.13957469100875738     
   8.4900000000000003E-002   -0.16699989044932226     
   8.5199999999999998E-002   -0.18931715067461696     
   8.5500000000000007E-002   -0.20551763330829873     
   8.5800000000000001E-002   -0.21481668793767661     
   8.6100000000000010E-002   -0.21650352925593722     
   8.6399999999999991E-002   -0.21101018643830299     
   8.6699999999999999E-002   -0.19782264426052673     
   8.7000000000000008E-002   -0.17827548005966262     
   8.7300000000000003E-002   -0.15195174490006291     
   8.7599999999999997E-002   -0.12089908880172924     
   8.7900000000000006E-002    -8.5427262484958050E-002
   8.8200000000000014E-002    -4.7213216372509068E-002
   8.8499999999999995E-002    -7.5331729597568967E-003
   8.8800000000000004E-002     3.2452391744816726E-002
   8.9100000000000013E-002     7.0672212378489210E-002
   8.9399999999999993E-002    0.10637189263683022     
   8.9700000000000002E-002    0.13714466811883602     
   9.0000000000000011E-002    0.16235843117199389     
   9.0299999999999991E-002    0.17982230916401384     
   9.0600000000000000E-002    0.18972307285945292     
   9.0900000000000009E-002    0.19073782728112823     
   9.1200000000000017E-002    0.18357130774899039     
   9.1499999999999998E-002    0.16873447516412896     
   9.1800000000000007E-002    0.14771653666794110     
   9.2100000000000001E-002    0.12273016552950999     
   9.2399999999999996E-002     9.5826588734732890E-002
   9.2700000000000005E-002     6.9986492709753559E-002
   9.3000000000000013E-002     4.7018979207980982E-002
   9.3300000000000008E-002     2.9275237082899908E-002
   9.3600000000000003E-002     1.7503930665907025E-002
   9.3899999999999997E-002     1.3164022147919920E-002
   9.4200000000000006E-002     1.4868604036140218E-002
   9.4500000000000001E-002     2.2508088228872295E-002
   9.4800000000000009E-002     3.3869560351826464E-002
   9.5100000000000004E-002     4.7054711189412811E-002
   9.5399999999999999E-002     6.0318245841098704E-002
   9.5699999999999993E-002     7.0938765448502250E-002
   9.6000000000000002E-002     7.7724098722463136E-002
   9.6300000000000011E-002     7.9329155026998388E-002
   9.6600000000000005E-002     7.4478782592228551E-002
   9.6900000000000000E-002     6.3766047320948399E-002
   9.7200000000000009E-002     4.6851366859210972E-002
   9.7499999999999989E-002     2.4616213739726080E-002
   9.7799999999999998E-002    -1.3440253875342035E-003
   9.8100000000000007E-002    -3.0093501882328757E-002
   9.8400000000000015E-002    -5.9321522330816459E-002
   9.8699999999999996E-002    -8.7811119254759984E-002
   9.9000000000000005E-002   -0.11270739073891692     
   9.9300000000000013E-002   -0.13334625861648447     
   9.9599999999999994E-002   -0.14674743907296497     
   9.9900000000000003E-002   -0.15304858850518735     
  0.10020000000000001        -0.15023726086191103     
  0.10049999999999999        -0.13915331516996216     
  0.10080000000000000        -0.12028039096370015     
  0.10110000000000001         -9.4066141682352472E-002
  0.10140000000000000         -6.3219575704298925E-002
  0.10170000000000000         -2.9046718681105598E-002
  0.10200000000000001          5.2464807146253975E-003
  0.10230000000000002          3.7686460907488693E-002
  0.10260000000000000          6.5817372236344443E-002
  0.10290000000000001          8.7781147457749384E-002
  0.10320000000000000         0.10186388480157522     
  0.10350000000000001         0.10708277064551627     
  0.10380000000000000         0.10267751795205128     
  0.10410000000000001          8.8832625296182147E-002
  0.10440000000000001          6.5561667884742297E-002
  0.10470000000000000          3.4452107037763698E-002
  0.10500000000000000         -3.9577551994764556E-003
  0.10530000000000000         -4.6793804525453682E-002
  0.10560000000000000         -9.2364558603479613E-002
  0.10590000000000001        -0.13756829707989723     
  0.10620000000000000        -0.17919504905661776     
  0.10650000000000001        -0.21487014276903027     
  0.10679999999999999        -0.24006121182961038     
  0.10710000000000000        -0.25376728493505746     
  0.10740000000000001        -0.25235817163065116     
  0.10770000000000000        -0.23570816528034103     
  0.10800000000000000        -0.20295737974666772     
  0.10830000000000001        -0.15500560666811630     
  0.10859999999999999         -9.3778441073926341E-002
  0.10890000000000000         -2.1784763647625324E-002
  0.10920000000000001          5.7253095176377111E-002
  0.10950000000000001         0.13988763056396292     
  0.10979999999999999         0.22182412494779521     
  0.11009999999999999         0.29958641663271990     
  0.11040000000000001         0.36946642619022713     
  0.11070000000000001         0.42854625282942116     
  0.11100000000000000         0.47443050503282397     
  0.11130000000000000         0.50538701210239889     
  0.11160000000000002         0.52007145102807872     
  0.11190000000000001         0.51884884027392475     
  0.11220000000000001         0.50055617456871315     
  0.11250000000000000         0.46767583775593002     
  0.11280000000000000         0.42005497446239526     
  0.11309999999999999         0.36090514203123503     
  0.11340000000000001         0.29182651701037859     
  0.11369999999999998         0.21598204959939890     
  0.11400000000000000         0.13640881993061565     
  0.11430000000000000          5.5736376524376574E-002
  0.11460000000000002         -2.2550052003406214E-002
  0.11489999999999999         -9.6614601318298479E-002
  0.11520000000000001        -0.16392114991089898     
  0.11550000000000001        -0.22332252802961583     
  0.11580000000000000        -0.27378487823653408     
  0.11609999999999999        -0.31504854776707314     
  0.11640000000000002        -0.34745472854034470     
  0.11670000000000001        -0.37169036405294681     
  0.11700000000000001        -0.38825947131697708     
  0.11730000000000000        -0.39888197189957758     
  0.11760000000000000        -0.40309166865163826     
  0.11789999999999999        -0.40358301871028357     
  0.11820000000000001        -0.39927863916282857     
  0.11850000000000001        -0.39285310895048076     
  0.11880000000000000        -0.38343536638482750     
  0.11910000000000000        -0.37214496531409597     
  0.11940000000000002        -0.36011326126299836     
  0.11970000000000001        -0.34628802420519217     
  0.12000000000000001        -0.33296000875619469     
  0.12030000000000000        -0.31805652382726440     
  0.12060000000000000        -0.30369979189075413     
  0.12089999999999999        -0.28810295572971967     
  0.12119999999999999        -0.27184191500631288     
  0.12150000000000001        -0.25455224695236223     
  0.12180000000000001        -0.23542545951610833     
  0.12210000000000000        -0.21553087448280719     
  0.12239999999999999        -0.19340491535346557     
  0.12270000000000002        -0.17102703678747119     
  0.12300000000000001        -0.14780296620456365     
  0.12330000000000001        -0.12490177385667048     
  0.12360000000000000        -0.10332334254336534     
  0.12390000000000000         -8.2592802402656235E-002
  0.12419999999999999         -6.4627179784287184E-002
  0.12450000000000001         -4.7694524516904417E-002
  0.12480000000000001         -3.2427710791928813E-002
  0.12509999999999999         -1.7175498458131377E-002
  0.12540000000000001         -1.1816336039811753E-003
  0.12570000000000003          1.6872880700201074E-002
  0.12600000000000000          3.9055332362818683E-002
  0.12630000000000002          6.5215654771917778E-002
  0.12659999999999999          9.7680039683664191E-002
  0.12690000000000001         0.13495238133809886     
  0.12719999999999998         0.17783960687574160     
  0.12750000000000000         0.22437171617975610     
  0.12780000000000002         0.27340403166719063     
  0.12809999999999999         0.32274827318902100     
  0.12840000000000001         0.36970317322289081     
  0.12869999999999998         0.41215768414585208     
  0.12900000000000000         0.44721859668719649     
  0.12930000000000003         0.47338250265770615     
  0.12959999999999999         0.48876783261189699     
  0.12990000000000002         0.49257168206798368     
  0.13019999999999998         0.48454496322660523     
  0.13050000000000000         0.46540680608577828     
  0.13080000000000003         0.43660047759580184     
  0.13109999999999999         0.40051564708364334     
  0.13140000000000002         0.35946524307928240     
  0.13169999999999998         0.31687551925860569     
  0.13200000000000001         0.27556455355747550     
  0.13229999999999997         0.23850254960525011     
  0.13260000000000000         0.20777096122172936     
  0.13290000000000002         0.18500821576976195     
  0.13319999999999999         0.17061992288604252     
  0.13350000000000001         0.16444953079883642     
  0.13380000000000003         0.16431263384859068     
  0.13410000000000000         0.16897854481168736     
  0.13440000000000002         0.17511672035018444     
  0.13469999999999999         0.18007654180324328     
  0.13500000000000001         0.18122694091424438     
  0.13529999999999998         0.17597198651976848     
  0.13560000000000000         0.16297321156333971     
  0.13590000000000002         0.14119991768554455     
  0.13619999999999999         0.11133303569880021     
  0.13650000000000001          7.3377796190320851E-002
  0.13680000000000003          3.0178983102218102E-002
  0.13710000000000000         -1.7304485343138550E-002
  0.13740000000000002         -6.5156496897705238E-002
  0.13769999999999999        -0.11152614639977956     
  0.13800000000000001        -0.15354731666695104     
  0.13829999999999998        -0.18895192426045396     
  0.13860000000000000        -0.21562768496256005     
  0.13890000000000002        -0.23256930668241296     
  0.13919999999999999        -0.23862947472106447     
  0.13950000000000001        -0.23392255537061479     
  0.13979999999999998        -0.21892537091104677     
  0.14010000000000000        -0.19438119137929882     
  0.14040000000000002        -0.16219279062243624     
  0.14069999999999999        -0.12403584162707505     
  0.14100000000000001         -8.2405700117813008E-002
  0.14130000000000004         -3.8903052874451789E-002
  0.14160000000000000          2.9547050156375943E-003
  0.14189999999999997          4.2681422783048102E-002
  0.14219999999999999          7.6574721082630484E-002
  0.14250000000000002         0.10472501843789508     
  0.14279999999999998         0.12494979064368020     
  0.14310000000000000         0.13717801847951586     
  0.14339999999999997         0.14089925534017675     
  0.14369999999999999         0.13601477371616277     
  0.14400000000000002         0.12349170335539916     
  0.14429999999999998         0.10313930244818811     
  0.14460000000000001          7.7239884433643491E-002
  0.14490000000000003          4.5208672468787854E-002
  0.14520000000000000          9.5613452654774080E-003
  0.14550000000000002         -2.9395589242492602E-002
  0.14579999999999999         -6.9866435141239469E-002
  0.14610000000000001        -0.11073269075877609     
  0.14640000000000003        -0.15068195870080064     
  0.14670000000000000        -0.18823132019224317     
  0.14699999999999996        -0.22281853933859369     
  0.14729999999999999        -0.25269696201426706     
  0.14760000000000001        -0.27762886962525957     
  0.14789999999999998        -0.29625916572522482     
  0.14820000000000000        -0.30840176456825796     