  -1.4999999999999999E-002     0.0000000000000000     
  -1.4700000000000000E-002     0.0000000000000000     
  -1.4400000000000000E-002     0.0000000000000000     
  -1.4100000000000000E-002     0.0000000000000000     
  -1.3800000000000000E-002     0.0000000000000000     
  -1.3500000000000000E-002     0.0000000000000000     
  -1.3200000000000000E-002     0.0000000000000000     
  -1.2899999999999998E-002     0.0000000000000000     
  -1.2600000000000000E-002     0.0000000000000000     
  -1.2299999999999998E-002     0.0000000000000000     
  -1.2000000000000000E-002     0.0000000000000000     
  -1.1699999999999999E-002     0.0000000000000000     
  -1.1399999999999999E-002     0.0000000000000000     
  -1.1099999999999999E-002     0.0000000000000000     
  -1.0799999999999999E-002     0.0000000000000000     
  -1.0499999999999999E-002     0.0000000000000000     
  -1.0199999999999999E-002     0.0000000000000000     
  -9.8999999999999991E-003     0.0000000000000000     
  -9.5999999999999992E-003     0.0000000000000000     
  -9.2999999999999992E-003     4.1019219959055360E-037
  -8.9999999999999993E-003     6.9328180767568890E-036
  -8.6999999999999994E-003    -2.5207462256770377E-035
  -8.3999999999999995E-003     1.1686305167203592E-034
  -8.0999999999999996E-003     3.7429657561598671E-034
  -7.7999999999999988E-003    -1.9801322293161834E-033
  -7.4999999999999997E-003     1.3835929400318265E-033
  -7.1999999999999998E-003     1.1490173513599419E-032
  -6.8999999999999981E-003    -9.6413381649535443E-033
  -6.5999999999999982E-003    -7.5519293346342835E-032
  -6.3000000000000000E-003     5.7395092632562133E-032
  -6.0000000000000001E-003     3.7698073718137560E-031
  -5.6999999999999985E-003    -1.0543074423129077E-031
  -5.3999999999999986E-003    -1.3310288808851372E-030
  -5.1000000000000004E-003    -1.8847929737882195E-030
  -4.7999999999999987E-003     3.1566425631204125E-030
  -4.5000000000000005E-003     2.2955598368584203E-029
  -4.1999999999999989E-003    -2.7042629405971636E-030
  -3.8999999999999990E-003    -1.5445172518208276E-028
  -3.5999999999999990E-003     1.5958277004026606E-029
  -3.2999999999999991E-003     6.2557123906293005E-028
  -2.9999999999999992E-003    -1.6913301670252316E-028
  -2.6999999999999993E-003    -1.0712914722407362E-027
  -2.3999999999999994E-003    -2.5433616840542690E-031
  -2.0999999999999977E-003    -2.5771813064334773E-027
  -1.7999999999999995E-003     1.0667030572224247E-027
  -1.4999999999999979E-003     4.7238643820150649E-026
  -1.1999999999999997E-003    -6.3908703964550559E-026
  -8.9999999999999976E-004    -1.5186725952579585E-025
  -5.9999999999999810E-004     3.8495604590036553E-025
  -2.9999999999999992E-004    -1.6529441221418655E-025
   0.0000000000000000         -5.1028228849708609E-025
   3.0000000000000165E-004     2.0264373877296362E-024
   5.9999999999999984E-004    -2.1008418940053876E-024
   9.0000000000000149E-004    -7.7900240302742230E-024
   1.2000000000000031E-003     1.9719658564233752E-023
   1.5000000000000013E-003     6.0277461509459800E-024
   1.8000000000000030E-003    -7.4212798751137246E-023
   2.1000000000000012E-003     9.7594753480771806E-023
   2.3999999999999994E-003     6.8855480460905070E-023
   2.7000000000000010E-003    -5.0908764172937815E-022
   2.9999999999999992E-003     6.5942454729206610E-022
   3.3000000000000008E-003     9.1193692314947989E-022
   3.6000000000000025E-003    -3.7707695866271716E-021
   3.9000000000000007E-003     2.7188014438409233E-021
   4.2000000000000023E-003     7.4371810958490944E-021
   4.5000000000000005E-003    -2.0619009079911195E-020
   4.7999999999999987E-003     1.1278635293142230E-020
   5.1000000000000004E-003     4.7732571510615946E-020
   5.4000000000000020E-003    -1.1184153038067473E-019
   5.7000000000000037E-003     2.6649042047461794E-020
   5.9999999999999984E-003     2.8277632315557663E-019
   6.3000000000000000E-003    -5.0885455274163689E-019
   6.6000000000000017E-003     2.4822583295464661E-020
   6.9000000000000034E-003     1.3505030932357700E-018
   7.2000000000000015E-003    -2.1854379649623738E-018
   7.5000000000000032E-003    -2.5408709656614162E-019
   7.8000000000000014E-003     6.0291626090965027E-018
   8.0999999999999996E-003    -8.3168307098192561E-018
   8.4000000000000012E-003    -2.5464671200937712E-018
   8.7000000000000029E-003     2.4836424447402181E-017
   9.0000000000000011E-003    -3.2193764247984531E-017
   9.2999999999999992E-003    -1.3657016608638565E-017
   9.6000000000000009E-003     1.0445498726347186E-016
   9.8999999999999991E-003    -1.2965227847016817E-016
   1.0200000000000001E-002    -5.9957534417836791E-017
   1.0500000000000002E-002     4.2877850268710569E-016
   1.0800000000000004E-002    -5.4386351966114468E-016
   1.1099999999999999E-002    -2.1895583132683517E-016
   1.1400000000000000E-002     1.7358675574281249E-015
   1.1700000000000002E-002    -2.2024712853617655E-015
   1.2000000000000004E-002    -8.2571824340953380E-016
   1.2300000000000002E-002     6.6160167802322457E-015
   1.2600000000000000E-002    -8.1391875604434361E-015
   1.2900000000000002E-002    -3.2727455731355992E-015
   1.3200000000000000E-002     2.3458776550997577E-014
   1.3500000000000002E-002    -2.6470495719398344E-014
   1.3800000000000003E-002    -1.3695351410252609E-014
   1.4100000000000001E-002     7.5189096998545376E-014
   1.4400000000000000E-002    -7.4106257122810646E-014
   1.4700000000000001E-002    -5.2867550980692773E-014
   1.4999999999999999E-002     2.1566558623878136E-013
   1.5300000000000001E-002    -1.7671914931877834E-013
   1.5600000000000003E-002    -1.7967413890556908E-013
   1.5899999999999997E-002     5.4864679318494240E-013
   1.6199999999999999E-002    -3.5845199915927067E-013
   1.6500000000000001E-002    -5.2752068414488167E-013
   1.6800000000000002E-002     1.2718107613265101E-012
   1.7100000000000004E-002    -6.2814633277750371E-013
   1.7400000000000006E-002    -1.4782301983274953E-012
   1.7700000000000000E-002     2.9131430100583647E-012
   1.8000000000000002E-002    -6.5267827567674927E-013
   1.8300000000000004E-002    -5.0676259054436687E-012
   1.8600000000000005E-002     6.5630809722432252E-012
   1.8900000000000000E-002     6.0635798696348280E-012
   1.9200000000000002E-002    -2.1312279538599972E-011
   1.9500000000000003E-002    -6.3384008285236329E-012
   1.9799999999999998E-002     7.7144807934714810E-011
   2.0100000000000000E-002    -1.6799575438497099E-011
   2.0400000000000001E-002    -3.0722653787871654E-010
   2.0700000000000003E-002     2.8450177130327157E-010
   2.0999999999999998E-002     1.0421819558206307E-009
   2.1299999999999999E-002    -1.8969732460746613E-009
   2.1600000000000001E-002    -2.5459387893854794E-009
   2.1900000000000003E-002     8.6653622435394421E-009
   2.2200000000000004E-002     3.3281276466706272E-009
   2.2500000000000006E-002    -3.2161705738184392E-008
   2.2800000000000001E-002     2.8565866321764599E-009
   2.3100000000000002E-002     1.0905730882400280E-007
   2.3400000000000004E-002    -3.5167710306268910E-008
   2.3699999999999999E-002    -4.1940419335945095E-007
   2.4000000000000000E-002     2.1411845961898048E-007
   2.4300000000000002E-002     3.6235366045419879E-006
   2.4599999999999997E-002     9.7297208082163605E-006
   2.4900000000000005E-002     1.6115366595377567E-005
   2.5200000000000000E-002     2.1661564057915933E-005
   2.5499999999999995E-002     2.9266811650749446E-005
   2.5800000000000003E-002     4.2426123788557336E-005
   2.6099999999999998E-002     6.2786618974331661E-005
   2.6400000000000007E-002     9.3443083319925794E-005
   2.6700000000000002E-002     1.3866613666771053E-004
   2.6999999999999996E-002     2.0314581371298995E-004
   2.7300000000000005E-002     2.9859286051611873E-004
   2.7600000000000000E-002     4.3909234105428765E-004
   2.7900000000000008E-002     6.2686605360439708E-004
   2.8200000000000003E-002     8.6170835087560861E-004
   2.8499999999999998E-002     1.1572857810828738E-003
   2.8800000000000006E-002     1.5309239195082506E-003
   2.9100000000000001E-002     1.9914164873752775E-003
   2.9400000000000003E-002     2.5391504565789235E-003
   2.9700000000000004E-002     3.1618876782945667E-003
   3.0000000000000006E-002     3.8334238643988848E-003
   3.0300000000000001E-002     4.5153501189175004E-003
   3.0600000000000002E-002     5.1461548706828652E-003
   3.0900000000000004E-002     5.6241257063463258E-003
   3.1199999999999999E-002     5.8021392505988520E-003
   3.1500000000000007E-002     5.4982687057146618E-003
   3.1800000000000002E-002     4.5006012309469195E-003
   3.2099999999999997E-002     2.5594149025461544E-003
   3.2400000000000005E-002    -5.9721599290900448E-004
   3.2700000000000000E-002    -5.2535599585773422E-003
   3.3000000000000002E-002    -1.1700465484997561E-002
   3.3300000000000003E-002    -2.0185980124494466E-002
   3.3599999999999998E-002    -3.0874233200760222E-002
   3.3900000000000000E-002    -4.3862173918146688E-002
   3.4200000000000001E-002    -5.9156258364113534E-002
   3.4500000000000003E-002    -7.6618857501746629E-002
   3.4799999999999998E-002    -9.5966583735678512E-002
   3.5099999999999999E-002   -0.11679099667808789     
   3.5400000000000001E-002   -0.13859009231030664     
   3.5699999999999996E-002   -0.16081414223448334     
   3.6000000000000004E-002   -0.18291749251579786     
   3.6299999999999999E-002   -0.20441611580506236     
   3.6600000000000008E-002   -0.22495959416220568     
   3.6900000000000002E-002   -0.24434277931211512     
   3.7199999999999997E-002   -0.26256016185968312     
   3.7500000000000006E-002   -0.27983258826004209     
   3.7800000000000000E-002   -0.29653222079740188     
   3.8100000000000009E-002   -0.31312706987099814     
   3.8400000000000004E-002   -0.33006509524418443     
   3.8699999999999998E-002   -0.34767646976026495     
   3.9000000000000007E-002   -0.36606524083898834     
   3.9300000000000002E-002   -0.38498753263799840     
   3.9600000000000003E-002   -0.40380063994660426     
   3.9900000000000005E-002   -0.42144471878721657     
   4.0200000000000000E-002   -0.43649955576642174     
   4.0500000000000001E-002   -0.44718227525833615     
   4.0800000000000003E-002   -0.45157292720907971     
   4.1100000000000005E-002   -0.44775103300140789     
   4.1399999999999999E-002   -0.43395809275959457     
   4.1700000000000008E-002   -0.40872361943190538     
   4.2000000000000003E-002   -0.37094873440011966     
   4.2299999999999997E-002   -0.31999787213512576     
   4.2600000000000006E-002   -0.25569072753530775     
   4.2900000000000001E-002   -0.17816535590284840     
   4.3200000000000002E-002    -8.7844590901756850E-002
   4.3500000000000004E-002     1.4714261994813405E-002
   4.3799999999999999E-002    0.12900969560898534     
   4.4100000000000000E-002    0.25451722781776887     
   4.4400000000000002E-002    0.39095500142857731     
   4.4700000000000004E-002    0.53785817134601088     
   4.4999999999999998E-002    0.69501598153374344     
   4.5300000000000000E-002    0.86149654279178012     
   4.5600000000000002E-002     1.0363622327315407     
   4.5899999999999996E-002     1.2175212798062116     
   4.6200000000000005E-002     1.4023514418416727     
   4.6500000000000000E-002     1.5870618098085858     
   4.6799999999999994E-002     1.7667552416935659     
   4.7100000000000003E-002     1.9357766103474932     
   4.7399999999999998E-002     2.0874176380229632     
   4.7700000000000006E-002     2.2148347601353846     
   4.8000000000000001E-002     2.3108714093321518     
   4.8300000000000010E-002     2.3688284013272902     
   4.8600000000000004E-002     2.3827126002183503     
   4.8899999999999999E-002     2.3477556567222613     
   4.9200000000000008E-002     2.2609120169795518     
   4.9500000000000002E-002     2.1206727825138767     
   4.9800000000000011E-002     1.9277511189385890     
   5.0100000000000006E-002     1.6846399200145501     
   5.0400000000000000E-002     1.3957897508987611     
   5.0700000000000009E-002     1.0670100293583478     
   5.1000000000000004E-002    0.70560377394940754     
   5.1299999999999998E-002    0.31964560963015531     
   5.1600000000000007E-002    -8.2336824339524689E-002
   5.1900000000000002E-002   -0.49157758721235290     
   5.2200000000000010E-002   -0.89957189478812993     
   5.2500000000000005E-002    -1.2984139117134701     
   5.2800000000000000E-002    -1.6807947817946549     
   5.3099999999999994E-002    -2.0401278360279962     
   5.3400000000000003E-002    -2.3709403819823507     
   5.3699999999999998E-002    -2.6682228684916711     
   5.4000000000000006E-002    -2.9278965233828047     
   5.4300000000000001E-002    -3.1461441196123006     
   5.4599999999999996E-002    -3.3198102507382070     
   5.4900000000000004E-002    -3.4456668116604692     
   5.5199999999999999E-002    -3.5205264063028316     
   5.5499999999999994E-002    -3.5409683675375097     
   5.5800000000000002E-002    -3.5034397574127758     
   5.6099999999999997E-002    -3.4042930797734954     
   5.6400000000000006E-002    -3.2398893252042007     
   5.6700000000000000E-002    -3.0075065773355938     
   5.6999999999999995E-002    -2.7050743667961648     
   5.7300000000000004E-002    -2.3331277542104329     
   5.7599999999999998E-002    -1.8942415666394536     
   5.7900000000000007E-002    -1.3952335427181275     
   5.8200000000000002E-002   -0.84694351305474513     
   5.8499999999999996E-002   -0.26507278160892545     
   5.8800000000000005E-002    0.32981084690251428     
   5.9100000000000000E-002    0.91269415574525370     
   5.9400000000000008E-002     1.4549804206294841     
   5.9700000000000003E-002     1.9263824391393021     
   6.0000000000000012E-002     2.2962620209349103     
   6.0300000000000006E-002     2.5371351889547742     
   6.0600000000000001E-002     2.6259477674967462     
   6.0900000000000010E-002     2.5480809712176899     
   6.1200000000000004E-002     2.2981390274058064     
   6.1500000000000013E-002     1.8828367224280482     
   6.1800000000000008E-002     1.3208546836615263     
   6.2100000000000002E-002    0.64332547531721407     
   6.2399999999999997E-002   -0.10825489012496348     
   6.2700000000000006E-002   -0.88343025130393749     
   6.3000000000000000E-002    -1.6269035847570559     
   6.3300000000000009E-002    -2.2814042201251050     
   6.3600000000000004E-002    -2.7931321213698048     
   6.3899999999999998E-002    -3.1146729081865758     
   6.4199999999999993E-002    -3.2097500421276326     
   6.4500000000000002E-002    -3.0557024223891678     
   6.4800000000000010E-002    -2.6458075200758637     
   6.5100000000000005E-002    -1.9904400109212466     
   6.5400000000000000E-002    -1.1159173247561642     
   6.5700000000000008E-002    -6.4042565934106122E-002
   6.5999999999999989E-002     1.1120281369963174     
   6.6299999999999998E-002     2.3495999295764940     
   6.6600000000000006E-002     3.5818449135476427     
   6.6900000000000001E-002     4.7412443049887489     
   6.7199999999999996E-002     5.7643996131503430     
   6.7500000000000004E-002     6.5952633095819682     
   6.7800000000000013E-002     7.1885297102112853     
   6.8099999999999994E-002     7.5127310881355802     
   6.8400000000000002E-002     7.5501499894029678     
   6.8700000000000011E-002     7.2994412271755520     
   6.8999999999999992E-002     6.7731771929540860     
   6.9300000000000000E-002     5.9980260293730563     
   6.9600000000000009E-002     5.0129549054264384     
   6.9900000000000004E-002     3.8656698082691214     
   7.0199999999999999E-002     2.6111660469840352     
   7.0500000000000007E-002     1.3081632278580235     
   7.0800000000000016E-002     1.5676379437420840E-002
   7.1099999999999997E-002    -1.2091268874778565     
   7.1400000000000005E-002    -2.3142505492420877     
   7.1700000000000000E-002    -3.2550679864928775     
   7.1999999999999995E-002    -3.9965878321304631     
   7.2300000000000003E-002    -4.5146997118080199     
   7.2600000000000012E-002    -4.7976552036380831     
   7.2900000000000006E-002    -4.8462794040516464     
   7.3200000000000001E-002    -4.6739514060156822     
   7.3499999999999996E-002    -4.3058255336885800     
   7.3800000000000004E-002    -3.7768468711777690     
   7.4099999999999999E-002    -3.1307773268137269     
   7.4400000000000008E-002    -2.4167589788235482     
   7.4700000000000003E-002    -1.6866818376978632     
   7.5000000000000011E-002   -0.99223045222251471     
   7.5299999999999992E-002   -0.38106122678797938     
   7.5600000000000001E-002    0.10510218810510563     
   7.5900000000000009E-002    0.43471022272537485     
   7.6200000000000004E-002    0.58689050217509542     
   7.6499999999999999E-002    0.55425118153420772     
   7.6800000000000007E-002    0.34216866010712743     
   7.7099999999999988E-002    -3.0218398308385852E-002
   7.7399999999999997E-002   -0.53283292884214073     
   7.7700000000000005E-002    -1.1252941482768422     
   7.8000000000000014E-002    -1.7608290880645290     
   7.8299999999999995E-002    -2.3892288567037676     
   7.8600000000000003E-002    -2.9601694459938570     
   7.8900000000000012E-002    -3.4283243929330420     
   7.9199999999999993E-002    -3.7546578034860132     
   7.9500000000000001E-002    -3.9115240301720275     
   7.9800000000000010E-002    -3.8830309723533709     
   8.0100000000000018E-002    -3.6677314509422962     
   8.0399999999999999E-002    -3.2769836681517757     
   8.0700000000000008E-002    -2.7359539602316145     
   8.1000000000000003E-002    -2.0791306193124806     
   8.1299999999999997E-002    -1.3499598927686178     
   8.1600000000000006E-002   -0.59525195926873631     
   8.1900000000000014E-002    0.13744646956354817     
   8.2199999999999995E-002    0.80453908768540605     
   8.2500000000000004E-002     1.3685648004963495     
   8.2799999999999999E-002     1.8026336527518050     
   8.3100000000000007E-002     2.0895035186110622     
   8.3400000000000002E-002     2.2254409629763838     
   8.3700000000000011E-002     2.2164962422096126     
   8.4000000000000005E-002     2.0798846416516783     
   8.4300000000000000E-002     1.8387033780227207     
   8.4599999999999995E-002     1.5216353008714361     
   8.4900000000000003E-002     1.1575303353550557     
   8.5199999999999998E-002    0.77329253087028038     
   8.5500000000000007E-002    0.39118413890692472     
   8.5800000000000001E-002     2.6767720183112048E-002
   8.6100000000000010E-002   -0.31163726186005813     
   8.6399999999999991E-002   -0.62339745104700939     
   8.6699999999999999E-002   -0.91250942130437573     
   8.7000000000000008E-002    -1.1865457862916735     
   8.7300000000000003E-002    -1.4525646553229454     
   8.7599999999999997E-002    -1.7131570201126243     
   8.7900000000000006E-002    -1.9639234827051337     
   8.8200000000000014E-002    -2.1897415522419319     
   8.8499999999999995E-002    -2.3637839226309767     
   8.8800000000000004E-002    -2.4477700168845846     
   8.9100000000000013E-002    -2.3940013571574568     
   8.9399999999999993E-002    -2.1510257223846629     
   8.9700000000000002E-002    -1.6672166111452777     
   9.0000000000000011E-002   -0.90217746608038829     
   9.0299999999999991E-002    0.16840367271179957     
   9.0600000000000000E-002     1.5423259634473960     
   9.0900000000000009E-002     3.1852928540126206     
   9.1200000000000017E-002     5.0274595113673124     
   9.1499999999999998E-002     6.9618999669642498     
   9.1800000000000007E-002     8.8501721766179653     
   9.2100000000000001E-002     10.528926876357499     
   9.2399999999999996E-002     11.824143698669397     
   9.2700000000000005E-002     12.565967914635554     
   9.3000000000000013E-002     12.606165846166393     
   9.3300000000000008E-002     11.837152860267640     
   9.3600000000000003E-002     10.205450235504808     
   9.3899999999999997E-002     7.7265315488111170     
   9.4200000000000006E-002     4.4876509226762487     
   9.4500000000000001E-002    0.64998994829601076     
   9.4800000000000009E-002    -3.5609224143034961     
   9.5100000000000004E-002    -7.8695532077376100     
   9.5399999999999999E-002    -11.971311253266569     
   9.5699999999999993E-002    -15.557245733202118     
   9.6000000000000002E-002    -18.340393925106461     
   9.6300000000000011E-002    -20.081503921148485     
   9.6600000000000005E-002    -20.610545070739978     
   9.6900000000000000E-002    -19.842663597810457     
   9.7200000000000009E-002    -17.787339452781037     
   9.7499999999999989E-002    -14.546288863074114     
   9.7799999999999998E-002    -10.308091505280490     
   9.8100000000000007E-002    -5.3300932702818171     
   9.8400000000000015E-002     8.1403967074596739E-002
   9.8699999999999996E-002     5.5967514108284586     
   9.9000000000000005E-002     10.887716712712717     
   9.9300000000000013E-002     15.652713522184932     
   9.9599999999999994E-002     19.635807042622009     
   9.9900000000000003E-002     22.643236028794725     
  0.10020000000000001          24.551560917730427     
  0.10049999999999999          25.309436853042783     
  0.10080000000000000          24.935854445677784     
  0.10110000000000001          23.509144007456982     
  0.10140000000000000          21.157527743536019     
  0.10170000000000000          18.041990567482266     
  0.10200000000000001          14.346194509485599     
  0.10230000000000002          10.258048421091765     
  0.10260000000000000          5.9622298060450367     
  0.10290000000000001          1.6284960396276649     
  0.10320000000000000         -2.5929385046269280     
  0.10350000000000001         -6.5755119265622630     
  0.10380000000000000         -10.218414456813711     
  0.10410000000000001         -13.445516100662434     
  0.10440000000000001         -16.202490336027800     
  0.10470000000000000         -18.456548743117381     
  0.10500000000000000         -20.192441457813725     
  0.10530000000000000         -21.408372531023954     
  0.10560000000000000         -22.114701036278912     
  0.10590000000000001         -22.331240780414298     
  0.10620000000000000         -22.083296649295104     
  0.10650000000000001         -21.401776577075449     
  0.10679999999999999         -20.320397502840219     
  0.10710000000000000         -18.874722722542387     
  0.10740000000000001         -17.101266987714897     
  0.10770000000000000         -15.039474320704102     
  0.10800000000000000         -12.727974239518494     
  0.10830000000000001         -10.209354632080320     
  0.10859999999999999         -7.5279283158244095     
  0.10890000000000000         -4.7313909663231737     
  0.10920000000000001         -1.8716906630420120     
  0.10950000000000001         0.99561617369903388     
  0.10979999999999999          3.8110756479926833     
  0.11009999999999999          6.5145837064112699     
  0.11040000000000001          9.0431787808337845     
  0.11070000000000001          11.339046263029683     
  0.11100000000000000          13.343952253193249     
  0.11130000000000000          15.012199210902404     
  0.11160000000000002          16.301585022467282     
  0.11190000000000001          17.186717122365835     
  0.11220000000000001          17.651218465936196     
  0.11250000000000000          17.696165279514336     
  0.11280000000000000          17.334234417404794     
  0.11309999999999999          16.595141751085642     
  0.11340000000000001          15.518295365345384     
  0.11369999999999998          14.157564870111718     
  0.11400000000000000          12.572243889932080     
  0.11430000000000000          10.830177763292108     
  0.11460000000000002          8.9992196974486127     
  0.11489999999999999          7.1477153184438240     
  0.11520000000000001          5.3398246575648178     
  0.11550000000000001          3.6298536221896986     
  0.11580000000000000          2.0645907655714932     
  0.11609999999999999         0.67445556179765243     
  0.11640000000000002        -0.52071601190955574     
  0.11670000000000001         -1.5182709145078594     
  0.11700000000000001         -2.3281749585445057     
  0.11730000000000000         -2.9720689155851998     
  0.11760000000000000         -3.4819867619736908     
  0.11789999999999999         -3.8936005214349265     
  0.11820000000000001         -4.2474454435351294     
  0.11850000000000001         -4.5784879750991747     
  0.11880000000000000         -4.9181202801704966     
  0.11910000000000000         -5.2888113555155574     
  0.11940000000000002         -5.6989920580592575     
  0.11970000000000001         -6.1498503299282028     
  0.12000000000000001         -6.6254935869515927     
  0.12030000000000000         -7.1035644598767558     
  0.12060000000000000         -7.5508949028446146     
  0.12089999999999999         -7.9301641557094360     
  0.12119999999999999         -8.2033670004022916     
  0.12150000000000001         -8.3327320015445725     
  0.12180000000000001         -8.2892139990563614     
  0.12210000000000000         -8.0497152631411844     
  0.12239999999999999         -7.6056839524092759     
  0.12270000000000002         -6.9586524278359967     
  0.12300000000000001         -6.1244296044557096     
  0.12330000000000001         -5.1321283434540437     
  0.12360000000000000         -4.0188975495560602     
  0.12390000000000000         -2.8337627018094924     
  0.12419999999999999         -1.6268918236217207     
  0.12450000000000001        -0.45275577435996239     
  0.12480000000000001         0.63868987057880555     
  0.12509999999999999          1.6019170383528272     
  0.12540000000000001          2.4019778482142344     
  0.12570000000000003          3.0144604684037879     
  0.12600000000000000          3.4288706827429936     
  0.12630000000000002          3.6469148930254578     
  0.12659999999999999          3.6858767987533114     
  0.12690000000000001          3.5710658772634072     
  0.12719999999999998          3.3398206996040147     
  0.12750000000000000          3.0323863005605785     
  0.12780000000000002          2.6928291628868659     
  0.12809999999999999          2.3615696672631810     
  0.12840000000000001          2.0752929301261913     
  0.12869999999999998          1.8619923119927222     
  0.12900000000000000          1.7387228269445665     
  0.12930000000000003          1.7133232080493830     
  0.12959999999999999          1.7797893116671732     
  0.12990000000000002          1.9249212110092748     
  0.13019999999999998          2.1252536888561333     
  0.13050000000000000          2.3531658646387976     
  0.13080000000000003          2.5779185570608103     
  0.13109999999999999          2.7691210528816246     
  0.13140000000000002          2.9001950134834935     
  0.13169999999999998          2.9486969821948170     
  0.13200000000000001          2.9010795526293141     
  0.13229999999999997          2.7497761153143081     
  0.13260000000000000          2.4952854859959919     
  0.13290000000000002          2.1465044680640051     
  0.13319999999999999          1.7173761032970947     
  0.13350000000000001          1.2258957057415985     
  0.13380000000000003         0.69529005481277406     
  0.13410000000000000         0.14680969728085258     
  0.13440000000000002        -0.39435199199036675     
  0.13469999999999999        -0.90816785985475468     
  0.13500000000000001         -1.3732780775039315     
  0.13529999999999998         -1.7742627241205791     
  0.13560000000000000         -2.0964054532548144     
  0.13590000000000002         -2.3311159319700048     
  0.13619999999999999         -2.4719029309845668     
  0.13650000000000001         -2.5179169735889460     
  0.13680000000000003         -2.4715088959317848     
  0.13710000000000000         -2.3396488340756187     
  0.13740000000000002         -2.1344047934484793     
  0.13769999999999999         -1.8692287303889845     
  0.13800000000000001         -1.5638694081727758     
  0.13829999999999998         -1.2367074318411064     
  0.13860000000000000        -0.91011733254949534     
  0.13890000000000002        -0.60351601748670969     
  0.13919999999999999        -0.33647052299830615     
  0.13950000000000001        -0.12271587441724471     
  0.13979999999999998          2.7032832581311242E-002
  0.14010000000000000         0.10891827600935189     
  0.14040000000000002         0.12521486948780208     
  0.14069999999999999          8.2890366780202396E-002
  0.14100000000000001         -2.7661164346483441E-003
  0.14130000000000004        -0.11604043284655324     
  0.14160000000000000        -0.23555570333134873     
  0.14189999999999997        -0.34194961296339971     
  0.14219999999999999        -0.41594208046564851     
  0.14250000000000002        -0.44226802186570646     
  0.14279999999999998        -0.41105347709721674     
  0.14310000000000000        -0.31682634946104171     
  0.14339999999999997        -0.16340164475205793     
  0.14369999999999999          4.2324835972667396E-002
  0.14400000000000002         0.28465169516059285     
  0.14429999999999998         0.54657082907216548     
  0.14460000000000001         0.80576094183205293     
  0.14490000000000003          1.0418418882454916     
  0.14520000000000000          1.2331176710169149     
  0.14550000000000002          1.3633928775408677     
  0.14579999999999999          1.4193710211079544     
  0.14610000000000001          1.3947710217930951     
  0.14640000000000003          1.2881447167887157     
  0.14670000000000000          1.1073445062078207     
  0.14699999999999996         0.86270806834114877     
  0.14729999999999999         0.57280741971935001     
  0.14760000000000001         0.25766546355825043     
  0.14789999999999998         -5.9116479473201616E-002
  0.14820000000000000        -0.35478996611259739     