  -1.4999999999999999E-002     0.0000000000000000     
  -1.4700000000000000E-002     0.0000000000000000     
  -1.4400000000000000E-002     0.0000000000000000     
  -1.4100000000000000E-002     0.0000000000000000     
  -1.3800000000000000E-002     0.0000000000000000     
  -1.3500000000000000E-002     0.0000000000000000     
  -1.3200000000000000E-002     0.0000000000000000     
  -1.2899999999999998E-002     0.0000000000000000     
  -1.2600000000000000E-002     0.0000000000000000     
  -1.2299999999999998E-002     0.0000000000000000     
  -1.2000000000000000E-002     0.0000000000000000     
  -1.1699999999999999E-002     0.0000000000000000     
  -1.1399999999999999E-002     0.0000000000000000     
  -1.1099999999999999E-002     0.0000000000000000     
  -1.0799999999999999E-002     0.0000000000000000     
  -1.0499999999999999E-002     0.0000000000000000     
  -1.0199999999999999E-002     0.0000000000000000     
  -9.8999999999999991E-003     0.0000000000000000     
  -9.5999999999999992E-003     0.0000000000000000     
  -9.2999999999999992E-003     0.0000000000000000     
  -8.9999999999999993E-003     0.0000000000000000     
  -8.6999999999999994E-003     0.0000000000000000     
  -8.3999999999999995E-003     0.0000000000000000     
  -8.0999999999999996E-003     0.0000000000000000     
  -7.7999999999999988E-003     0.0000000000000000     
  -7.4999999999999997E-003     0.0000000000000000     
  -7.1999999999999998E-003     0.0000000000000000     
  -6.8999999999999981E-003     0.0000000000000000     
  -6.5999999999999982E-003     0.0000000000000000     
  -6.3000000000000000E-003     0.0000000000000000     
  -6.0000000000000001E-003     0.0000000000000000     
  -5.6999999999999985E-003     0.0000000000000000     
  -5.3999999999999986E-003     0.0000000000000000     
  -5.1000000000000004E-003     0.0000000000000000     
  -4.7999999999999987E-003     0.0000000000000000     
  -4.5000000000000005E-003     0.0000000000000000     
  -4.1999999999999989E-003     0.0000000000000000     
  -3.8999999999999990E-003     0.0000000000000000     
  -3.5999999999999990E-003     0.0000000000000000     
  -3.2999999999999991E-003     0.0000000000000000     
  -2.9999999999999992E-003     0.0000000000000000     
  -2.6999999999999993E-003     0.0000000000000000     
  -2.3999999999999994E-003     0.0000000000000000     
  -2.0999999999999977E-003     0.0000000000000000     
  -1.7999999999999995E-003     0.0000000000000000     
  -1.4999999999999979E-003     0.0000000000000000     
  -1.1999999999999997E-003     0.0000000000000000     
  -8.9999999999999976E-004     0.0000000000000000     
  -5.9999999999999810E-004     0.0000000000000000     
  -2.9999999999999992E-004     0.0000000000000000     
   0.0000000000000000          0.0000000000000000     
   3.0000000000000165E-004     0.0000000000000000     
   5.9999999999999984E-004     0.0000000000000000     
   9.0000000000000149E-004     0.0000000000000000     
   1.2000000000000031E-003     0.0000000000000000     
   1.5000000000000013E-003     0.0000000000000000     
   1.8000000000000030E-003     0.0000000000000000     
   2.1000000000000012E-003     0.0000000000000000     
   2.3999999999999994E-003     0.0000000000000000     
   2.7000000000000010E-003     0.0000000000000000     
   2.9999999999999992E-003     0.0000000000000000     
   3.3000000000000008E-003     0.0000000000000000     
   3.6000000000000025E-003     0.0000000000000000     
   3.9000000000000007E-003     0.0000000000000000     
   4.2000000000000023E-003     0.0000000000000000     
   4.5000000000000005E-003     0.0000000000000000     
   4.7999999999999987E-003     0.0000000000000000     
   5.1000000000000004E-003     0.0000000000000000     
   5.4000000000000020E-003     0.0000000000000000     
   5.7000000000000037E-003     0.0000000000000000     
   5.9999999999999984E-003     0.0000000000000000     
   6.3000000000000000E-003     0.0000000000000000     
   6.6000000000000017E-003     0.0000000000000000     
   6.9000000000000034E-003     0.0000000000000000     
   7.2000000000000015E-003     0.0000000000000000     
   7.5000000000000032E-003     0.0000000000000000     
   7.8000000000000014E-003     0.0000000000000000     
   8.0999999999999996E-003     0.0000000000000000     
   8.4000000000000012E-003     0.0000000000000000     
   8.7000000000000029E-003     0.0000000000000000     
   9.0000000000000011E-003     0.0000000000000000     
   9.2999999999999992E-003     0.0000000000000000     
   9.6000000000000009E-003     0.0000000000000000     
   9.8999999999999991E-003     0.0000000000000000     
   1.0200000000000001E-002     0.0000000000000000     
   1.0500000000000002E-002     0.0000000000000000     
   1.0800000000000004E-002     0.0000000000000000     
   1.1099999999999999E-002     0.0000000000000000     
   1.1400000000000000E-002     0.0000000000000000     
   1.1700000000000002E-002     0.0000000000000000     
   1.2000000000000004E-002     0.0000000000000000     
   1.2300000000000002E-002     0.0000000000000000     
   1.2600000000000000E-002     0.0000000000000000     
   1.2900000000000002E-002     0.0000000000000000     
   1.3200000000000000E-002     0.0000000000000000     
   1.3500000000000002E-002     0.0000000000000000     
   1.3800000000000003E-002     0.0000000000000000     
   1.4100000000000001E-002     0.0000000000000000     
   1.4400000000000000E-002     0.0000000000000000     
   1.4700000000000001E-002     0.0000000000000000     
   1.4999999999999999E-002     0.0000000000000000     
   1.5300000000000001E-002     0.0000000000000000     
   1.5600000000000003E-002     0.0000000000000000     
   1.5899999999999997E-002     0.0000000000000000     
   1.6199999999999999E-002     0.0000000000000000     
   1.6500000000000001E-002     0.0000000000000000     
   1.6800000000000002E-002     0.0000000000000000     
   1.7100000000000004E-002     0.0000000000000000     
   1.7400000000000006E-002     0.0000000000000000     
   1.7700000000000000E-002     0.0000000000000000     
   1.8000000000000002E-002     0.0000000000000000     
   1.8300000000000004E-002     0.0000000000000000     
   1.8600000000000005E-002     0.0000000000000000     
   1.8900000000000000E-002     0.0000000000000000     
   1.9200000000000002E-002     0.0000000000000000     
   1.9500000000000003E-002     0.0000000000000000     
   1.9799999999999998E-002     0.0000000000000000     
   2.0100000000000000E-002     0.0000000000000000     
   2.0400000000000001E-002     0.0000000000000000     
   2.0700000000000003E-002     0.0000000000000000     
   2.0999999999999998E-002     0.0000000000000000     
   2.1299999999999999E-002     0.0000000000000000     
   2.1600000000000001E-002     0.0000000000000000     
   2.1900000000000003E-002     0.0000000000000000     
   2.2200000000000004E-002     0.0000000000000000     
   2.2500000000000006E-002     0.0000000000000000     
   2.2800000000000001E-002     0.0000000000000000     
   2.3100000000000002E-002     0.0000000000000000     
   2.3400000000000004E-002     0.0000000000000000     
   2.3699999999999999E-002     0.0000000000000000     
   2.4000000000000000E-002     0.0000000000000000     
   2.4300000000000002E-002     0.0000000000000000     
   2.4599999999999997E-002     0.0000000000000000     
   2.4900000000000005E-002     0.0000000000000000     
   2.5200000000000000E-002     0.0000000000000000     
   2.5499999999999995E-002     0.0000000000000000     
   2.5800000000000003E-002     0.0000000000000000     
   2.6099999999999998E-002     0.0000000000000000     
   2.6400000000000007E-002     0.0000000000000000     
   2.6700000000000002E-002     0.0000000000000000     
   2.6999999999999996E-002     0.0000000000000000     
   2.7300000000000005E-002     0.0000000000000000     
   2.7600000000000000E-002     0.0000000000000000     
   2.7900000000000008E-002     0.0000000000000000     
   2.8200000000000003E-002     0.0000000000000000     
   2.8499999999999998E-002     0.0000000000000000     
   2.8800000000000006E-002     0.0000000000000000     
   2.9100000000000001E-002     0.0000000000000000     
   2.9400000000000003E-002     0.0000000000000000     
   2.9700000000000004E-002     0.0000000000000000     
   3.0000000000000006E-002     0.0000000000000000     
   3.0300000000000001E-002     0.0000000000000000     
   3.0600000000000002E-002     3.8316884617792647E-042
   3.0900000000000004E-002     3.8197720667947275E-042
   3.1199999999999999E-002     3.0684835975656667E-038
   3.1500000000000007E-002    -6.1000557316941966E-038
   3.1800000000000002E-002    -2.6981181363302500E-037
   3.2099999999999997E-002    -9.2377760494301935E-036
   3.2400000000000005E-002     5.9650349476485286E-035
   3.2700000000000000E-002    -9.7094288111091548E-035
   3.3000000000000002E-002    -5.3033119729013943E-034
   3.3300000000000003E-002     4.6214656970569096E-033
   3.3599999999999998E-002    -1.2111303334849773E-032
   3.3900000000000000E-002     1.9214892049904659E-032
   3.4200000000000001E-002    -9.6589284961918988E-033
   3.4500000000000003E-002    -8.1286775186324809E-032
   3.4799999999999998E-002     4.4899897000311579E-031
   3.5099999999999999E-002    -1.5907893699285863E-030
   3.5400000000000001E-002     4.5168978156214439E-030
   3.5699999999999996E-002    -1.0590237354102792E-029
   3.6000000000000004E-002     1.9583234234220625E-029
   3.6299999999999999E-002    -2.2288908418516200E-029
   3.6600000000000008E-002    -1.9096917240090118E-029
   3.6900000000000002E-002     2.0910195652600787E-028
   3.7199999999999997E-002    -7.6215333684106881E-028
   3.7500000000000006E-002     1.9626050265945573E-027
   3.7800000000000000E-002    -3.7751140107373442E-027
   3.8100000000000009E-002     4.5712491621975420E-027
   3.8400000000000004E-002     1.6041896190133093E-027
   3.8699999999999998E-002    -2.8564557386736738E-026
   3.9000000000000007E-002     9.7034851097368359E-026
   3.9300000000000002E-002    -2.1413330543228655E-025
   3.9600000000000003E-002     3.0746941071676329E-025
   3.9900000000000005E-002    -9.9783220502283574E-026
   4.0200000000000000E-002    -1.0007130446850638E-024
   4.0500000000000001E-002     3.6885778396649925E-024
   4.0800000000000003E-002    -7.6097655587349116E-024
   4.1100000000000005E-002     8.7328802866639603E-024
   4.1399999999999999E-002     3.6793901898515255E-024
   4.1700000000000008E-002    -4.5090842949116395E-023
   4.2000000000000003E-002     1.1806086469084069E-022
   4.2299999999999997E-002    -1.7299968951997212E-022
   4.2600000000000006E-002     8.0140439317955921E-023
   4.2900000000000001E-002     2.5483770988716449E-022
   4.3200000000000002E-002    -3.4847918843783109E-022
   4.3500000000000004E-002    -2.2280243334280052E-021
   4.3799999999999999E-002     1.4418038287468964E-020
   4.4100000000000000E-002    -5.1708108068030930E-020
   4.4400000000000002E-002     1.4308739708011686E-019
   4.4700000000000004E-002    -3.2771058660769836E-019
   4.4999999999999998E-002     5.8128001440884081E-019
   4.5300000000000000E-002    -3.9809805711419961E-019
   4.5600000000000002E-002    -2.8448625501902185E-018
   4.5899999999999996E-002     1.8622604951648827E-017
   4.6200000000000005E-002    -7.2265382158067052E-017
   4.6500000000000000E-002     2.0635399662955023E-016
   4.6799999999999994E-002    -4.0666805487557086E-016
   4.7100000000000003E-002     2.4365191141206632E-016
   4.7399999999999998E-002     2.1126729002016328E-015
   4.7700000000000006E-002    -1.1173693889817999E-014
   4.8000000000000001E-002     3.1368061740698484E-014
   4.8300000000000010E-002    -4.5306852784502313E-014
   4.8600000000000004E-002    -4.9486410326385660E-014
   4.8899999999999999E-002     5.0833810340726120E-013
   4.9200000000000008E-002    -1.4943128605526742E-012
   4.9500000000000002E-002     1.7074781415268223E-012
   4.9800000000000011E-002     4.3328305570532521E-012
   5.0100000000000006E-002    -2.4763189264681165E-011
   5.0400000000000000E-002     4.5976169155833943E-011
   5.0700000000000009E-002     2.6051755098812587E-011
   5.1000000000000004E-002    -3.5105497068332574E-010
   5.1299999999999998E-002     7.0881248749853777E-010
   5.1600000000000007E-002     4.4630124118188129E-010
   5.1900000000000002E-002    -5.0168553678976239E-009
   5.2200000000000010E-002     7.0401747999816101E-009
   5.2500000000000005E-002     1.5689627477494039E-008
   5.2800000000000000E-002    -6.1445699960278632E-008
   5.3099999999999994E-002    -7.3615497292412883E-009
   5.3400000000000003E-002     3.1759174828565563E-007
   5.3699999999999998E-002    -2.2087671373504703E-007
   5.4000000000000006E-002    -1.4890421760652475E-006
   5.4300000000000001E-002     2.0299013531393132E-006
   5.4599999999999996E-002     1.3961281129863034E-005
   5.4900000000000004E-002     2.5230344678534081E-005
   5.5199999999999999E-002     2.6168871733580680E-005
   5.5499999999999994E-002     2.5681145112388770E-005
   5.5800000000000002E-002     3.9366242747326135E-005
   5.6099999999999997E-002     6.8950702495190880E-005
   5.6400000000000006E-002     1.0985154993035570E-004
   5.6700000000000000E-002     1.6356776757619235E-004
   5.6999999999999995E-002     2.3525144390564045E-004
   5.7300000000000004E-002     3.3380705228501224E-004
   5.7599999999999998E-002     4.7338629686750943E-004
   5.7900000000000007E-002     6.6733351859615049E-004
   5.8200000000000002E-002     9.2303189538591596E-004
   5.8499999999999996E-002     1.2440002902060789E-003
   5.8800000000000005E-002     1.6367846807943632E-003
   5.9100000000000000E-002     2.1077406092300552E-003
   5.9400000000000008E-002     2.6497290068514313E-003
   5.9700000000000003E-002     3.2435082541151933E-003
   6.0000000000000012E-002     3.8578983012781363E-003
   6.0300000000000006E-002     4.4273206881991593E-003
   6.0600000000000001E-002     4.8465653636198093E-003
   6.0900000000000010E-002     4.9866573577169310E-003
   6.1200000000000004E-002     4.6884631808976861E-003
   6.1500000000000013E-002     3.7489063467121614E-003
   6.1800000000000008E-002     1.9233603372405929E-003
   6.2100000000000002E-002    -1.0599507075424476E-003
   6.2399999999999997E-002    -5.4690726239108554E-003
   6.2700000000000006E-002    -1.1531759538574464E-002
   6.3000000000000000E-002    -1.9409630841793774E-002
   6.3300000000000009E-002    -2.9169523218270460E-002
   6.3600000000000004E-002    -4.0726801722944267E-002
   6.3899999999999998E-002    -5.3777116804430460E-002
   6.4199999999999993E-002    -6.7760080191499109E-002
   6.4500000000000002E-002    -8.1853541152703921E-002
   6.4800000000000010E-002    -9.4967903297158845E-002
   6.5100000000000005E-002   -0.10575820086764776     
   6.5400000000000000E-002   -0.11269212604917615     
   6.5700000000000008E-002   -0.11415660803674675     
   6.5999999999999989E-002   -0.10857853229725375     
   6.6299999999999998E-002    -9.4573071601589842E-002
   6.6600000000000006E-002    -7.1143089891617203E-002
   6.6900000000000001E-002    -3.7848428642939934E-002
   6.7199999999999996E-002     5.0751216170284276E-003
   6.7500000000000004E-002     5.6596990657736379E-002
   6.7800000000000013E-002    0.11486234967728870     
   6.8099999999999994E-002    0.17723084922965829     
   6.8400000000000002E-002    0.24040625943177296     
   6.8700000000000011E-002    0.30067694692840702     
   6.8999999999999992E-002    0.35413361530305626     
   6.9300000000000000E-002    0.39703040960340619     
   6.9600000000000009E-002    0.42613701271698234     
   6.9900000000000004E-002    0.43899754907641009     
   7.0199999999999999E-002    0.43418585025032069     
   7.0500000000000007E-002    0.41146345964726116     
   7.0800000000000016E-002    0.37181623258454666     
   7.1099999999999997E-002    0.31735416764113422     
   7.1400000000000005E-002    0.25107834656844313     
   7.1700000000000000E-002    0.17662736111021388     
   7.1999999999999995E-002     9.7943216530949881E-002
   7.2300000000000003E-002     1.8808712864342228E-002
   7.2600000000000012E-002    -5.7418651450253669E-002
   7.2900000000000006E-002   -0.12805208986136482     
   7.3200000000000001E-002   -0.19126129422271781     
   7.3499999999999996E-002   -0.24610673459770949     
   7.3800000000000004E-002   -0.29249674413695953     
   7.4099999999999999E-002   -0.33090279948953566     
   7.4400000000000008E-002   -0.36215562560842984     
   7.4700000000000003E-002   -0.38724421523393959     
   7.5000000000000011E-002   -0.40692584533966386     
   7.5299999999999992E-002   -0.42157238891329885     
   7.5600000000000001E-002   -0.43109014403938634     
   7.5900000000000009E-002   -0.43483975786987095     
   7.6200000000000004E-002   -0.43177886451736108     
   7.6499999999999999E-002   -0.42067722300779742     
   7.6800000000000007E-002   -0.40025685988589071     
   7.7099999999999988E-002   -0.36956069243941703     
   7.7399999999999997E-002   -0.32821021030361575     
   7.7700000000000005E-002   -0.27653033665913818     
   7.8000000000000014E-002   -0.21573887347030868     
   7.8299999999999995E-002   -0.14793910584213010     
   7.8600000000000003E-002    -7.5958195270341144E-002
   7.8900000000000012E-002    -3.2732738220901739E-003
   7.9199999999999993E-002     6.6301361174684617E-002
   7.9500000000000001E-002    0.12898901081579423     
   7.9800000000000010E-002    0.18117002616819033     
   8.0100000000000018E-002    0.21976247721099998     
   8.0399999999999999E-002    0.24247605806399974     
   8.0700000000000008E-002    0.24788415378504547     
   8.1000000000000003E-002    0.23552630133718500     
   8.1299999999999997E-002    0.20592976091866594     
   8.1600000000000006E-002    0.16050268899262454     
   8.1900000000000014E-002    0.10152976643751402     
   8.2199999999999995E-002     3.1955442776180842E-002
   8.2500000000000004E-002    -4.4747622580135725E-002
   8.2799999999999999E-002   -0.12456041460932482     
   8.3100000000000007E-002   -0.20327455534854044     
   8.3400000000000002E-002   -0.27656868348713881     
   8.3700000000000011E-002   -0.33998720310353514     
   8.4000000000000005E-002   -0.38933811988881095     
   8.4300000000000000E-002   -0.42087072475186293     
   8.4599999999999995E-002   -0.43138113900596664     
   8.4900000000000003E-002   -0.41846485722880067     
   8.5199999999999998E-002   -0.38075402014293963     
   8.5500000000000007E-002   -0.31819528059750157     
   8.5800000000000001E-002   -0.23213748658294042     
   8.6100000000000010E-002   -0.12525600772259368     
   8.6399999999999991E-002    -1.7505218244828237E-003
   8.6699999999999999E-002    0.13285615076667659     
   8.7000000000000008E-002    0.27218642158465611     
   8.7300000000000003E-002    0.40913393029542633     
   8.7599999999999997E-002    0.53641850423783977     
   8.7900000000000006E-002    0.64712188508568458     
   8.8200000000000014E-002    0.73509546327265440     
   8.8499999999999995E-002    0.79555684596644483     
   8.8800000000000004E-002    0.82531525261232397     
   8.9100000000000013E-002    0.82304443759285217     
   8.9399999999999993E-002    0.78952029449597616     
   8.9700000000000002E-002    0.72738750310948352     
   9.0000000000000011E-002    0.64103820544323209     
   9.0299999999999991E-002    0.53632550312262905     
   9.0600000000000000E-002    0.42003214690705121     
   9.0900000000000009E-002    0.29941232496877024     
   9.1200000000000017E-002    0.18167209539777457     
   9.1499999999999998E-002     7.3423357387954857E-002
   9.1800000000000007E-002    -1.9682260530402472E-002
   9.2100000000000001E-002    -9.3311378531429887E-002
   9.2399999999999996E-002   -0.14477388618975334     
   9.2700000000000005E-002   -0.17313445973518024     
   9.3000000000000013E-002   -0.17902278930775720     
   9.3300000000000008E-002   -0.16465646012446578     
   9.3600000000000003E-002   -0.13361844253726202     
   9.3899999999999997E-002    -9.0476718069837869E-002
   9.4200000000000006E-002    -4.0375295716875176E-002
   9.4500000000000001E-002     1.1255718276738070E-002
   9.4800000000000009E-002     5.9166400660657495E-002
   9.5100000000000004E-002     9.8538082122910736E-002
   9.5399999999999999E-002    0.12532384396090074     
   9.5699999999999993E-002    0.13654411408645600     
   9.6000000000000002E-002    0.13025836269517010     
   9.6300000000000011E-002    0.10570364970104595     
   9.6600000000000005E-002     6.3303647015363659E-002
   9.6900000000000000E-002     4.3565544632869994E-003
   9.7200000000000009E-002    -6.8855226698678745E-002
   9.7499999999999989E-002   -0.15334889708425989     
   9.7799999999999998E-002   -0.24588287472365652     
   9.8100000000000007E-002   -0.34272273692062544     
   9.8400000000000015E-002   -0.44005911410115922     
   9.8699999999999996E-002   -0.53428083413275118     
   9.9000000000000005E-002   -0.62174573932759958     
   9.9300000000000013E-002   -0.69917225637388880     
   9.9599999999999994E-002   -0.76359025919723889     
   9.9900000000000003E-002   -0.81224466273088702     
  0.10020000000000001        -0.84301763535117058     
  0.10049999999999999        -0.85407622411847672     
  0.10080000000000000        -0.84397842423216407     
  0.10110000000000001        -0.81212334140833498     
  0.10140000000000000        -0.75832046580122747     
  0.10170000000000000        -0.68313774736071919     
  0.10200000000000001        -0.58811489928139227     
  0.10230000000000002        -0.47533403683860920     
  0.10260000000000000        -0.34780119326410963     
  0.10290000000000001        -0.20938818210562482     
  0.10320000000000000         -6.4465078510631713E-002
  0.10350000000000001          8.1952087525224995E-002
  0.10380000000000000         0.22474496917072692     
  0.10410000000000001         0.35854079270291406     
  0.10440000000000001         0.47829722002854902     
  0.10470000000000000         0.57972943981613723     
  0.10500000000000000         0.65914517706990083     
  0.10530000000000000         0.71390553050737848     
  0.10560000000000000         0.74281641575839663     
  0.10590000000000001         0.74576956764066282     
  0.10620000000000000         0.72393302561005812     
  0.10650000000000001         0.67973344858214080     
  0.10679999999999999         0.61635035959188378     
  0.10710000000000000         0.53775615578582947     
  0.10740000000000001         0.44813937184674291     
  0.10770000000000000         0.35151457226056260     
  0.10800000000000000         0.25175655015673160     
  0.10830000000000001         0.15193557059568258     
  0.10859999999999999          5.4308634133840239E-002
  0.10890000000000000         -3.9395964223102237E-002
  0.10920000000000001        -0.12828640284899656     
  0.10950000000000001        -0.21200792107103969     
  0.10979999999999999        -0.29016139283728254     
  0.11009999999999999        -0.36224267606515909     
  0.11040000000000001        -0.42722532841784083     
  0.11070000000000001        -0.48321617829361330     
  0.11100000000000000        -0.52747907601549326     
  0.11130000000000000        -0.55639553480741788     
  0.11160000000000002        -0.56560855078553729     
  0.11190000000000001        -0.55051098180400448     
  0.11220000000000001        -0.50681886538573706     
  0.11250000000000000        -0.43106957639867466     
  0.11280000000000000        -0.32125054765299532     
  0.11309999999999999        -0.17740782305979913     
  0.11340000000000001         -2.0187897055016744E-003
  0.11369999999999998         0.19996884525235048     
  0.11400000000000000         0.42122825569597222     
  0.11430000000000000         0.65241061299359560     
  0.11460000000000002         0.88252728420989845     
  0.11489999999999999          1.1000789231049652     
  0.11520000000000001          1.2940273304785992     
  0.11550000000000001          1.4541815370628450     
  0.11580000000000000          1.5722059670367416     
  0.11609999999999999          1.6424229549349376     
  0.11640000000000002          1.6617262931952552     
  0.11670000000000001          1.6298205782510107     
  0.11700000000000001          1.5490201848963616     
  0.11730000000000000          1.4237265332539875     
  0.11760000000000000          1.2599094746332189     
  0.11789999999999999          1.0643973173477774     
  0.11820000000000001         0.84441067552828852     
  0.11850000000000001         0.60679903726030981     
  0.11880000000000000         0.35798701033258229     
  0.11910000000000000         0.10356842160616375     
  0.11940000000000002        -0.15155886199259569     
  0.11970000000000001        -0.40307935185904309     
  0.12000000000000001        -0.64714434319978453     
  0.12030000000000000        -0.87988759998899968     
  0.12060000000000000         -1.0973443884475758     
  0.12089999999999999         -1.2954087737609798     
  0.12119999999999999         -1.4696755671186275     
  0.12150000000000001         -1.6153352972428452     
  0.12180000000000001         -1.7279082020740588     
  0.12210000000000000         -1.8031778171777320     
  0.12239999999999999         -1.8375187393459798     
  0.12270000000000002         -1.8284767830887028     
  0.12300000000000001         -1.7748087056521642     
  0.12330000000000001         -1.6768700877209997     
  0.12360000000000000         -1.5367611671160697     
  0.12390000000000000         -1.3580796783424307     
  0.12419999999999999         -1.1460884359875942     
  0.12450000000000001        -0.90730608214156705     
  0.12480000000000001        -0.64945667116959727     
  0.12509999999999999        -0.38124199725919855     
  0.12540000000000001        -0.11135719726632021     
  0.12570000000000003         0.15086551121710862     
  0.12600000000000000         0.39609669610748804     
  0.12630000000000002         0.61603295541496594     
  0.12659999999999999         0.80247650845523300     
  0.12690000000000001         0.94839440311027112     
  0.12719999999999998          1.0483444788517935     
  0.12750000000000000          1.0979205025198393     
  0.12780000000000002          1.0950447482370183     
  0.12809999999999999          1.0397289058512929     
  0.12840000000000001         0.93395320646687696     
  0.12869999999999998         0.78262818097567166     
  0.12900000000000000         0.59283402197860924     
  0.12930000000000003         0.37386222911551442     
  0.12959999999999999         0.13732835930450760     
  0.12990000000000002        -0.10399721591265898     
  0.13019999999999998        -0.33647056805215259     
  0.13050000000000000        -0.54634976563523274     
  0.13080000000000003        -0.72095016424338687     
  0.13109999999999999        -0.84894223535951929     
  0.13140000000000002        -0.92184125791969251     
  0.13169999999999998        -0.93443761430921723     
  0.13200000000000001        -0.88485302057283288     
  0.13229999999999997        -0.77559716489619457     
  0.13260000000000000        -0.61287035441209747     
  0.13290000000000002        -0.40622043010984077     
  0.13319999999999999        -0.16863251890202022     
  0.13350000000000001          8.5217901755982234E-002
  0.13380000000000003         0.33958868858916968     
  0.13410000000000000         0.57817877105348026     
  0.13440000000000002         0.78635909498499101     
  0.13469999999999999         0.95145201438869609     
  0.13500000000000001          1.0632135387650510     
  0.13529999999999998          1.1154736669031893     
  0.13560000000000000          1.1057437394091068     
  0.13590000000000002          1.0351928971348154     
  0.13619999999999999         0.90908130819125554     
  0.13650000000000001         0.73587480091513680     
  0.13680000000000003         0.52644859102475472     
  0.13710000000000000         0.29378974056023266     
  0.13740000000000002          5.1724967771610286E-002
  0.13769999999999999        -0.18594464017834270     
  0.13800000000000001        -0.40589460067363897     
  0.13829999999999998        -0.59645254462372577     
  0.13860000000000000        -0.74815844640531382     
  0.13890000000000002        -0.85355778007033645     
  0.13919999999999999        -0.90812515217529921     
  0.13950000000000001        -0.91039747327822884     
  0.13979999999999998        -0.86092619472444365     
  0.14010000000000000        -0.76298554987820866     
  0.14040000000000002        -0.62232221029414303     
  0.14069999999999999        -0.44598450760234454     
  0.14100000000000001        -0.24259667840583454     
  0.14130000000000004         -2.1947273219236826E-002
  0.14160000000000000         0.20591290163418097     
  0.14189999999999997         0.43035603543802159     
  0.14219999999999999         0.64109364208925534     
  0.14250000000000002         0.82855630222846910     
  0.14279999999999998         0.98370395893834228     
  0.14310000000000000          1.0992405019973925     
  0.14339999999999997          1.1693309184441829     
  0.14369999999999999          1.1898531256243441     
  0.14400000000000002          1.1593899200421967     
  0.14429999999999998          1.0785949892902740     
  0.14460000000000001         0.95038399944871954     
  0.14490000000000003         0.78042132801462960     
  0.14520000000000000         0.57615124781982963     
  0.14550000000000002         0.34699089835009189     
  0.14579999999999999         0.10380199782636151     
  0.14610000000000001        -0.14207544849607923     
  0.14640000000000003        -0.37854063836910717     
  0.14670000000000000        -0.59407376066932593     
  0.14699999999999996        -0.77835557563520341     
  0.14729999999999999        -0.92207482838859867     
  0.14760000000000001         -1.0183176717272011     
  0.14789999999999998         -1.0628692936135806     
  0.14820000000000000         -1.0537369813079556     