  -1.4999999999999999E-002     0.0000000000000000     
  -1.4700000000000000E-002     0.0000000000000000     
  -1.4400000000000000E-002     0.0000000000000000     
  -1.4100000000000000E-002     0.0000000000000000     
  -1.3800000000000000E-002     0.0000000000000000     
  -1.3500000000000000E-002     0.0000000000000000     
  -1.3200000000000000E-002     0.0000000000000000     
  -1.2899999999999998E-002     0.0000000000000000     
  -1.2600000000000000E-002     0.0000000000000000     
  -1.2299999999999998E-002     0.0000000000000000     
  -1.2000000000000000E-002     0.0000000000000000     
  -1.1699999999999999E-002     0.0000000000000000     
  -1.1399999999999999E-002     0.0000000000000000     
  -1.1099999999999999E-002     0.0000000000000000     
  -1.0799999999999999E-002     0.0000000000000000     
  -1.0499999999999999E-002     0.0000000000000000     
  -1.0199999999999999E-002     0.0000000000000000     
  -9.8999999999999991E-003     0.0000000000000000     
  -9.5999999999999992E-003     0.0000000000000000     
  -9.2999999999999992E-003     0.0000000000000000     
  -8.9999999999999993E-003     0.0000000000000000     
  -8.6999999999999994E-003     0.0000000000000000     
  -8.3999999999999995E-003     0.0000000000000000     
  -8.0999999999999996E-003     0.0000000000000000     
  -7.7999999999999988E-003     0.0000000000000000     
  -7.4999999999999997E-003     0.0000000000000000     
  -7.1999999999999998E-003     0.0000000000000000     
  -6.8999999999999981E-003     0.0000000000000000     
  -6.5999999999999982E-003     0.0000000000000000     
  -6.3000000000000000E-003     0.0000000000000000     
  -6.0000000000000001E-003     0.0000000000000000     
  -5.6999999999999985E-003     0.0000000000000000     
  -5.3999999999999986E-003     0.0000000000000000     
  -5.1000000000000004E-003     0.0000000000000000     
  -4.7999999999999987E-003     0.0000000000000000     
  -4.5000000000000005E-003     0.0000000000000000     
  -4.1999999999999989E-003     0.0000000000000000     
  -3.8999999999999990E-003     0.0000000000000000     
  -3.5999999999999990E-003     0.0000000000000000     
  -3.2999999999999991E-003     0.0000000000000000     
  -2.9999999999999992E-003     0.0000000000000000     
  -2.6999999999999993E-003     0.0000000000000000     
  -2.3999999999999994E-003     0.0000000000000000     
  -2.0999999999999977E-003     0.0000000000000000     
  -1.7999999999999995E-003     0.0000000000000000     
  -1.4999999999999979E-003     0.0000000000000000     
  -1.1999999999999997E-003     0.0000000000000000     
  -8.9999999999999976E-004     0.0000000000000000     
  -5.9999999999999810E-004     0.0000000000000000     
  -2.9999999999999992E-004     0.0000000000000000     
   0.0000000000000000          0.0000000000000000     
   3.0000000000000165E-004     0.0000000000000000     
   5.9999999999999984E-004     0.0000000000000000     
   9.0000000000000149E-004     0.0000000000000000     
   1.2000000000000031E-003     0.0000000000000000     
   1.5000000000000013E-003     0.0000000000000000     
   1.8000000000000030E-003     0.0000000000000000     
   2.1000000000000012E-003     0.0000000000000000     
   2.3999999999999994E-003     0.0000000000000000     
   2.7000000000000010E-003     0.0000000000000000     
   2.9999999999999992E-003     0.0000000000000000     
   3.3000000000000008E-003     0.0000000000000000     
   3.6000000000000025E-003     0.0000000000000000     
   3.9000000000000007E-003     0.0000000000000000     
   4.2000000000000023E-003     0.0000000000000000     
   4.5000000000000005E-003     0.0000000000000000     
   4.7999999999999987E-003     0.0000000000000000     
   5.1000000000000004E-003     0.0000000000000000     
   5.4000000000000020E-003     0.0000000000000000     
   5.7000000000000037E-003     0.0000000000000000     
   5.9999999999999984E-003     0.0000000000000000     
   6.3000000000000000E-003     0.0000000000000000     
   6.6000000000000017E-003     0.0000000000000000     
   6.9000000000000034E-003     0.0000000000000000     
   7.2000000000000015E-003     0.0000000000000000     
   7.5000000000000032E-003     0.0000000000000000     
   7.8000000000000014E-003     0.0000000000000000     
   8.0999999999999996E-003     0.0000000000000000     
   8.4000000000000012E-003     0.0000000000000000     
   8.7000000000000029E-003     0.0000000000000000     
   9.0000000000000011E-003     0.0000000000000000     
   9.2999999999999992E-003     0.0000000000000000     
   9.6000000000000009E-003     0.0000000000000000     
   9.8999999999999991E-003     0.0000000000000000     
   1.0200000000000001E-002     0.0000000000000000     
   1.0500000000000002E-002     0.0000000000000000     
   1.0800000000000004E-002     0.0000000000000000     
   1.1099999999999999E-002     0.0000000000000000     
   1.1400000000000000E-002     0.0000000000000000     
   1.1700000000000002E-002     0.0000000000000000     
   1.2000000000000004E-002     0.0000000000000000     
   1.2300000000000002E-002     0.0000000000000000     
   1.2600000000000000E-002     0.0000000000000000     
   1.2900000000000002E-002     0.0000000000000000     
   1.3200000000000000E-002     0.0000000000000000     
   1.3500000000000002E-002     0.0000000000000000     
   1.3800000000000003E-002     0.0000000000000000     
   1.4100000000000001E-002     0.0000000000000000     
   1.4400000000000000E-002     0.0000000000000000     
   1.4700000000000001E-002     0.0000000000000000     
   1.4999999999999999E-002     0.0000000000000000     
   1.5300000000000001E-002     0.0000000000000000     
   1.5600000000000003E-002     0.0000000000000000     
   1.5899999999999997E-002     0.0000000000000000     
   1.6199999999999999E-002     0.0000000000000000     
   1.6500000000000001E-002     0.0000000000000000     
   1.6800000000000002E-002     0.0000000000000000     
   1.7100000000000004E-002     0.0000000000000000     
   1.7400000000000006E-002     0.0000000000000000     
   1.7700000000000000E-002     0.0000000000000000     
   1.8000000000000002E-002     0.0000000000000000     
   1.8300000000000004E-002     0.0000000000000000     
   1.8600000000000005E-002     0.0000000000000000     
   1.8900000000000000E-002     0.0000000000000000     
   1.9200000000000002E-002     0.0000000000000000     
   1.9500000000000003E-002     0.0000000000000000     
   1.9799999999999998E-002     0.0000000000000000     
   2.0100000000000000E-002     0.0000000000000000     
   2.0400000000000001E-002     0.0000000000000000     
   2.0700000000000003E-002     0.0000000000000000     
   2.0999999999999998E-002     0.0000000000000000     
   2.1299999999999999E-002     0.0000000000000000     
   2.1600000000000001E-002     0.0000000000000000     
   2.1900000000000003E-002     0.0000000000000000     
   2.2200000000000004E-002     0.0000000000000000     
   2.2500000000000006E-002     0.0000000000000000     
   2.2800000000000001E-002     0.0000000000000000     
   2.3100000000000002E-002     0.0000000000000000     
   2.3400000000000004E-002     0.0000000000000000     
   2.3699999999999999E-002     0.0000000000000000     
   2.4000000000000000E-002     0.0000000000000000     
   2.4300000000000002E-002     0.0000000000000000     
   2.4599999999999997E-002     0.0000000000000000     
   2.4900000000000005E-002     0.0000000000000000     
   2.5200000000000000E-002    -8.6046878668638836E-043
   2.5499999999999995E-002    -1.5179509231557034E-041
   2.5800000000000003E-002    -5.1507614288541016E-041
   2.6099999999999998E-002    -2.9212151986735833E-038
   2.6400000000000007E-002     1.8635601876559821E-037
   2.6700000000000002E-002     5.1324085058690462E-036
   2.6999999999999996E-002    -2.6132962706416277E-035
   2.7300000000000005E-002     8.5111636537308888E-035
   2.7600000000000000E-002     2.7836249364594180E-034
   2.7900000000000008E-002    -3.1181545336830968E-033
   2.8200000000000003E-002     9.6629709568004970E-033
   2.8499999999999998E-002    -2.4482326869277751E-032
   2.8800000000000006E-002     5.5808602474531487E-032
   2.9100000000000001E-002    -1.2197545603559892E-031
   2.9400000000000003E-002     2.3069447219494896E-031
   2.9700000000000004E-002    -2.9100295463542429E-031
   3.0000000000000006E-002    -1.8032062163824181E-031
   3.0300000000000001E-002     2.8851451312454218E-030
   3.0600000000000002E-002    -1.2635433512359380E-029
   3.0900000000000004E-002     4.0652325298731927E-029
   3.1199999999999999E-002    -1.0733175724386566E-028
   3.1500000000000007E-002     2.3399444636773084E-028
   3.1800000000000002E-002    -3.9061878698872499E-028
   3.2099999999999997E-002     3.2444059553474215E-028
   3.2400000000000005E-002     8.4481956039076247E-028
   3.2700000000000000E-002    -5.2901912914048058E-027
   3.3000000000000002E-002     1.6867758108473926E-026
   3.3300000000000003E-002    -3.9027288869370430E-026
   3.3599999999999998E-002     6.4844246110045239E-026
   3.3900000000000000E-002    -5.0967659847951970E-026
   3.4200000000000001E-002    -1.2609719961561227E-025
   3.4500000000000003E-002     6.9538714697841440E-025
   3.4799999999999998E-002    -1.8672307643404856E-024
   3.5099999999999999E-002     3.2938774769651942E-024
   3.5400000000000001E-002    -2.8709439701891712E-024
   3.5699999999999996E-002    -4.6628343815718105E-024
   3.6000000000000004E-002     2.6786776479661956E-023
   3.6299999999999999E-002    -6.4245418732953017E-023
   3.6600000000000008E-002     8.8413410762807948E-023
   3.6900000000000002E-002    -1.3026738752242287E-023
   3.7199999999999997E-002    -2.9317507448230212E-022
   3.7500000000000006E-002     8.5895927278565460E-022
   3.7800000000000000E-002    -1.2681860148735042E-021
   3.8100000000000009E-002     3.4565067907118357E-022
   3.8400000000000004E-002     3.3212327302017617E-021
   3.8699999999999998E-002    -8.8973348780325490E-021
   3.9000000000000007E-002     9.2600822732109990E-021
   3.9300000000000002E-002     9.2498806809421147E-021
   3.9600000000000003E-002    -5.2186667049638720E-020
   3.9900000000000005E-002     8.1208660402958643E-020
   4.0200000000000000E-002     1.9355389755562215E-020
   4.0500000000000001E-002    -4.0774619430055169E-019
   4.0800000000000003E-002     1.1292467573767104E-018
   4.1100000000000005E-002    -1.8952095791141030E-018
   4.1399999999999999E-002     1.7424179480536189E-018
   4.1700000000000008E-002     2.6544025394021877E-018
   4.2000000000000003E-002    -2.3083786041567535E-017
   4.2299999999999997E-002     8.7666077879555242E-017
   4.2600000000000006E-002    -2.1110349281946957E-016
   4.2900000000000001E-002     2.0702885959634470E-016
   4.3200000000000002E-002     7.6336422781591253E-016
   4.3500000000000004E-002    -4.3306018125630969E-015
   4.3799999999999999E-002     9.9867479916548633E-015
   4.4100000000000000E-002    -4.2930888965576578E-015
   4.4400000000000002E-002    -5.2804145474645936E-014
   4.4700000000000004E-002     1.9388774123730798E-013
   4.4999999999999998E-002    -2.4419173476197516E-013
   4.5300000000000000E-002    -5.2708139139563870E-013
   4.5600000000000002E-002     3.0130325988917933E-012
   4.5899999999999996E-002    -4.8128864456070228E-012
   4.6200000000000005E-002    -6.1091849140893028E-012
   4.6500000000000000E-002     4.3991195322891794E-011
   4.6799999999999994E-002    -6.5494679373582906E-011
   4.7100000000000003E-002    -1.1493118568617784E-010
   4.7399999999999998E-002     6.1210319999713172E-010
   4.7700000000000006E-002    -5.0415067452006647E-010
   4.8000000000000001E-002    -2.5430997575102436E-009
   4.8300000000000010E-002     6.7582218995942345E-009
   4.8600000000000004E-002     4.3621160893989950E-009
   4.8899999999999999E-002    -4.1653845797288109E-008
   4.9200000000000008E-002     1.5986199296424771E-008
   4.9500000000000002E-002     1.9459736164121979E-007
   4.9800000000000011E-002    -2.0942691032268943E-007
   5.0100000000000006E-002    -8.7149567440159517E-007
   5.0400000000000000E-002     2.3985310680156828E-006
   5.0700000000000009E-002     1.3828742140677316E-005
   5.1000000000000004E-002     2.9541567794916208E-005
   5.1299999999999998E-002     4.1442201842950218E-005
   5.1600000000000007E-002     5.1612853595666169E-005
   5.1900000000000002E-002     7.3003546276186428E-005
   5.2200000000000010E-002     1.1469861049145193E-004
   5.2500000000000005E-002     1.7674642479055286E-004
   5.2800000000000000E-002     2.6026768341755622E-004
   5.3099999999999994E-002     3.7694027952453788E-004
   5.3400000000000003E-002     5.4897315755310545E-004
   5.3699999999999998E-002     7.9967024049819205E-004
   5.4000000000000006E-002     1.1442269354204871E-003
   5.4300000000000001E-002     1.5950058363436532E-003
   5.4599999999999996E-002     2.1751596212252157E-003
   5.4900000000000004E-002     2.9184162733251980E-003
   5.5199999999999999E-002     3.8503916584390905E-003
   5.5499999999999994E-002     4.9721902196605602E-003
   5.5800000000000002E-002     6.2655517752167357E-003
   5.6099999999999997E-002     7.6987264605798220E-003
   5.6400000000000006E-002     9.2027135374226736E-003
   5.6700000000000000E-002     1.0642042846290627E-002
   5.6999999999999995E-002     1.1814384706844896E-002
   5.7300000000000004E-002     1.2456367836519034E-002
   5.7599999999999998E-002     1.2229319477176653E-002
   5.7900000000000007E-002     1.0701973400092192E-002
   5.8200000000000002E-002     7.3629901244486005E-003
   5.8499999999999996E-002     1.6630083894078906E-003
   5.8800000000000005E-002    -6.9343375562218998E-003
   5.9100000000000000E-002    -1.8904544483689844E-002
   5.9400000000000008E-002    -3.4590418708204909E-002
   5.9700000000000003E-002    -5.4094707249946763E-002
   6.0000000000000012E-002    -7.7180810536317090E-002
   6.0300000000000006E-002   -0.10317611350981803     
   6.0600000000000001E-002   -0.13087789296736635     
   6.0900000000000010E-002   -0.15850310410500618     
   6.1200000000000004E-002   -0.18368662850318138     
   6.1500000000000013E-002   -0.20354246431039294     
   6.1800000000000008E-002   -0.21478210620921162     
   6.2100000000000002E-002   -0.21393740107998840     
   6.2399999999999997E-002   -0.19766956421152376     
   6.2700000000000006E-002   -0.16311083338017221     
   6.3000000000000000E-002   -0.10827314258315172     
   6.3300000000000009E-002    -3.2406363580783172E-002
   6.3600000000000004E-002     6.3639019502443411E-002
   6.3899999999999998E-002    0.17716231205253918     
   6.4199999999999993E-002    0.30353635712189597     
   6.4500000000000002E-002    0.43620729881150649     
   6.4800000000000010E-002    0.56701839131625742     
   6.5100000000000005E-002    0.68673105379273269     
   6.5400000000000000E-002    0.78558821588714256     
   6.5700000000000008E-002    0.85414775963486989     
   6.5999999999999989E-002    0.88414779490669715     
   6.6299999999999998E-002    0.86930725525425534     
   6.6600000000000006E-002    0.80613291522345620     
   6.6900000000000001E-002    0.69432458778250328     
   6.7199999999999996E-002    0.53714521148423600     
   6.7500000000000004E-002    0.34137554325518960     
   6.7800000000000013E-002    0.11692112791118101     
   6.8099999999999994E-002   -0.12369127726847855     
   6.8400000000000002E-002   -0.36646169521885341     
   6.8700000000000011E-002   -0.59677006028051616     
   6.8999999999999992E-002   -0.80050086004851517     
   6.9300000000000000E-002   -0.96531968314370320     
   6.9600000000000009E-002    -1.0812948287087305     
   6.9900000000000004E-002    -1.1419340604283144     
   7.0199999999999999E-002    -1.1444192526340362     
   7.0500000000000007E-002    -1.0895967457334468     
   7.0800000000000016E-002   -0.98221213758675452     
   7.1099999999999997E-002   -0.83001471024094620     
   7.1400000000000005E-002   -0.64318199566772360     
   7.1700000000000000E-002   -0.43378674821321794     
   7.1999999999999995E-002   -0.21451404662876467     
   7.2300000000000003E-002     1.8626817108916664E-003
   7.2600000000000012E-002    0.20334046354493723     
   7.2900000000000006E-002    0.37952744193301063     
   7.3200000000000001E-002    0.52171042145318625     
   7.3499999999999996E-002    0.62356176943879060     
   7.3800000000000004E-002    0.68119766252419112     
   7.4099999999999999E-002    0.69288661747249269     
   7.4400000000000008E-002    0.65954873646656664     
   7.4700000000000003E-002    0.58406579401371050     
   7.5000000000000011E-002    0.47128210894984623     
   7.5299999999999992E-002    0.32780818464001160     
   7.5600000000000001E-002    0.16127817201967923     
   7.5900000000000009E-002    -1.9503822109657388E-002
   7.6200000000000004E-002   -0.20514640796195549     
   7.6499999999999999E-002   -0.38623215099543695     
   7.6800000000000007E-002   -0.55340424031791213     
   7.7099999999999988E-002   -0.69811737065789248     
   7.7399999999999997E-002   -0.81287515082643924     
   7.7700000000000005E-002   -0.89154420989883676     
   7.8000000000000014E-002   -0.92999818244242416     
   7.8299999999999995E-002   -0.92605017180498539     
   7.8600000000000003E-002   -0.87968164408300553     
   7.8900000000000012E-002   -0.79323611611435962     
   7.9199999999999993E-002   -0.67101110311516621     
   7.9500000000000001E-002   -0.51917804449630700     
   7.9800000000000010E-002   -0.34529704233933090     
   8.0100000000000018E-002   -0.15787364110456700     
   8.0399999999999999E-002     3.4226834394980782E-002
   8.0700000000000008E-002    0.22243290588278253     
   8.1000000000000003E-002    0.39884235356542364     
   8.1299999999999997E-002    0.55695899147291839     
   8.1600000000000006E-002    0.69184945001045894     
   8.1900000000000014E-002    0.80043951213189313     
   8.2199999999999995E-002    0.88155343630032568     
   8.2500000000000004E-002    0.93564691301651592     
   8.2799999999999999E-002    0.96492595133804304     
   8.3100000000000007E-002    0.97254968232588190     
   8.3400000000000002E-002    0.96231075042140901     
   8.3700000000000011E-002    0.93827102989275635     
   8.4000000000000005E-002    0.90404222418885061     
   8.4300000000000000E-002    0.86270233081974679     
   8.4599999999999995E-002    0.81625499690478298     
   8.4900000000000003E-002    0.76556743250096138     
   8.5199999999999998E-002    0.71058538345696021     
   8.5500000000000007E-002    0.65014480510813533     
   8.5800000000000001E-002    0.58262709490057252     
   8.6100000000000010E-002    0.50616636292647166     
   8.6399999999999991E-002    0.41890088026863626     
   8.6699999999999999E-002    0.31990189713579820     
   8.7000000000000008E-002    0.20899425347191525     
   8.7300000000000003E-002     8.7273991919859142E-002
   8.7599999999999997E-002    -4.2683868278007638E-002
   8.7900000000000006E-002   -0.17727604713591349     
   8.8200000000000014E-002   -0.31157216469833160     
   8.8499999999999995E-002   -0.44012731015719758     
   8.8800000000000004E-002   -0.55728022790630283     
   8.9100000000000013E-002   -0.65748455177995901     
   8.9399999999999993E-002   -0.73632687358479276     
   8.9700000000000002E-002   -0.79046675517755338     
   9.0000000000000011E-002   -0.81818466261345679     
   9.0299999999999991E-002   -0.81977719173684460     
   9.0600000000000000E-002   -0.79696651953511610     
   9.0900000000000009E-002   -0.75338988308205224     
   9.1200000000000017E-002   -0.69370522117249078     
   9.1499999999999998E-002   -0.62315278363352200     
   9.1800000000000007E-002   -0.54754143913463549     
   9.2100000000000001E-002   -0.47182937241242962     
   9.2399999999999996E-002   -0.40019605757817422     
   9.2700000000000005E-002   -0.33567717902720018     
   9.3000000000000013E-002   -0.27961396410618983     
   9.3300000000000008E-002   -0.23195599933227457     
   9.3600000000000003E-002   -0.19109316008412766     
   9.3899999999999997E-002   -0.15422638710861281     
   9.4200000000000006E-002   -0.11818961774229739     
   9.4500000000000001E-002    -7.9259288155357405E-002
   9.4800000000000009E-002    -3.4065867719792357E-002
   9.5100000000000004E-002     1.9821115273679281E-002
   9.5399999999999999E-002     8.3866604070397130E-002
   9.5699999999999993E-002    0.15794594160755743     
   9.6000000000000002E-002    0.24053264112138689     
   9.6300000000000011E-002    0.32853006215671765     
   9.6600000000000005E-002    0.41726052518681839     
   9.6900000000000000E-002    0.50132903689664821     
   9.7200000000000009E-002    0.57443427556443161     
   9.7499999999999989E-002    0.63005157238166598     
   9.7799999999999998E-002    0.66204833290361020     
   9.8100000000000007E-002    0.66494150131756691     
   9.8400000000000015E-002    0.63464404971030031     
   9.8699999999999996E-002    0.56841524677831856     
   9.9000000000000005E-002    0.46533948680293735     
   9.9300000000000013E-002    0.32669878594836865     
   9.9599999999999994E-002    0.15546556315446136     
   9.9900000000000003E-002    -4.3265453763182221E-002
  0.10020000000000001        -0.26278342459109333     
  0.10049999999999999        -0.49508474784785972     
  0.10080000000000000        -0.73094661148353701     
  0.10110000000000001        -0.96066466443893050     
  0.10140000000000000         -1.1742671299414960     
  0.10170000000000000         -1.3619165543783889     
  0.10200000000000001         -1.5145259522118999     
  0.10230000000000002         -1.6238071723193324     
  0.10260000000000000         -1.6826819601331779     
  0.10290000000000001         -1.6857385062974728     
  0.10320000000000000         -1.6291060969271036     
  0.10350000000000001         -1.5110099142177500     
  0.10380000000000000         -1.3315196074274414     
  0.10410000000000001         -1.0930019824659178     
  0.10440000000000001        -0.80007745358347493     
  0.10470000000000000        -0.45945567369721263     
  0.10500000000000000         -8.0335790976908517E-002
  0.10530000000000000         0.32624960504971801     
  0.10560000000000000         0.74745367387571415     
  0.10590000000000001          1.1688353482739264     
  0.10620000000000000          1.5753957373742700     
  0.10650000000000001          1.9513463865441949     
  0.10679999999999999          2.2815617866908462     
  0.10710000000000000          2.5523797280475247     
  0.10740000000000001          2.7517001853545779     
  0.10770000000000000          2.8704400379900017     
  0.10800000000000000          2.9028908831399480     
  0.10830000000000001          2.8470187704131327     
  0.10859999999999999          2.7052748683235026     
  0.10890000000000000          2.4838357929576720     
  0.10920000000000001          2.1928990213509869     
  0.10950000000000001          1.8461416030278919     
  0.10979999999999999          1.4593392515018482     
  0.11009999999999999          1.0499654144953594     
  0.11040000000000001         0.63623804668362405     
  0.11070000000000001         0.23522253884551142     
  0.11100000000000000        -0.13770238302769985     
  0.11130000000000000        -0.46954636900922753     
  0.11160000000000002        -0.75104739916276653     
  0.11190000000000001        -0.97672295999746517     
  0.11220000000000001         -1.1449102761169758     
  0.11250000000000000         -1.2575886255801556     
  0.11280000000000000         -1.3200520402524973     
  0.11309999999999999         -1.3397209072516607     
  0.11340000000000001         -1.3254633093722621     
  0.11369999999999998         -1.2864974770983224     
  0.11400000000000000         -1.2315981923289452     
  0.11430000000000000         -1.1681527575968527     
  0.11460000000000002         -1.1014068239298318     
  0.11489999999999999         -1.0349650992741062     
  0.11520000000000001        -0.97008023478099736     
  0.11550000000000001        -0.90627805774204373     
  0.11580000000000000        -0.84250458164625364     
  0.11609999999999999        -0.77666868849132564     
  0.11640000000000002        -0.70762277622642178     
  0.11670000000000001        -0.63523244465769935     
  0.11700000000000001        -0.56003156838095203     
  0.11730000000000000        -0.48531990082930143     
  0.11760000000000000        -0.41505626677879703     
  0.11789999999999999        -0.35389124350802015     
  0.11820000000000001        -0.30776384219128428     
  0.11850000000000001        -0.28097780564247776     
  0.11880000000000000        -0.27684921652659045     
  0.11910000000000000        -0.29703612465095203     
  0.11940000000000002        -0.33954750335725892     
  0.11970000000000001        -0.40035645589785918     
  0.12000000000000001        -0.47274528636030255     
  0.12030000000000000        -0.54709087577434556     
  0.12060000000000000        -0.61311674179698072     
  0.12089999999999999        -0.66006018322002069     
  0.12119999999999999        -0.67767593347898725     
  0.12150000000000001        -0.65803081181179446     
  0.12180000000000001        -0.59562049730342093     
  0.12210000000000000        -0.48888708490578536     
  0.12239999999999999        -0.34017175873324240     
  0.12270000000000002        -0.15539314681302105     
  0.12300000000000001          5.5632615125364535E-002
  0.12330000000000001         0.28055313178290597     
  0.12360000000000000         0.50525137320831781     
  0.12390000000000000         0.71514912003089848     
  0.12419999999999999         0.89662504133144350     
  0.12450000000000001          1.0377625367367915     
  0.12480000000000001          1.1297301894851062     
  0.12509999999999999          1.1677916835847515     
  0.12540000000000001          1.1506853667771568     
  0.12570000000000003          1.0815210711470558     
  0.12600000000000000         0.96739890982749288     
  0.12630000000000002         0.81772732010738203     
  0.12659999999999999         0.64420855969879987     
  0.12690000000000001         0.45947903590846917     
  0.12719999999999998         0.27548155215352654     
  0.12750000000000000         0.10332980122834728     
  0.12780000000000002         -4.8431303535600406E-002
  0.12809999999999999        -0.17379181324855542     
  0.12840000000000001        -0.26908790477842703     
  0.12869999999999998        -0.33417220468518039     
  0.12900000000000000        -0.37066582707014906     
  0.12930000000000003        -0.38159029548868095     
  0.12959999999999999        -0.37172513224092152     
  0.12990000000000002        -0.34538025060653865     
  0.13019999999999998        -0.30690990585329775     
  0.13050000000000000        -0.25994173551523408     
  0.13080000000000003        -0.20686123278887325     
  0.13109999999999999        -0.14975174896630869     
  0.13140000000000002         -8.9562263711576995E-002
  0.13169999999999998         -2.7036848202547925E-002
  0.13200000000000001          3.6596647204961467E-002
  0.13229999999999997         0.10037745865228617     
  0.13260000000000000         0.16212849064690069     
  0.13290000000000002         0.21913368983611861     
  0.13319999999999999         0.26852299055492251     
  0.13350000000000001         0.30635191849479687     
  0.13380000000000003         0.32953718791621689     
  0.13410000000000000         0.33535445156827026     
  0.13440000000000002         0.32172087858192899     
  0.13469999999999999         0.28868655991352837     
  0.13500000000000001         0.23717808963873743     
  0.13529999999999998         0.16995171425328964     
  0.13560000000000000          9.1488339533274066E-002
  0.13590000000000002          6.7667879717709656E-003
  0.13619999999999999         -7.8135822514367292E-002
  0.13650000000000001        -0.15713834290067402     
  0.13680000000000003        -0.22485764362425509     
  0.13710000000000000        -0.27623751873347568     
  0.13740000000000002        -0.30781119224642017     
  0.13769999999999999        -0.31739468998972031     
  0.13800000000000001        -0.30419731839454195     
  0.13829999999999998        -0.26890268255014838     
  0.13860000000000000        -0.21328982336264860     
  0.13890000000000002        -0.14026463673741835     
  0.13919999999999999         -5.3331650547398496E-002
  0.13950000000000001          4.3584170397876980E-002
  0.13979999999999998         0.14602944100980256     
  0.14010000000000000         0.24985258194425730     
  0.14040000000000002         0.35060246546345547     
  0.14069999999999999         0.44376751538831749     
  0.14100000000000001         0.52518803058697316     
  0.14130000000000004         0.59023348160007272     
  0.14160000000000000         0.63445750772827025     
  0.14189999999999997         0.65379866207487025     
  0.14219999999999999         0.64372890802110960     
  0.14250000000000002         0.60078857142943931     
  0.14279999999999998         0.52226455118996851     
  0.14310000000000000         0.40604108150644552     
  0.14339999999999997         0.25220362614559944     
  0.14369999999999999          6.2312550542973882E-002
  0.14400000000000002        -0.15989655799933145     
  0.14429999999999998        -0.40815340877350120     
  0.14460000000000001        -0.67411628346976138     
  0.14490000000000003        -0.94718503231753104     
  0.14520000000000000         -1.2151908063467021     
  0.14550000000000002         -1.4647718633251947     
  0.14579999999999999         -1.6818368596132161     
  0.14610000000000001         -1.8530069994668490     
  0.14640000000000003         -1.9658505024094191     
  0.14670000000000000         -2.0097491862600605     
  0.14699999999999996         -1.9772420991442625     
  0.14729999999999999         -1.8635580406147230     
  0.14760000000000001         -1.6679473443708395     
  0.14789999999999998         -1.3933468835382714     
  0.14820000000000000         -1.0464090927813186     