  -1.4999999999999999E-002     0.0000000000000000     
  -1.4700000000000000E-002     0.0000000000000000     
  -1.4400000000000000E-002     0.0000000000000000     
  -1.4100000000000000E-002     0.0000000000000000     
  -1.3800000000000000E-002     0.0000000000000000     
  -1.3500000000000000E-002     0.0000000000000000     
  -1.3200000000000000E-002     0.0000000000000000     
  -1.2899999999999998E-002     0.0000000000000000     
  -1.2600000000000000E-002     0.0000000000000000     
  -1.2299999999999998E-002     0.0000000000000000     
  -1.2000000000000000E-002     0.0000000000000000     
  -1.1699999999999999E-002     0.0000000000000000     
  -1.1399999999999999E-002     0.0000000000000000     
  -1.1099999999999999E-002     0.0000000000000000     
  -1.0799999999999999E-002     0.0000000000000000     
  -1.0499999999999999E-002     0.0000000000000000     
  -1.0199999999999999E-002     0.0000000000000000     
  -9.8999999999999991E-003     0.0000000000000000     
  -9.5999999999999992E-003     0.0000000000000000     
  -9.2999999999999992E-003     0.0000000000000000     
  -8.9999999999999993E-003     0.0000000000000000     
  -8.6999999999999994E-003     0.0000000000000000     
  -8.3999999999999995E-003     0.0000000000000000     
  -8.0999999999999996E-003     0.0000000000000000     
  -7.7999999999999988E-003     0.0000000000000000     
  -7.4999999999999997E-003     0.0000000000000000     
  -7.1999999999999998E-003     0.0000000000000000     
  -6.8999999999999981E-003     0.0000000000000000     
  -6.5999999999999982E-003     0.0000000000000000     
  -6.3000000000000000E-003     0.0000000000000000     
  -6.0000000000000001E-003     0.0000000000000000     
  -5.6999999999999985E-003     0.0000000000000000     
  -5.3999999999999986E-003     0.0000000000000000     
  -5.1000000000000004E-003     0.0000000000000000     
  -4.7999999999999987E-003     0.0000000000000000     
  -4.5000000000000005E-003     0.0000000000000000     
  -4.1999999999999989E-003     0.0000000000000000     
  -3.8999999999999990E-003     0.0000000000000000     
  -3.5999999999999990E-003     0.0000000000000000     
  -3.2999999999999991E-003     0.0000000000000000     
  -2.9999999999999992E-003     0.0000000000000000     
  -2.6999999999999993E-003     0.0000000000000000     
  -2.3999999999999994E-003     0.0000000000000000     
  -2.0999999999999977E-003     0.0000000000000000     
  -1.7999999999999995E-003     0.0000000000000000     
  -1.4999999999999979E-003     0.0000000000000000     
  -1.1999999999999997E-003     0.0000000000000000     
  -8.9999999999999976E-004     0.0000000000000000     
  -5.9999999999999810E-004     0.0000000000000000     
  -2.9999999999999992E-004     0.0000000000000000     
   0.0000000000000000         -3.6215797123635443E-043
   3.0000000000000165E-004    -3.4750366862330536E-038
   5.9999999999999984E-004     4.6101702072445126E-037
   9.0000000000000149E-004    -6.7933671778008685E-036
   1.2000000000000031E-003     2.9386647586911408E-035
   1.5000000000000013E-003    -1.3868843306674338E-034
   1.8000000000000030E-003     4.4219001857871305E-034
   2.1000000000000012E-003    -3.7239224011786991E-034
   2.3999999999999994E-003    -1.2976207178170650E-033
   2.7000000000000010E-003     5.9087589596785018E-033
   2.9999999999999992E-003    -9.7628919472355203E-033
   3.3000000000000008E-003    -6.8453168264266985E-035
   3.6000000000000025E-003     3.9397128498734680E-032
   3.9000000000000007E-003    -8.0623641100032707E-032
   4.2000000000000023E-003     1.4647088118598088E-033
   4.5000000000000005E-003     3.5002703032967999E-031
   4.7999999999999987E-003    -8.2606171324640094E-031
   5.1000000000000004E-003     3.9659613502687997E-031
   5.4000000000000020E-003     2.9185594197348968E-030
   5.7000000000000037E-003    -8.9258054835705192E-030
   5.9999999999999984E-003     7.1958740879655468E-030
   6.3000000000000000E-003     2.5215107130866985E-029
   6.6000000000000017E-003    -9.0619012268290231E-029
   6.9000000000000034E-003     8.9184108336627023E-029
   7.2000000000000015E-003     2.0405126021364363E-028
   7.5000000000000032E-003    -8.1922661176738366E-028
   7.8000000000000014E-003     8.4877640719031920E-028
   8.0999999999999996E-003     1.6227844534172238E-027
   8.4000000000000012E-003    -6.6068489715262537E-027
   8.7000000000000029E-003     6.5620699044453877E-027
   9.0000000000000011E-003     1.2617414593764366E-026
   9.2999999999999992E-003    -4.8084373286224733E-026
   9.6000000000000009E-003     4.1626391104375600E-026
   9.8999999999999991E-003     9.9101683706721730E-026
   1.0200000000000001E-002    -3.2101626450988990E-025
   1.0500000000000002E-002     2.0128889783232993E-025
   1.0800000000000004E-002     7.7605690024061666E-025
   1.1099999999999999E-002    -1.9754832542694968E-024
   1.1400000000000000E-002     5.8618414280592950E-025
   1.1700000000000002E-002     5.7049549912453618E-024
   1.2000000000000004E-002    -1.1103089578991204E-023
   1.2300000000000002E-002    -1.0268077058183454E-024
   1.2600000000000000E-002     3.7485164056286045E-023
   1.2900000000000002E-002    -5.5792734669777900E-023
   1.3200000000000000E-002    -2.9267598498497747E-023
   1.3500000000000002E-002     2.1554821624352979E-022
   1.3800000000000003E-002    -2.4560166694343084E-022
   1.4100000000000001E-002    -2.5166728639113735E-022
   1.4400000000000000E-002     1.0801678402481131E-021
   1.4700000000000001E-002    -9.2462647403816736E-022
   1.4999999999999999E-002    -1.5476810131942036E-021
   1.5300000000000001E-002     4.7145456319092507E-021
   1.5600000000000003E-002    -2.8755304189678190E-021
   1.5899999999999997E-002    -7.6778998776015055E-021
   1.6199999999999999E-002     1.7922395785194030E-020
   1.6500000000000001E-002    -6.9097053834175548E-021
   1.6800000000000002E-002    -3.1892767382658934E-020
   1.7100000000000004E-002     5.9354884802876648E-020
   1.7400000000000006E-002    -1.0706868824859658E-020
   1.7700000000000000E-002    -1.1230010079741899E-019
   1.8000000000000002E-002     1.7233632106500073E-019
   1.8300000000000004E-002    -1.8845242001117311E-021
   1.8600000000000005E-002    -3.3703198141171905E-019
   1.8900000000000000E-002     4.5052840696407231E-019
   1.9200000000000002E-002     3.2566254251039862E-020
   1.9500000000000003E-002    -8.7459367213753308E-019
   1.9799999999999998E-002     1.1388828052969781E-018
   2.0100000000000000E-002    -7.6820392525886919E-021
   2.0400000000000001E-002    -2.0757838010860976E-018
   2.0700000000000003E-002     3.0877770588725171E-018
   2.0999999999999998E-002    -6.6580838636718126E-019
   2.1299999999999999E-002    -5.1715373120850416E-018
   2.1600000000000001E-002     9.3021652316090562E-018
   2.1900000000000003E-002    -2.8861247159339218E-018
   2.2200000000000004E-002    -1.6508736593726666E-017
   2.2500000000000006E-002     3.0276068827247566E-017
   2.2800000000000001E-002    -1.3182229580055975E-018
   2.3100000000000002E-002    -7.9582418633971700E-017
   2.3400000000000004E-002     1.2016272071839760E-016
   2.3699999999999999E-002     6.6370775290594925E-017
   2.4000000000000000E-002    -5.4692319907633108E-016
   2.4300000000000002E-002     8.5747907155355097E-016
   2.4599999999999997E-002     5.0444032739886035E-016
   2.4900000000000005E-002    -5.4937736141559948E-015
   2.5200000000000000E-002     9.2062144452954333E-015
   2.5499999999999995E-002     1.3224467978472295E-014
   2.5800000000000003E-002    -7.1494121526534832E-014
   2.6099999999999998E-002     1.8604121159177121E-014
   2.6400000000000007E-002     3.7434624657850621E-013
   2.6700000000000002E-002    -4.6472888499701876E-013
   2.6999999999999996E-002    -1.6619885964446946E-012
   2.7300000000000005E-002     4.1769956953889637E-012
   2.7600000000000000E-002     4.6319622070903285E-012
   2.7900000000000008E-002    -2.5796604289095632E-011
   2.8200000000000003E-002     4.6773098375154227E-012
   2.8499999999999998E-002     1.0978584244818619E-010
   2.8800000000000006E-002    -1.3017612583616911E-010
   2.9100000000000001E-002    -3.0154504142871508E-010
   2.9400000000000003E-002     7.7876912687882291E-010
   2.9700000000000004E-002     3.0430923968341635E-010
   3.0000000000000006E-002    -2.9441527746776693E-009
   3.0300000000000001E-002     1.9467837791287183E-009
   3.0600000000000002E-002     7.6431538397759628E-009
   3.0900000000000004E-002    -1.4347959016696448E-008
   3.1199999999999999E-002    -1.1494383772107854E-008
   3.1500000000000007E-002     5.8560138927969401E-008
   3.1800000000000002E-002    -9.2017192614927011E-009
   3.2099999999999997E-002    -1.9669965488995740E-007
   3.2400000000000005E-002     1.2312107080634032E-007
   3.2700000000000000E-002     1.0005457837823033E-006
   3.3000000000000002E-002     2.2579109300794081E-006
   3.3300000000000003E-002     6.1016512404858629E-006
   3.3599999999999998E-002     1.4032311022405869E-005
   3.3900000000000000E-002     2.2144854788605058E-005
   3.4200000000000001E-002     2.9232949143310504E-005
   3.4500000000000003E-002     4.3438085539844522E-005
   3.4799999999999998E-002     7.0206788250732493E-005
   3.5099999999999999E-002     1.0776811429343275E-004
   3.5400000000000001E-002     1.6046957854504634E-004
   3.5699999999999996E-002     2.3945668176771762E-004
   3.6000000000000004E-002     3.5530699000415310E-004
   3.6299999999999999E-002     5.2120999751820011E-004
   3.6600000000000008E-002     7.5255725099391462E-004
   3.6900000000000002E-002     1.0687319388409746E-003
   3.7199999999999997E-002     1.5013520758212677E-003
   3.7500000000000006E-002     2.0829447531918294E-003
   3.7800000000000000E-002     2.8371249218267819E-003
   3.8100000000000009E-002     3.7953383754612694E-003
   3.8400000000000004E-002     5.0007094709315272E-003
   3.8699999999999998E-002     6.4917965478240155E-003
   3.9000000000000007E-002     8.2967670503017194E-003
   3.9300000000000002E-002     1.0434769992927471E-002
   3.9600000000000003E-002     1.2915351877079071E-002
   3.9900000000000005E-002     1.5724238009389442E-002
   4.0200000000000000E-002     1.8804172847587380E-002
   4.0500000000000001E-002     2.2072241777366233E-002
   4.0800000000000003E-002     2.5437524207309901E-002
   4.1100000000000005E-002     2.8774448150794787E-002
   4.1399999999999999E-002     3.1919829580559347E-002
   4.1700000000000008E-002     3.4708154233867840E-002
   4.2000000000000003E-002     3.6977209000666901E-002
   4.2299999999999997E-002     3.8582701574051942E-002
   4.2600000000000006E-002     3.9427957740114039E-002
   4.2900000000000001E-002     3.9477048296041671E-002
   4.3200000000000002E-002     3.8761760217553724E-002
   4.3500000000000004E-002     3.7382457352014731E-002
   4.3799999999999999E-002     3.5488321797500208E-002
   4.4100000000000000E-002     3.3269450370695022E-002
   4.4400000000000002E-002     3.0885396999766133E-002
   4.4700000000000004E-002     2.8375178693505462E-002
   4.4999999999999998E-002     2.5599242354122569E-002
   4.5300000000000000E-002     2.2158747170078614E-002
   4.5600000000000002E-002     1.7306784470456169E-002
   4.5899999999999996E-002     9.8860095337573693E-003
   4.6200000000000005E-002    -1.6897729609002491E-003
   4.6500000000000000E-002    -1.9365609023322617E-002
   4.6799999999999994E-002    -4.5317562966343830E-002
   4.7100000000000003E-002    -8.1787738264966242E-002
   4.7399999999999998E-002   -0.13082111676326227     
   4.7700000000000006E-002   -0.19389893404967584     
   4.8000000000000001E-002   -0.27162765937722971     
   4.8300000000000010E-002   -0.36340476447564479     
   4.8600000000000004E-002   -0.46714056345058946     
   4.8899999999999999E-002   -0.57904498196438137     
   4.9200000000000008E-002   -0.69363743703741487     
   4.9500000000000002E-002   -0.80381949986835732     
   4.9800000000000011E-002   -0.90125357382905824     
   5.0100000000000006E-002   -0.97687629433818080     
   5.0400000000000000E-002    -1.0215499737317177     
   5.0700000000000009E-002    -1.0269460188995376     
   5.1000000000000004E-002   -0.98625465507439181     
   5.1299999999999998E-002   -0.89510856809121653     
   5.1600000000000007E-002   -0.75216615555542887     
   5.1900000000000002E-002   -0.55966867997708292     
   5.2200000000000010E-002   -0.32348784920401918     
   5.2500000000000005E-002    -5.3176077445860753E-002
   5.2800000000000000E-002    0.23868763427872519     
   5.3099999999999994E-002    0.53717856754978666     
   5.3400000000000003E-002    0.82609424622423389     
   5.3699999999999998E-002     1.0892068127265877     
   5.4000000000000006E-002     1.3116152130008250     
   5.4300000000000001E-002     1.4807975607045756     
   5.4599999999999996E-002     1.5879580558663564     
   5.4900000000000004E-002     1.6284558052588518     
   5.5199999999999999E-002     1.6025391167456129     
   5.5499999999999994E-002     1.5150335904802565     
   5.5800000000000002E-002     1.3751818443216197     
   5.6099999999999997E-002     1.1955690982655760     
   5.6400000000000006E-002    0.99125051427482047     
   5.6700000000000000E-002    0.77822707942328950     
   5.6999999999999995E-002    0.57224069693126034     
   5.7300000000000004E-002    0.38730884025341178     
   5.7599999999999998E-002    0.23489920850915125     
   5.7900000000000007E-002    0.12274209893794097     
   5.8200000000000002E-002     5.4882650562764590E-002
   5.8499999999999996E-002     3.1148384529774073E-002
   5.8800000000000005E-002     4.7719577335950517E-002
   5.9100000000000000E-002     9.7876907873036559E-002
   5.9400000000000008E-002    0.17220651587513197     
   5.9700000000000003E-002    0.26028159329940598     
   6.0000000000000012E-002    0.35102983834779439     
   6.0300000000000006E-002    0.43395823165980779     
   6.0600000000000001E-002    0.49956363053225028     
   6.0900000000000010E-002    0.53993921479492779     
   6.1200000000000004E-002    0.54940177934824708     
   6.1500000000000013E-002    0.52407135089604462     
   6.1800000000000008E-002    0.46254111210106841     
   6.2100000000000002E-002    0.36526730525941220     
   6.2399999999999997E-002    0.23469264366876985     
   6.2700000000000006E-002     7.5130238739570004E-002
   6.3000000000000000E-002   -0.10750920399463287     
   6.3300000000000009E-002   -0.30590040133624241     
   6.3600000000000004E-002   -0.51136615295388954     
   6.3899999999999998E-002   -0.71446823311352137     
   6.4199999999999993E-002   -0.90487929210633367     
   6.4500000000000002E-002    -1.0723137665500306     
   6.4800000000000010E-002    -1.2067769127415986     
   6.5100000000000005E-002    -1.2994591490985548     
   6.5400000000000000E-002    -1.3433712301082512     
   6.5700000000000008E-002    -1.3339512996878722     
   6.5999999999999989E-002    -1.2700468844670187     
   6.6299999999999998E-002    -1.1538351153520270     
   6.6600000000000006E-002   -0.99169159795019612     
   6.6900000000000001E-002   -0.79371065445248468     
   6.7199999999999996E-002   -0.57328492921669949     
   6.7500000000000004E-002   -0.34672350180298273     
   6.7800000000000013E-002   -0.13159707737368623     
   6.8099999999999994E-002     5.4060618483547790E-002
   6.8400000000000002E-002    0.19343441426863606     
   6.8700000000000011E-002    0.27231194591749924     
   6.8999999999999992E-002    0.28081255075726252     
   6.9300000000000000E-002    0.21362931671636801     
   6.9600000000000009E-002     7.1636191699671753E-002
   6.9900000000000004E-002   -0.13841530082112269     
   7.0199999999999999E-002   -0.40394318814472685     
   7.0500000000000007E-002   -0.70738613652890958     
   7.0800000000000016E-002    -1.0271762561761724     
   7.1099999999999997E-002    -1.3396167009521134     
   7.1400000000000005E-002    -1.6205000564070646     
   7.1700000000000000E-002    -1.8468154469709788     
   7.1999999999999995E-002    -1.9990719836090083     
   7.2300000000000003E-002    -2.0622171984779873     
   7.2600000000000012E-002    -2.0275021077222419     
   7.2900000000000006E-002    -1.8927337574295628     
   7.3200000000000001E-002    -1.6627294172745901     
   7.3499999999999996E-002    -1.3490458949460766     
   7.3800000000000004E-002   -0.96865141220643558     
   7.4099999999999999E-002   -0.54330136013229235     
   7.4400000000000008E-002    -9.6808684196140832E-002
   7.4700000000000003E-002    0.34606722197761769     
   7.5000000000000011E-002    0.76227041807142926     
   7.5299999999999992E-002     1.1318105299734746     
   7.5600000000000001E-002     1.4396926765114753     
   7.5900000000000009E-002     1.6763844426446255     
   7.6200000000000004E-002     1.8388885584326311     
   7.6499999999999999E-002     1.9299489473862428     
   7.6800000000000007E-002     1.9575635819741253     
   7.7099999999999988E-002     1.9334172781347174     
   7.7399999999999997E-002     1.8709973921336926     
   7.7700000000000005E-002     1.7843839233404692     
   7.8000000000000014E-002     1.6856218487500227     
   7.8299999999999995E-002     1.5842944596777988     
   7.8600000000000003E-002     1.4859442667600804     
   7.8900000000000012E-002     1.3921138051611064     
   7.9199999999999993E-002     1.3010873926034954     
   7.9500000000000001E-002     1.2085398009625556     
   7.9800000000000010E-002     1.1093553595059016     
   8.0100000000000018E-002    0.99919613646570338     
   8.0399999999999999E-002    0.87641822598350372     
   8.0700000000000008E-002    0.74271078148870462     
   8.1000000000000003E-002    0.60449328876198516     
   8.1299999999999997E-002    0.47244560375343048     
   8.1600000000000006E-002    0.36060937021001482     
   8.1900000000000014E-002    0.28508867704380353     
   8.2199999999999995E-002    0.26123196298557588     
   8.2500000000000004E-002    0.30173185226804078     
   8.2799999999999999E-002    0.41404384627541346     
   8.3100000000000007E-002    0.59776907121804523     
   8.3400000000000002E-002    0.84393162668352106     
   8.3700000000000011E-002     1.1341676557379401     
   8.4000000000000005E-002     1.4412642771578812     
   8.4300000000000000E-002     1.7312302786982794     
   8.4599999999999995E-002     1.9654966100703946     
   8.4900000000000003E-002     2.1049161823112961     
   8.5199999999999998E-002     2.1127604891374920     
   8.5500000000000007E-002     1.9593325536895332     
   8.5800000000000001E-002     1.6248575564685277     
   8.6100000000000010E-002     1.1022748956109505     
   8.6399999999999991E-002    0.39919755924719447     
   8.6699999999999999E-002   -0.46232118822754831     
   8.7000000000000008E-002    -1.4454858213387640     
   8.7300000000000003E-002    -2.5019150366260323     
   8.7599999999999997E-002    -3.5735449162146145     
   8.7900000000000006E-002    -4.5969828308225757     
   8.8200000000000014E-002    -5.5079070762284577     
   8.8499999999999995E-002    -6.2446273169469793     
   8.8800000000000004E-002    -6.7528423630568009     
   8.9100000000000013E-002    -6.9892194792623590     
   8.9399999999999993E-002    -6.9241774942543675     
   8.9700000000000002E-002    -6.5441194115157160     
   9.0000000000000011E-002    -5.8523046792837192     
   9.0299999999999991E-002    -4.8692086638201850     
   9.0600000000000000E-002    -3.6314956874011353     
   9.0900000000000009E-002    -2.1898604202202989     
   9.1200000000000017E-002   -0.60693700366263048     
   9.1499999999999998E-002     1.0463178019393451     
   9.1800000000000007E-002     2.6940793221000092     
   9.2100000000000001E-002     4.2600972301811328     
   9.2399999999999996E-002     5.6714933996976331     
   9.2700000000000005E-002     6.8625380787288011     
   9.3000000000000013E-002     7.7787242632638076     
   9.3300000000000008E-002     8.3789293338374780     
   9.3600000000000003E-002     8.6383604961617522     
   9.3899999999999997E-002     8.5495744059342567     
   9.4200000000000006E-002     8.1224464415307622     
   9.4500000000000001E-002     7.3840368138066275     
   9.4800000000000009E-002     6.3758098789767965     
   9.5100000000000004E-002     5.1512960368187937     
   9.5399999999999999E-002     3.7729048274121997     
   9.5699999999999993E-002     2.3069186119810836     
   9.6000000000000002E-002    0.82097941469413072     
   9.6300000000000011E-002   -0.62183532854010082     
   9.6600000000000005E-002    -1.9646877500644107     
   9.6900000000000000E-002    -3.1607220369383988     
   9.7200000000000009E-002    -4.1748921625477893     
   9.7499999999999989E-002    -4.9836134130173297     
   9.7799999999999998E-002    -5.5759472591774344     
   9.8100000000000007E-002    -5.9517549939642072     
   9.8400000000000015E-002    -6.1202649389325909     
   9.8699999999999996E-002    -6.0982032387373915     
   9.9000000000000005E-002    -5.9076905272331466     
   9.9300000000000013E-002    -5.5743871011075221     
   9.9599999999999994E-002    -5.1254856296187565     
   9.9900000000000003E-002    -4.5890368243281827     
  0.10020000000000001         -3.9922112984146416     
  0.10049999999999999         -3.3616003800171721     
  0.10080000000000000         -2.7224190781114386     
  0.10110000000000001         -2.0973891575290873     
  0.10140000000000000         -1.5083173085067254     
  0.10170000000000000        -0.97279822809668293     
  0.10200000000000001        -0.50589274237155180     
  0.10230000000000002        -0.11869963929158178     
  0.10260000000000000         0.18326284264856929     
  0.10290000000000001         0.39906390863117114     
  0.10320000000000000         0.53360906392847685     
  0.10350000000000001         0.59751553788740064     
  0.10380000000000000         0.60561138598301612     
  0.10410000000000001         0.57722268993955161     
  0.10440000000000001         0.53329229471756379     
  0.10470000000000000         0.49571464289194456     
  0.10500000000000000         0.48499338069846920     
  0.10530000000000000         0.51802053214852617     
  0.10560000000000000         0.60805228148099322     
  0.10590000000000001         0.76137986252806722     
  0.10620000000000000         0.97879998037369331     
  0.10650000000000001          1.2539436688273433     
  0.10679999999999999          1.5741722948141479     
  0.10710000000000000          1.9223672570882173     
  0.10740000000000001          2.2760695423009212     
  0.10770000000000000          2.6121167607962228     
  0.10800000000000000          2.9051815401065921     
  0.10830000000000001          3.1323999932813211     
  0.10859999999999999          3.2726164716252502     
  0.10890000000000000          3.3101154616261783     
  0.10920000000000001          3.2343563398897586     
  0.10950000000000001          3.0411640572911187     
  0.10979999999999999          2.7339276651669673     
  0.11009999999999999          2.3224120639536845     
  0.11040000000000001          1.8236558770677251     
  0.11070000000000001          1.2600993552939910     
  0.11100000000000000         0.65815738563524129     
  0.11130000000000000          4.8054185843743186E-002
  0.11160000000000002        -0.54073001182839653     
  0.11190000000000001         -1.0784644327763475     
  0.11220000000000001         -1.5400010549592846     
  0.11250000000000000         -1.9042672464249419     
  0.11280000000000000         -2.1570857820008484     
  0.11309999999999999         -2.2914700731955460     
  0.11340000000000001         -2.3073651798138286     
  0.11369999999999998         -2.2128227430303156     
  0.11400000000000000         -2.0213514107919757     
  0.11430000000000000         -1.7521916280951058     
  0.11460000000000002         -1.4273336316323608     
  0.11489999999999999         -1.0705554443598271     
  0.11520000000000001        -0.70613998765684971     
  0.11550000000000001        -0.35590248800848440     
  0.11580000000000000         -3.9925396774061692E-002
  0.11609999999999999         0.22654002219244884     
  0.11640000000000002         0.43134261371977356     
  0.11670000000000001         0.56810600079894180     
  0.11700000000000001         0.63394416169952683     
  0.11730000000000000         0.63086985660665329     
  0.11760000000000000         0.56472927539705142     
  0.11789999999999999         0.44479228622772393     
  0.11820000000000001         0.28286536339782187     
  0.11850000000000001          9.3012418106989569E-002
  0.11880000000000000        -0.11052738194557471     
  0.11910000000000000        -0.31371352923117551     
  0.11940000000000002        -0.50469505774789647     
  0.11970000000000001        -0.67430824325367755     
  0.12000000000000001        -0.81719797260872273     
  0.12030000000000000        -0.93233676958794764     
  0.12060000000000000         -1.0220269454332760     
  0.12089999999999999         -1.0917702158023221     
  0.12119999999999999         -1.1471600350017166     
  0.12150000000000001         -1.1919318239226073     
  0.12180000000000001         -1.2250412868296934     
  0.12210000000000000         -1.2377404654618869     
  0.12239999999999999         -1.2126543857488088     
  0.12270000000000002         -1.1220172473641465     
  0.12300000000000001        -0.93102858880575712     
  0.12330000000000001        -0.59907870186750789     
  0.12360000000000000         -8.7426358572597507E-002
  0.12390000000000000         0.63553218662804278     
  0.12419999999999999          1.5854645963288745     
  0.12450000000000001          2.7552558673930450     
  0.12480000000000001          4.1084687762518914     
  0.12509999999999999          5.5768917946785397     
  0.12540000000000001          7.0605820375836839     
  0.12570000000000003          8.4326311938135703     
  0.12600000000000000          9.5487373704470322     
  0.12630000000000002          10.259141035957143     
  0.12659999999999999          10.425121250962276     
  0.12690000000000001          9.9352414357975736     
  0.12719999999999998          8.7203380070527103     
  0.12750000000000000          6.7684049787248748     
  0.12780000000000002          4.1297388914788566     
  0.12809999999999999         0.92268753636859535     
  0.12840000000000001         -2.6749587051605692     
  0.12869999999999998         -6.4321553964301534     
  0.12900000000000000         -10.087928440405381     
  0.12930000000000003         -13.366398371219528     
  0.12959999999999999         -16.005584859236382     
  0.12990000000000002         -17.778761105745168     
  0.13019999999999998         -18.514738021611898     
  0.13050000000000000         -18.117019207825727     
  0.13080000000000003         -16.569465242066322     
  0.13109999999999999         -13.943513223300828     
  0.13140000000000002         -10.388909564661521     
  0.13169999999999998         -6.1243716669919603     
  0.13200000000000001         -1.4198215424879592     
  0.13229999999999997          3.4265781768975261     
  0.13260000000000000          8.1082006252844927     
  0.13290000000000002          12.336409263838693     
  0.13319999999999999          15.857539701283208     
  0.13350000000000001          18.469179242995931     
  0.13380000000000003          20.033904295446828     
  0.13410000000000000          20.480970619888275     
  0.13440000000000002          19.809418429071712     
  0.13469999999999999          18.083273050269675     
  0.13500000000000001          15.420416073634197     
  0.13529999999999998          11.985433050521877     
  0.13560000000000000          7.9729750616442026     
  0.13590000000000002          3.5960640570439537     
  0.13619999999999999        -0.92698095416591908     
  0.13650000000000001         -5.3857886607708370     
  0.13680000000000003         -9.5853310430827730     
  0.13710000000000000         -13.357960608272208     
  0.13740000000000002         -16.564965293144915     
  0.13769999999999999         -19.104409011427734     
  0.13800000000000001         -20.907955507014986     
  0.13829999999999998         -21.945302093320038     
  0.13860000000000000         -22.216487761282014     
  0.13890000000000002         -21.752976617765054     
  0.13919999999999999         -20.610089340173118     
  0.13950000000000001         -18.862098340907249     
  0.13979999999999998         -16.597386729885827     
  0.14010000000000000         -13.913128209676017     
  0.14040000000000002         -10.909116724225733     
  0.14069999999999999         -7.6856966684576005     
  0.14100000000000001         -4.3388262501744759     
  0.14130000000000004        -0.95936990476694106     
  0.14160000000000000          2.3692356774368952     
  0.14189999999999997          5.5717075174827597     
  0.14219999999999999          8.5799292964487552     
  0.14250000000000002          11.335090707272482     
  0.14279999999999998          13.784581230346744     
  0.14310000000000000          15.886234089536217     
  0.14339999999999997          17.603929076406235     
  0.14369999999999999          18.912000949376900     
  0.14400000000000002          19.793639836168531     
  0.14429999999999998          20.241571317983450     
  0.14460000000000001          20.259980465686873     
  0.14490000000000003          19.861231808052054     
  0.14520000000000000          19.069348546625072     
  0.14550000000000002          17.915566441943049     
  0.14579999999999999          16.439275510072640     
  0.14610000000000001          14.684831342786584     
  0.14640000000000003          12.701500641319168     
  0.14670000000000000          10.539444064633908     
  0.14699999999999996          8.2482580916868660     
  0.14729999999999999          5.8776026599443671     
  0.14760000000000001          3.4726141253581480     
  0.14789999999999998          1.0769914915891272     
  0.14820000000000000         -1.2714250308385093     