  -1.4999999999999999E-002     0.0000000000000000     
  -1.4700000000000000E-002     0.0000000000000000     
  -1.4400000000000000E-002     0.0000000000000000     
  -1.4100000000000000E-002     0.0000000000000000     
  -1.3800000000000000E-002     0.0000000000000000     
  -1.3500000000000000E-002     0.0000000000000000     
  -1.3200000000000000E-002     0.0000000000000000     
  -1.2899999999999998E-002     0.0000000000000000     
  -1.2600000000000000E-002     0.0000000000000000     
  -1.2299999999999998E-002     0.0000000000000000     
  -1.2000000000000000E-002     0.0000000000000000     
  -1.1699999999999999E-002     0.0000000000000000     
  -1.1399999999999999E-002     0.0000000000000000     
  -1.1099999999999999E-002     0.0000000000000000     
  -1.0799999999999999E-002     0.0000000000000000     
  -1.0499999999999999E-002     0.0000000000000000     
  -1.0199999999999999E-002     0.0000000000000000     
  -9.8999999999999991E-003     0.0000000000000000     
  -9.5999999999999992E-003     0.0000000000000000     
  -9.2999999999999992E-003     0.0000000000000000     
  -8.9999999999999993E-003     0.0000000000000000     
  -8.6999999999999994E-003     0.0000000000000000     
  -8.3999999999999995E-003     0.0000000000000000     
  -8.0999999999999996E-003     0.0000000000000000     
  -7.7999999999999988E-003     0.0000000000000000     
  -7.4999999999999997E-003     0.0000000000000000     
  -7.1999999999999998E-003     0.0000000000000000     
  -6.8999999999999981E-003     0.0000000000000000     
  -6.5999999999999982E-003     0.0000000000000000     
  -6.3000000000000000E-003     0.0000000000000000     
  -6.0000000000000001E-003     0.0000000000000000     
  -5.6999999999999985E-003     0.0000000000000000     
  -5.3999999999999986E-003     0.0000000000000000     
  -5.1000000000000004E-003     0.0000000000000000     
  -4.7999999999999987E-003     0.0000000000000000     
  -4.5000000000000005E-003     0.0000000000000000     
  -4.1999999999999989E-003     0.0000000000000000     
  -3.8999999999999990E-003     0.0000000000000000     
  -3.5999999999999990E-003     0.0000000000000000     
  -3.2999999999999991E-003     0.0000000000000000     
  -2.9999999999999992E-003     0.0000000000000000     
  -2.6999999999999993E-003     0.0000000000000000     
  -2.3999999999999994E-003     0.0000000000000000     
  -2.0999999999999977E-003     3.2399240669711312E-039
  -1.7999999999999995E-003     6.3343562989198793E-037
  -1.4999999999999979E-003     2.0549800512257664E-036
  -1.1999999999999997E-003    -1.4122207210489652E-035
  -8.9999999999999976E-004     3.3378262356518396E-035
  -5.9999999999999810E-004    -1.0608203075526819E-034
  -2.9999999999999992E-004     2.8371429509973903E-034
   0.0000000000000000         -5.7893167846904134E-034
   3.0000000000000165E-004     8.9858168830602049E-034
   5.9999999999999984E-004    -1.2694860494844505E-033
   9.0000000000000149E-004     3.9649806709594854E-033
   1.2000000000000031E-003    -7.1584568783486609E-033
   1.5000000000000013E-003    -2.7900473708374431E-033
   1.8000000000000030E-003     4.1781792945585439E-032
   2.1000000000000012E-003    -9.3066462237825166E-032
   2.3999999999999994E-003     5.2268850675498658E-032
   2.7000000000000010E-003     2.6854528130595362E-031
   2.9999999999999992E-003    -7.7984161597956475E-031
   3.3000000000000008E-003     4.2058281425406530E-031
   3.6000000000000025E-003     2.3904707628217100E-030
   3.9000000000000007E-003    -6.5483080887055764E-030
   4.2000000000000023E-003     4.0618227309590297E-030
   4.5000000000000005E-003     1.8354753664518229E-029
   4.7999999999999987E-003    -5.7776203473944450E-029
   5.1000000000000004E-003     4.9318624276441562E-029
   5.4000000000000020E-003     1.3176911711517772E-028
   5.7000000000000037E-003    -4.7553740547303951E-028
   5.9999999999999984E-003     4.8005450737867849E-028
   6.3000000000000000E-003     8.4243448701420640E-028
   6.6000000000000017E-003    -3.6052216661201089E-027
   6.9000000000000034E-003     4.1790701777162319E-027
   7.2000000000000015E-003     5.1512918443164056E-027
   7.5000000000000032E-003    -2.5606924734659933E-026
   7.8000000000000014E-003     3.1157571020538078E-026
   8.0999999999999996E-003     3.1409615546343261E-026
   8.4000000000000012E-003    -1.6840223411680505E-025
   8.7000000000000029E-003     2.0085554365313821E-025
   9.0000000000000011E-003     2.1902056443987409E-025
   9.2999999999999992E-003    -1.0688637595654589E-024
   9.6000000000000009E-003     1.0851921860821133E-024
   9.8999999999999991E-003     1.7813179638199321E-024
   1.0200000000000001E-002    -6.5844453353052066E-024
   1.0500000000000002E-002     4.8170066191840612E-024
   1.0800000000000004E-002     1.4049876519727000E-023
   1.1099999999999999E-002    -3.8541294423287863E-023
   1.1400000000000000E-002     1.6325101261359216E-023
   1.1700000000000002E-002     9.7028958225600689E-023
   1.2000000000000004E-002    -2.0604313596399369E-022
   1.2300000000000002E-002     2.9511795144825379E-023
   1.2600000000000000E-002     5.7167768550525834E-022
   1.2900000000000002E-002    -9.8326294439047103E-022
   1.3200000000000000E-002    -1.0369387901646326E-022
   1.3500000000000002E-002     2.8965863684392815E-021
   1.3800000000000003E-002    -4.1365952791336062E-021
   1.4100000000000001E-002    -1.4016727481224670E-021
   1.4400000000000000E-002     1.2722509561860930E-020
   1.4700000000000001E-002    -1.5284004547710404E-020
   1.4999999999999999E-002    -8.6778899265338769E-021
   1.5300000000000001E-002     4.8846517417738239E-020
   1.5600000000000003E-002    -4.9862135894661293E-020
   1.5899999999999997E-002    -3.9458229126140668E-020
   1.6199999999999999E-002     1.6534344268476305E-019
   1.6500000000000001E-002    -1.4650371769876139E-019
   1.6800000000000002E-002    -1.4367441848705775E-019
   1.7100000000000004E-002     5.0124769974065048E-019
   1.7400000000000006E-002    -4.0490890023600949E-019
   1.7700000000000000E-002    -4.3496259750156729E-019
   1.8000000000000002E-002     1.4024111359751611E-018
   1.8300000000000004E-002    -1.1177264626390129E-018
   1.8600000000000005E-002    -1.1479404603409008E-018
   1.8900000000000000E-002     3.7978157535795021E-018
   1.9200000000000002E-002    -3.1612094226568526E-018
   1.9500000000000003E-002    -2.9264831167302095E-018
   1.9799999999999998E-002     1.0301209852763956E-017
   2.0100000000000000E-002    -8.7055946840250572E-018
   2.0400000000000001E-002    -7.8406730579245520E-018
   2.0700000000000003E-002     2.7377254837013586E-017
   2.0999999999999998E-002    -2.2673050581467771E-017
   2.1299999999999999E-002    -2.0853724985754014E-017
   2.1600000000000001E-002     7.4425139198865648E-017
   2.1900000000000003E-002    -6.1052037245883353E-017
   2.2200000000000004E-002    -9.5745441135046533E-017
   2.2500000000000006E-002     2.8453395380313174E-016
   2.2800000000000001E-002    -4.2443719544524410E-018
   2.3100000000000002E-002    -9.4887542117156591E-016
   2.3400000000000004E-002     8.0956208828741069E-016
   2.3699999999999999E-002     2.3788284562997674E-015
   2.4000000000000000E-002    -3.6189044010581698E-015
   2.4300000000000002E-002    -2.9622558136590304E-015
   2.4599999999999997E-002    -1.1657420472997744E-015
   2.4900000000000005E-002     1.9339569697456127E-014
   2.5200000000000000E-002     7.0123401866309194E-014
   2.5499999999999995E-002    -2.8141971708123992E-013
   2.5800000000000003E-002    -1.1010353055928947E-013
   2.6099999999999998E-002     1.8303432780673767E-012
   2.6400000000000007E-002    -2.4605639934336590E-012
   2.6700000000000002E-002    -4.6048428890179072E-012
   2.6999999999999996E-002     2.1910981369344256E-011
   2.7300000000000005E-002    -2.1208010360764916E-011
   2.7600000000000000E-002    -8.4116341203342492E-011
   2.7900000000000008E-002     2.7712130330447412E-010
   2.8200000000000003E-002     4.1729536816199025E-011
   2.8499999999999998E-002    -1.5264843785862296E-009
   2.8800000000000006E-002     1.5218930366843825E-009
   2.9100000000000001E-002     5.6262546079466053E-009
   2.9400000000000003E-002    -1.1323847126388056E-008
   2.9700000000000004E-002    -1.5627743468473621E-008
   3.0000000000000006E-002     5.2124462475691717E-008
   3.0300000000000001E-002     3.4404225187606631E-008
   3.0600000000000002E-002    -1.9513897941099461E-007
   3.0900000000000004E-002    -7.7352170431236674E-008
   3.1199999999999999E-002     8.9875635223547668E-007
   3.1500000000000007E-002     2.2939390858726392E-006
   3.1800000000000002E-002     4.9334708544204339E-006
   3.2099999999999997E-002     1.1329154967174953E-005
   3.2400000000000005E-002     2.0063213567278162E-005
   3.2700000000000000E-002     2.7008425101640849E-005
   3.3000000000000002E-002     3.6425257825263524E-005
   3.3300000000000003E-002     5.8270311064520831E-005
   3.3599999999999998E-002     9.4057481831532149E-005
   3.3900000000000000E-002     1.4198120379185346E-004
   3.4200000000000001E-002     2.1000595609167749E-004
   3.4500000000000003E-002     3.1086391957562461E-004
   3.4799999999999998E-002     4.5597354541613839E-004
   3.5099999999999999E-002     6.5823615561142216E-004
   3.5400000000000001E-002     9.3423415632026005E-004
   3.5699999999999996E-002     1.3105660240274087E-003
   3.6000000000000004E-002     1.8210383353540237E-003
   3.6299999999999999E-002     2.4899239108884938E-003
   3.6600000000000008E-002     3.3371395815141930E-003
   3.6900000000000002E-002     4.3978053706880552E-003
   3.7199999999999997E-002     5.7148971344149957E-003
   3.7500000000000006E-002     7.3177407909162991E-003
   3.7800000000000000E-002     9.2158346959571209E-003
   3.8100000000000009E-002     1.1411502905444430E-002
   3.8400000000000004E-002     1.3902212204055858E-002
   3.8699999999999998E-002     1.6652079308288409E-002
   3.9000000000000007E-002     1.9579754718909201E-002
   3.9300000000000002E-002     2.2589818435625044E-002
   3.9600000000000003E-002     2.5578208587968273E-002
   3.9900000000000005E-002     2.8406639660132633E-002
   4.0200000000000000E-002     3.0919442137330860E-002
   4.0500000000000001E-002     3.2974713826813350E-002
   4.0800000000000003E-002     3.4446824168734978E-002
   4.1100000000000005E-002     3.5243107180866984E-002
   4.1399999999999999E-002     3.5323540197875293E-002
   4.1700000000000008E-002     3.4720479020761474E-002
   4.2000000000000003E-002     3.3536544850536532E-002
   4.2299999999999997E-002     3.1927266848649952E-002
   4.2600000000000006E-002     3.0067291111835981E-002
   4.2900000000000001E-002     2.8122550041775059E-002
   4.3200000000000002E-002     2.6174671535651874E-002
   4.3500000000000004E-002     2.4136394290179691E-002
   4.3799999999999999E-002     2.1667062320503284E-002
   4.4100000000000000E-002     1.8114133001894968E-002
   4.4400000000000002E-002     1.2431911770998560E-002
   4.4700000000000004E-002     3.1523166888300872E-003
   4.4999999999999998E-002    -1.1589755302660522E-002
   4.5300000000000000E-002    -3.3928854082947935E-002
   4.5600000000000002E-002    -6.6126154520191979E-002
   4.5899999999999996E-002   -0.11035250488076270     
   4.6200000000000005E-002   -0.16835779981604038     
   4.6500000000000000E-002   -0.24112747817780866     
   4.6799999999999994E-002   -0.32861359440802573     
   4.7100000000000003E-002   -0.42939677016726219     
   4.7399999999999998E-002   -0.54043922156413682     
   4.7700000000000006E-002   -0.65700847808849594     
   4.8000000000000001E-002   -0.77278826857687466     
   4.8300000000000010E-002   -0.88004847592532021     
   4.8600000000000004E-002   -0.97011360339471731     
   4.8899999999999999E-002    -1.0339905441894091     
   4.9200000000000008E-002    -1.0630840500498453     
   4.9500000000000002E-002    -1.0499555359680248     
   4.9800000000000011E-002   -0.98920725830933232     
   5.0100000000000006E-002   -0.87809239554128771     
   5.0400000000000000E-002   -0.71709420928340417     
   5.0700000000000009E-002   -0.51019080264888816     
   5.1000000000000004E-002   -0.26475546632766667     
   5.1299999999999998E-002     8.6635276745888959E-003
   5.1600000000000007E-002    0.29706060407160401     
   5.1900000000000002E-002    0.58596288330257473     
   5.2200000000000010E-002    0.86040510381829916     
   5.2500000000000005E-002     1.1062709046961912     
   5.2800000000000000E-002     1.3112789808536860     
   5.3099999999999994E-002     1.4661227992524140     
   5.3400000000000003E-002     1.5651374877452560     
   5.3699999999999998E-002     1.6066810652855810     
   5.4000000000000006E-002     1.5932223998240274     
   5.4300000000000001E-002     1.5308533618191320     
   5.4599999999999996E-002     1.4287855820234339     
   5.4900000000000004E-002     1.2982731984987783     
   5.5199999999999999E-002     1.1515344750968253     
   5.5499999999999994E-002     1.0007004473953025     
   5.5800000000000002E-002    0.85670798017991734     
   5.6099999999999997E-002    0.72849906231875217     
   5.6400000000000006E-002    0.62258178495527838     
   5.6700000000000000E-002    0.54252100789970659     
   5.6999999999999995E-002    0.48914540855764266     
   5.7300000000000004E-002    0.46075974011200604     
   5.7599999999999998E-002    0.45361297084771296     
   5.7900000000000007E-002    0.46238328196674983     
   5.8200000000000002E-002    0.48084859460346385     
   5.8499999999999996E-002    0.50232841114808546     
   5.8800000000000005E-002    0.52019102405260742     
   5.9100000000000000E-002    0.52808617265720348     
   5.9400000000000008E-002    0.52024518841715572     
   5.9700000000000003E-002    0.49168414488309631     
   6.0000000000000012E-002    0.43811353538608477     
   6.0300000000000006E-002    0.35643915802865478     
   6.0600000000000001E-002    0.24454293164889662     
   6.0900000000000010E-002    0.10191071116295930     
   6.1200000000000004E-002    -7.0339738595177018E-002
   6.1500000000000013E-002   -0.26920297828739403     
   6.1800000000000008E-002   -0.48939966736975038     
   6.2100000000000002E-002   -0.72356766327714428     
   6.2399999999999997E-002   -0.96206779142308774     
   6.2700000000000006E-002    -1.1936943982958510     
   6.3000000000000000E-002    -1.4059734271933850     
   6.3300000000000009E-002    -1.5861899218427313     
   6.3600000000000004E-002    -1.7221655002417204     
   6.3899999999999998E-002    -1.8035344231299772     
   6.4199999999999993E-002    -1.8226218691393612     
   6.4500000000000002E-002    -1.7754599706881171     
   6.4800000000000010E-002    -1.6624185241686715     
   6.5100000000000005E-002    -1.4886598331001197     
   6.5400000000000000E-002    -1.2639404034510575     
   6.5700000000000008E-002    -1.0023320004956136     
   6.5999999999999989E-002   -0.72123433331629339     
   6.6299999999999998E-002   -0.44023763255526527     
   6.6600000000000006E-002   -0.17986493328646555     
   6.6900000000000001E-002     4.0401890079904003E-002
   6.7199999999999996E-002    0.20338036298332995     
   6.7500000000000004E-002    0.29583047247992367     
   6.7800000000000013E-002    0.30963859335302180     
   6.8099999999999994E-002    0.24232909739060865     
   6.8400000000000002E-002     9.8023993707573046E-002
   6.8700000000000011E-002   -0.11331876163754408     
   6.8999999999999992E-002   -0.37606795646769031     
   6.9300000000000000E-002   -0.67030016979211515     
   6.9600000000000009E-002   -0.97309298114489362     
   6.9900000000000004E-002    -1.2602238941926629     
   7.0199999999999999E-002    -1.5082109994886725     
   7.0500000000000007E-002    -1.6957683961572929     
   7.0800000000000016E-002    -1.8057820674099347     
   7.1099999999999997E-002    -1.8261785323143691     
   7.1400000000000005E-002    -1.7509647067441496     
   7.1700000000000000E-002    -1.5807434926444828     
   7.1999999999999995E-002    -1.3220100461254825     
   7.2300000000000003E-002   -0.98708473661558971     
   7.2600000000000012E-002   -0.59284945947583523     
   7.2900000000000006E-002   -0.15903040409754032     
   7.3200000000000001E-002    0.29263952301752083     
   7.3499999999999996E-002    0.74063448579940505     
   7.3800000000000004E-002     1.1643547478984790     
   7.4099999999999999E-002     1.5457039724104298     
   7.4400000000000008E-002     1.8701141464042297     
   7.4700000000000003E-002     2.1262634040472719     
   7.5000000000000011E-002     2.3073167121518541     
   7.5299999999999992E-002     2.4095461039623540     
   7.5600000000000001E-002     2.4334746206152795     
   7.5900000000000009E-002     2.3819954663257672     
   7.6200000000000004E-002     2.2612233519416938     
   7.6499999999999999E-002     2.0795390092430557     
   7.6800000000000007E-002     1.8470319401202158     
   7.7099999999999988E-002     1.5763677037682415     
   7.7399999999999997E-002     1.2812902329397562     
   7.7700000000000005E-002    0.97785515746664653     
   7.8000000000000014E-002    0.68324953792158094     
   7.8299999999999995E-002    0.41529234685586514     
   7.8600000000000003E-002    0.19266683826161862     
   7.8900000000000012E-002     3.2237520217968080E-002
   7.9199999999999993E-002    -5.0331187613139552E-002
   7.9500000000000001E-002    -4.3988316375551235E-002
   7.9800000000000010E-002     5.7730896354827005E-002
   8.0100000000000018E-002    0.25429095184990824     
   8.0399999999999999E-002    0.53750355947736150     
   8.0700000000000008E-002    0.89109939900480795     
   8.1000000000000003E-002     1.2903444531760186     
   8.1299999999999997E-002     1.7036672361915164     
   8.1600000000000006E-002     2.0936127476623190     
   8.1900000000000014E-002     2.4198632476179380     
   8.2199999999999995E-002     2.6419761144019098     
   8.2500000000000004E-002     2.7227558059778292     
   8.2799999999999999E-002     2.6318746365427410     
   8.3100000000000007E-002     2.3484099443882309     
   8.3400000000000002E-002     1.8644256744316330     
   8.3700000000000011E-002     1.1856125758731171     
   8.4000000000000005E-002    0.33330521233541099     
   8.4300000000000000E-002   -0.65744289462215433     
   8.4599999999999995E-002    -1.7379432380869886     
   8.4900000000000003E-002    -2.8498490791918916     
   8.5199999999999998E-002    -3.9279133732367946     
   8.5500000000000007E-002    -4.9045691120004911     
   8.5800000000000001E-002    -5.7147444467175950     
   8.6100000000000010E-002    -6.2996172155113692     
   8.6399999999999991E-002    -6.6117517877184699     
   8.6699999999999999E-002    -6.6180772180595833     
   8.7000000000000008E-002    -6.3023652895974926     
   8.7300000000000003E-002    -5.6674656609330398     
   8.7599999999999997E-002    -4.7341986188237604     
   8.7900000000000006E-002    -3.5421775561526925     
   8.8200000000000014E-002    -2.1456748459066159     
   8.8499999999999995E-002   -0.61256729009600508     
   8.8800000000000004E-002    0.98166593581838768     
   8.9100000000000013E-002     2.5572254120847395     
   8.9399999999999993E-002     4.0347871700077311     
   8.9700000000000002E-002     5.3407209081290361     
   9.0000000000000011E-002     6.4111411000154499     
   9.0299999999999991E-002     7.1950604875377202     
   9.0600000000000000E-002     7.6584044991134679     
   9.0900000000000009E-002     7.7840230583757535     
   9.1200000000000017E-002     7.5740322139926306     
   9.1499999999999998E-002     7.0473110186552983     
   9.1800000000000007E-002     6.2391381120792087     
   9.2100000000000001E-002     5.1975275757880848     
   9.2399999999999996E-002     3.9801356244401935     
   9.2700000000000005E-002     2.6503714250373895     
   9.3000000000000013E-002     1.2725491632226427     
   9.3300000000000008E-002    -9.0925408071262037E-002
   9.3600000000000003E-002    -1.3836687097572229     
   9.3899999999999997E-002    -2.5584383029512914     
   9.4200000000000006E-002    -3.5774599060780350     
   9.4500000000000001E-002    -4.4157631345968813     
   9.4800000000000009E-002    -5.0581938669474589     
   9.5100000000000004E-002    -5.5020179543278260     
   9.5399999999999999E-002    -5.7522814352240470     
   9.5699999999999993E-002    -5.8227558284060548     
   9.6000000000000002E-002    -5.7326002192423040     
   9.6300000000000011E-002    -5.5043666079814155     
   9.6600000000000005E-002    -5.1634560364672346     
   9.6900000000000000E-002    -4.7355389254230627     
   9.7200000000000009E-002    -4.2455441504499509     
   9.7499999999999989E-002    -3.7181422514589437     
   9.7799999999999998E-002    -3.1746841408538939     
   9.8100000000000007E-002    -2.6355936617715585     
   9.8400000000000015E-002    -2.1172978428774067     
   9.8699999999999996E-002    -1.6347941894642739     
   9.9000000000000005E-002    -1.1986289094496891     
   9.9300000000000013E-002   -0.81684131065209020     
   9.9599999999999994E-002   -0.49426232944956761     
   9.9900000000000003E-002   -0.23155798005817785     
  0.10020000000000001         -2.7066924901327380E-002
  0.10049999999999999         0.12489649018244754     
  0.10080000000000000         0.23217317094139522     
  0.10110000000000001         0.30461035751969612     
  0.10140000000000000         0.35483195392132882     
  0.10170000000000000         0.39439405745665523     
  0.10200000000000001         0.43702088616738821     
  0.10230000000000002         0.49477072049595883     
  0.10260000000000000         0.57875286247861846     
  0.10290000000000001         0.69794776710292261     
  0.10320000000000000         0.85928795673592995     
  0.10350000000000001          1.0656357190894750     
  0.10380000000000000          1.3172065720960999     
  0.10410000000000001          1.6095932363753498     
  0.10440000000000001          1.9350700388190432     
  0.10470000000000000          2.2810476023142048     
  0.10500000000000000          2.6326929602687161     
  0.10530000000000000          2.9705947252154421     
  0.10560000000000000          3.2749443195380783     
  0.10590000000000001          3.5242078444943119     
  0.10620000000000000          3.6982964329711949     
  0.10650000000000001          3.7787923530239507     
  0.10679999999999999          3.7524137142407499     
  0.10710000000000000          3.6097647333864700     
  0.10740000000000001          3.3495219671348577     
  0.10770000000000000          2.9759809446324859     
  0.10800000000000000          2.5017372335430004     
  0.10830000000000001          1.9455577374800366     
  0.10859999999999999          1.3321207733179512     
  0.10890000000000000         0.68993413531386305     
  0.10920000000000001          4.9581196461680466E-002
  0.10950000000000001        -0.55754960361122929     
  0.10979999999999999         -1.1030495069289725     
  0.11009999999999999         -1.5616501075884246     
  0.11040000000000001         -1.9134160729342793     
  0.11070000000000001         -2.1455864178194832     
  0.11100000000000000         -2.2509503126598513     
  0.11130000000000000         -2.2311792453465351     
  0.11160000000000002         -2.0927141379856469     
  0.11190000000000001         -1.8502585797520386     
  0.11220000000000001         -1.5223514357132928     
  0.11250000000000000         -1.1336229332237922     
  0.11280000000000000        -0.71124068406074392     
  0.11309999999999999        -0.28624869328569225     
  0.11340000000000001         0.10926225717770406     
  0.11369999999999998         0.44217051249060690     
  0.11400000000000000         0.68068326231562937     
  0.11430000000000000         0.79480143015753479     
  0.11460000000000002         0.76106366101850353     
  0.11489999999999999         0.56256737695107972     
  0.11520000000000001         0.19373239908793533     
  0.11550000000000001        -0.33723570091019645     
  0.11580000000000000         -1.0075243973738228     
  0.11609999999999999         -1.7753776274723883     
  0.11640000000000002         -2.5830638875521208     
  0.11670000000000001         -3.3565046028252583     
  0.11700000000000001         -4.0093846479012463     
  0.11730000000000000         -4.4512374673173154     
  0.11760000000000000         -4.5916094103408707     
  0.11789999999999999         -4.3541796656560203     
  0.11820000000000001         -3.6820728559400040     
  0.11850000000000001         -2.5518615732541727     
  0.11880000000000000        -0.97755640561168500     
  0.11910000000000000         0.98130465947807743     
  0.11940000000000002          3.2194301200109381     
  0.11970000000000001          5.5905616272790066     
  0.12000000000000001          7.9129111432867116     
  0.12030000000000000          9.9855034888531158     
  0.12060000000000000          11.602601547869391     
  0.12089999999999999          12.573582799306246     
  0.12119999999999999          12.743653402971358     
  0.12150000000000001          12.009838131061549     
  0.12180000000000001          10.338350640712882     
  0.12210000000000000          7.7710337159928233     
  0.12239999999999999          4.4299108207247908     
  0.12270000000000002         0.51024123207210970     
  0.12300000000000001         -3.7308609796227201     
  0.12330000000000001         -7.9936626515797107     
  0.12360000000000000         -11.960314349438043     
  0.12390000000000000         -15.320770807001372     
  0.12419999999999999         -17.799388964155415     
  0.12450000000000001         -19.180345481509182     
  0.12480000000000001         -19.323787914208761     
  0.12509999999999999         -18.182957437248689     
  0.12540000000000001         -15.803213983219887     
  0.12570000000000003         -12.323265604215326     
  0.12600000000000000         -7.9605312285199723     
  0.12630000000000002         -2.9939017084406032     
  0.12659999999999999          2.2576585673996949     
  0.12690000000000001          7.4617266333094499     
  0.12719999999999998          12.294978797919985     
  0.12750000000000000          16.467565539373041     
  0.12780000000000002          19.740593487951973     
  0.12809999999999999          21.940351176451799     
  0.12840000000000001          22.964879865495142     
  0.12869999999999998          22.785396393532260     
  0.12900000000000000          21.444358195315115     
  0.12930000000000003          19.044602368111143     
  0.12959999999999999          15.740841796054291     
  0.12990000000000002          11.724769812262812     
  0.13019999999999998          7.2113603960395896     
  0.13050000000000000          2.4264283976000192     
  0.13080000000000003         -2.4084739535907209     
  0.13109999999999999         -7.0822037544265637     
  0.13140000000000002         -11.409226636688480     
  0.13169999999999998         -15.230044237046137     
  0.13200000000000001         -18.419344772725957     
  0.13229999999999997         -20.888309874174539     
  0.13260000000000000         -22.582154355452829     
  0.13290000000000002         -23.484556346407516     
  0.13319999999999999         -23.608025057851567     
  0.13350000000000001         -22.996713308568062     
  0.13380000000000003         -21.715357239802465     
  0.13410000000000000         -19.848530962827599     
  0.13440000000000002         -17.492145613183663     
  0.13469999999999999         -14.747016602650472     
  0.13500000000000001         -11.718007280371410     
  0.13529999999999998         -8.5023062077418192     
  0.13560000000000000         -5.1949718343543223     
  0.13590000000000002         -1.8780262274522519     
  0.13619999999999999          1.3734672288756062     
  0.13650000000000001          4.4950307798425113     
  0.13680000000000003          7.4324589936111272     
  0.13710000000000000          10.135630062575121     
  0.13740000000000002          12.565432752737077     
  0.13769999999999999          14.682844170316972     
  0.13800000000000001          16.457300968105876     
  0.13829999999999998          17.859491878766011     
  0.13860000000000000          18.866601017967497     
  0.13890000000000002          19.460812056204773     
  0.13919999999999999          19.631460945828117     
  0.13950000000000001          19.377726737527063     
  0.13979999999999998          18.707626613358048     
  0.14010000000000000          17.641757392652487     
  0.14040000000000002          16.212447292989399     
  0.14069999999999999          14.462727386188099     
  0.14100000000000001          12.448106618697249     
  0.14130000000000004          10.230287438905258     
  0.14160000000000000          7.8799968817328807     
  0.14189999999999997          5.4677426830664997     
  0.14219999999999999          3.0656758470084959     
  0.14250000000000002         0.74090897454141857     
  0.14279999999999998         -1.4471095628838404     
  0.14310000000000000         -3.4488199142172586     
  0.14339999999999997         -5.2277341744408163     
  0.14369999999999999         -6.7608102064190856     
  0.14400000000000002         -8.0389994127147339     
  0.14429999999999998         -9.0676695263918496     
  0.14460000000000001         -9.8608385071697988     
  0.14490000000000003         -10.445794616036965     
  0.14520000000000000         -10.850555124544512     
  0.14550000000000002         -11.109172028974825     
  0.14579999999999999         -11.252165919999761     
  0.14610000000000001         -11.305062556142195     
  0.14640000000000003         -11.288736781343337     
  0.14670000000000000         -11.210866047310040     
  0.14699999999999996         -11.073532452655094     
  0.14729999999999999         -10.867062065891655     
  0.14760000000000001         -10.574627177921801     
  0.14789999999999998         -10.175196494094756     
  0.14820000000000000         -9.6436478404069721     