  -1.4999999999999999E-002     0.0000000000000000     
  -1.4700000000000000E-002     0.0000000000000000     
  -1.4400000000000000E-002     0.0000000000000000     
  -1.4100000000000000E-002     0.0000000000000000     
  -1.3800000000000000E-002     0.0000000000000000     
  -1.3500000000000000E-002     0.0000000000000000     
  -1.3200000000000000E-002     0.0000000000000000     
  -1.2899999999999998E-002     0.0000000000000000     
  -1.2600000000000000E-002     0.0000000000000000     
  -1.2299999999999998E-002     0.0000000000000000     
  -1.2000000000000000E-002     0.0000000000000000     
  -1.1699999999999999E-002     0.0000000000000000     
  -1.1399999999999999E-002     0.0000000000000000     
  -1.1099999999999999E-002     0.0000000000000000     
  -1.0799999999999999E-002     0.0000000000000000     
  -1.0499999999999999E-002     0.0000000000000000     
  -1.0199999999999999E-002     0.0000000000000000     
  -9.8999999999999991E-003     0.0000000000000000     
  -9.5999999999999992E-003     0.0000000000000000     
  -9.2999999999999992E-003     0.0000000000000000     
  -8.9999999999999993E-003     0.0000000000000000     
  -8.6999999999999994E-003     0.0000000000000000     
  -8.3999999999999995E-003     0.0000000000000000     
  -8.0999999999999996E-003     0.0000000000000000     
  -7.7999999999999988E-003     0.0000000000000000     
  -7.4999999999999997E-003     0.0000000000000000     
  -7.1999999999999998E-003     0.0000000000000000     
  -6.8999999999999981E-003     0.0000000000000000     
  -6.5999999999999982E-003     0.0000000000000000     
  -6.3000000000000000E-003     0.0000000000000000     
  -6.0000000000000001E-003     0.0000000000000000     
  -5.6999999999999985E-003     0.0000000000000000     
  -5.3999999999999986E-003     0.0000000000000000     
  -5.1000000000000004E-003     0.0000000000000000     
  -4.7999999999999987E-003     0.0000000000000000     
  -4.5000000000000005E-003     0.0000000000000000     
  -4.1999999999999989E-003     0.0000000000000000     
  -3.8999999999999990E-003     0.0000000000000000     
  -3.5999999999999990E-003     0.0000000000000000     
  -3.2999999999999991E-003     0.0000000000000000     
  -2.9999999999999992E-003     0.0000000000000000     
  -2.6999999999999993E-003     0.0000000000000000     
  -2.3999999999999994E-003     0.0000000000000000     
  -2.0999999999999977E-003     0.0000000000000000     
  -1.7999999999999995E-003     0.0000000000000000     
  -1.4999999999999979E-003     0.0000000000000000     
  -1.1999999999999997E-003     0.0000000000000000     
  -8.9999999999999976E-004     0.0000000000000000     
  -5.9999999999999810E-004     0.0000000000000000     
  -2.9999999999999992E-004     0.0000000000000000     
   0.0000000000000000          0.0000000000000000     
   3.0000000000000165E-004     0.0000000000000000     
   5.9999999999999984E-004     0.0000000000000000     
   9.0000000000000149E-004     0.0000000000000000     
   1.2000000000000031E-003     0.0000000000000000     
   1.5000000000000013E-003     0.0000000000000000     
   1.8000000000000030E-003     0.0000000000000000     
   2.1000000000000012E-003     0.0000000000000000     
   2.3999999999999994E-003     0.0000000000000000     
   2.7000000000000010E-003     0.0000000000000000     
   2.9999999999999992E-003     0.0000000000000000     
   3.3000000000000008E-003     0.0000000000000000     
   3.6000000000000025E-003     0.0000000000000000     
   3.9000000000000007E-003     0.0000000000000000     
   4.2000000000000023E-003     0.0000000000000000     
   4.5000000000000005E-003     0.0000000000000000     
   4.7999999999999987E-003     0.0000000000000000     
   5.1000000000000004E-003     0.0000000000000000     
   5.4000000000000020E-003     0.0000000000000000     
   5.7000000000000037E-003     0.0000000000000000     
   5.9999999999999984E-003     0.0000000000000000     
   6.3000000000000000E-003     0.0000000000000000     
   6.6000000000000017E-003     0.0000000000000000     
   6.9000000000000034E-003     0.0000000000000000     
   7.2000000000000015E-003     0.0000000000000000     
   7.5000000000000032E-003     0.0000000000000000     
   7.8000000000000014E-003     0.0000000000000000     
   8.0999999999999996E-003     0.0000000000000000     
   8.4000000000000012E-003     0.0000000000000000     
   8.7000000000000029E-003     0.0000000000000000     
   9.0000000000000011E-003     0.0000000000000000     
   9.2999999999999992E-003     0.0000000000000000     
   9.6000000000000009E-003     0.0000000000000000     
   9.8999999999999991E-003     0.0000000000000000     
   1.0200000000000001E-002     0.0000000000000000     
   1.0500000000000002E-002     0.0000000000000000     
   1.0800000000000004E-002     0.0000000000000000     
   1.1099999999999999E-002     0.0000000000000000     
   1.1400000000000000E-002     0.0000000000000000     
   1.1700000000000002E-002     0.0000000000000000     
   1.2000000000000004E-002     0.0000000000000000     
   1.2300000000000002E-002     0.0000000000000000     
   1.2600000000000000E-002     0.0000000000000000     
   1.2900000000000002E-002     0.0000000000000000     
   1.3200000000000000E-002     0.0000000000000000     
   1.3500000000000002E-002     0.0000000000000000     
   1.3800000000000003E-002     0.0000000000000000     
   1.4100000000000001E-002     0.0000000000000000     
   1.4400000000000000E-002     0.0000000000000000     
   1.4700000000000001E-002     0.0000000000000000     
   1.4999999999999999E-002     0.0000000000000000     
   1.5300000000000001E-002     0.0000000000000000     
   1.5600000000000003E-002     0.0000000000000000     
   1.5899999999999997E-002     0.0000000000000000     
   1.6199999999999999E-002     0.0000000000000000     
   1.6500000000000001E-002     0.0000000000000000     
   1.6800000000000002E-002     0.0000000000000000     
   1.7100000000000004E-002     0.0000000000000000     
   1.7400000000000006E-002     0.0000000000000000     
   1.7700000000000000E-002     0.0000000000000000     
   1.8000000000000002E-002     0.0000000000000000     
   1.8300000000000004E-002     0.0000000000000000     
   1.8600000000000005E-002     0.0000000000000000     
   1.8900000000000000E-002     0.0000000000000000     
   1.9200000000000002E-002     0.0000000000000000     
   1.9500000000000003E-002     0.0000000000000000     
   1.9799999999999998E-002     0.0000000000000000     
   2.0100000000000000E-002     0.0000000000000000     
   2.0400000000000001E-002     0.0000000000000000     
   2.0700000000000003E-002     0.0000000000000000     
   2.0999999999999998E-002     0.0000000000000000     
   2.1299999999999999E-002     0.0000000000000000     
   2.1600000000000001E-002     0.0000000000000000     
   2.1900000000000003E-002     0.0000000000000000     
   2.2200000000000004E-002     0.0000000000000000     
   2.2500000000000006E-002     0.0000000000000000     
   2.2800000000000001E-002     0.0000000000000000     
   2.3100000000000002E-002     0.0000000000000000     
   2.3400000000000004E-002     0.0000000000000000     
   2.3699999999999999E-002     0.0000000000000000     
   2.4000000000000000E-002     0.0000000000000000     
   2.4300000000000002E-002     0.0000000000000000     
   2.4599999999999997E-002     0.0000000000000000     
   2.4900000000000005E-002     0.0000000000000000     
   2.5200000000000000E-002     0.0000000000000000     
   2.5499999999999995E-002     0.0000000000000000     
   2.5800000000000003E-002     0.0000000000000000     
   2.6099999999999998E-002     0.0000000000000000     
   2.6400000000000007E-002     0.0000000000000000     
   2.6700000000000002E-002     0.0000000000000000     
   2.6999999999999996E-002     0.0000000000000000     
   2.7300000000000005E-002     0.0000000000000000     
   2.7600000000000000E-002     0.0000000000000000     
   2.7900000000000008E-002     0.0000000000000000     
   2.8200000000000003E-002     0.0000000000000000     
   2.8499999999999998E-002     0.0000000000000000     
   2.8800000000000006E-002     0.0000000000000000     
   2.9100000000000001E-002     0.0000000000000000     
   2.9400000000000003E-002     0.0000000000000000     
   2.9700000000000004E-002     0.0000000000000000     
   3.0000000000000006E-002     0.0000000000000000     
   3.0300000000000001E-002     0.0000000000000000     
   3.0600000000000002E-002     0.0000000000000000     
   3.0900000000000004E-002     0.0000000000000000     
   3.1199999999999999E-002     0.0000000000000000     
   3.1500000000000007E-002     0.0000000000000000     
   3.1800000000000002E-002     0.0000000000000000     
   3.2099999999999997E-002     0.0000000000000000     
   3.2400000000000005E-002     0.0000000000000000     
   3.2700000000000000E-002     0.0000000000000000     
   3.3000000000000002E-002     0.0000000000000000     
   3.3300000000000003E-002     0.0000000000000000     
   3.3599999999999998E-002     0.0000000000000000     
   3.3900000000000000E-002     0.0000000000000000     
   3.4200000000000001E-002     0.0000000000000000     
   3.4500000000000003E-002     0.0000000000000000     
   3.4799999999999998E-002     0.0000000000000000     
   3.5099999999999999E-002     0.0000000000000000     
   3.5400000000000001E-002    -1.6449356441030612E-041
   3.5699999999999996E-002     6.6681669204934251E-041
   3.6000000000000004E-002    -2.6124544122036714E-038
   3.6299999999999999E-002    -6.8959019512981680E-037
   3.6600000000000008E-002     1.1858465119275837E-035
   3.6900000000000002E-002    -3.2960851873198587E-035
   3.7199999999999997E-002     3.2526986576837978E-034
   3.7500000000000006E-002    -1.4598031919099002E-033
   3.7800000000000000E-002     5.4810348914940870E-033
   3.8100000000000009E-002    -1.2624564640963559E-032
   3.8400000000000004E-002     1.7917339210439010E-032
   3.8699999999999998E-002     6.0383540935052535E-033
   3.9000000000000007E-002    -1.4770427420675912E-031
   3.9300000000000002E-002     6.1368514361154247E-031
   3.9600000000000003E-002    -1.7334321283513906E-030
   3.9900000000000005E-002     3.5993751817932241E-030
   4.0200000000000000E-002    -4.6033027917663565E-030
   4.0500000000000001E-002    -2.2850777590404713E-030
   4.0800000000000003E-002     3.5679103869945523E-029
   4.1100000000000005E-002    -1.2863189089984216E-028
   4.1399999999999999E-002     3.0643778436228596E-028
   4.1700000000000008E-002    -4.9269551772846090E-028
   4.2000000000000003E-002     2.9668959404747259E-028
   4.2299999999999997E-002     1.2265639702636560E-027
   4.2600000000000006E-002    -5.2468432925394177E-027
   4.2900000000000001E-002     1.0551220515748039E-026
   4.3200000000000002E-002    -5.4041268735225818E-027
   4.3500000000000004E-002    -5.0179455993225935E-026
   4.3799999999999999E-002     2.5438419943696157E-025
   4.4100000000000000E-002    -8.0889923443914293E-025
   4.4400000000000002E-002     2.1093482532101845E-024
   4.4700000000000004E-002    -5.0156854001482996E-024
   4.4999999999999998E-002     1.1612061089163128E-023
   4.5300000000000000E-002    -2.6451545507919674E-023
   4.5600000000000002E-002     5.4692192183996771E-023
   4.5899999999999996E-002    -7.7026923140125997E-023
   4.6200000000000005E-002    -7.5370077741175940E-023
   4.6500000000000000E-002     1.1841509014418132E-021
   4.6799999999999994E-002    -6.0684760030933421E-021
   4.7100000000000003E-002     2.3293109942708515E-020
   4.7399999999999998E-002    -7.4963227019063929E-020
   4.7700000000000006E-002     2.0701840002916166E-019
   4.8000000000000001E-002    -4.7833906779011826E-019
   4.8300000000000010E-002     8.1830934539436228E-019
   4.8600000000000004E-002    -3.8583735740149981E-019
   4.8899999999999999E-002    -4.4855040183023689E-018
   4.9200000000000008E-002     2.5146107079872694E-017
   4.9500000000000002E-002    -8.7111553780981468E-017
   4.9800000000000011E-002     2.2028543561674576E-016
   5.0100000000000006E-002    -3.5918515509654899E-016
   5.0400000000000000E-002    -2.9431829370889229E-017
   5.0700000000000009E-002     2.7735010059089543E-015
   5.1000000000000004E-002    -1.1534362830110934E-014
   5.1299999999999998E-002     2.7521862789131432E-014
   5.1600000000000007E-002    -2.8410690160172165E-014
   5.1900000000000002E-002    -7.9368607330538625E-014
   5.2200000000000010E-002     4.7829861993872246E-013
   5.2500000000000005E-002    -1.1545352294686685E-012
   5.2800000000000000E-002     8.1786433724249196E-013
   5.3099999999999994E-002     4.5511666084903801E-012
   5.3400000000000003E-002    -1.8712171955247893E-011
   5.3699999999999998E-002     2.6795009304466296E-011
   5.4000000000000006E-002     3.5026028309149922E-011
   5.4300000000000001E-002    -2.3866776918042196E-010
   5.4599999999999996E-002     3.7453501497839627E-010
   5.4900000000000004E-002     4.4002702073909393E-010
   5.5199999999999999E-002    -2.8058161922217483E-009
   5.5499999999999994E-002     2.9322840641715426E-009
   5.5800000000000002E-002     8.7294974564915188E-009
   5.6099999999999997E-002    -2.6049442341017962E-008
   5.6400000000000006E-002    -8.2636348532769230E-009
   5.6700000000000000E-002     1.1845592751988372E-007
   5.6999999999999995E-002    -5.4647605661603827E-008
   5.7300000000000004E-002    -4.5940887270453881E-007
   5.7599999999999998E-002     3.3120286624165534E-007
   5.7900000000000007E-002     2.6877299776501439E-006
   5.8200000000000002E-002     4.6980493871629737E-006
   5.8499999999999996E-002     5.8795590281115632E-006
   5.8800000000000005E-002     7.7894064893099425E-006
   5.9100000000000000E-002     1.0687331250008459E-005
   5.9400000000000008E-002     1.5040813705188853E-005
   5.9700000000000003E-002     2.3027345323413211E-005
   6.0000000000000012E-002     3.5921748881349535E-005
   6.0300000000000006E-002     5.4828008407788013E-005
   6.0600000000000001E-002     8.1416826113042212E-005
   6.0900000000000010E-002     1.1717474685759538E-004
   6.1200000000000004E-002     1.6636226748725709E-004
   6.1500000000000013E-002     2.3369816006228760E-004
   6.1800000000000008E-002     3.2009844669224168E-004
   6.2100000000000002E-002     4.2781017551397210E-004
   6.2399999999999997E-002     5.6156298932891441E-004
   6.2700000000000006E-002     7.2487562523054706E-004
   6.3000000000000000E-002     9.1999211445808462E-004
   6.3300000000000009E-002     1.1423504775944047E-003
   6.3600000000000004E-002     1.3805756823427112E-003
   6.3899999999999998E-002     1.6232018437042021E-003
   6.4199999999999993E-002     1.8500208821591014E-003
   6.4500000000000002E-002     2.0266487958646223E-003
   6.4800000000000010E-002     2.1123778156014262E-003
   6.5100000000000005E-002     2.0581515015902201E-003
   6.5400000000000000E-002     1.8055559590378339E-003
   6.5700000000000008E-002     1.2919768545667674E-003
   6.5999999999999989E-002     4.5054201194762557E-004
   6.6299999999999998E-002    -7.8214696320678793E-004
   6.6600000000000006E-002    -2.4597023469666523E-003
   6.6900000000000001E-002    -4.6192374568121333E-003
   6.7199999999999996E-002    -7.2650635181360250E-003
   6.7500000000000004E-002    -1.0365764888838499E-002
   6.7800000000000013E-002    -1.3856265215884752E-002
   6.8099999999999994E-002    -1.7623602084777517E-002
   6.8400000000000002E-002    -2.1514603679658007E-002
   6.8700000000000011E-002    -2.5349435888203691E-002
   6.8999999999999992E-002    -2.8923049161986163E-002
   6.9300000000000000E-002    -3.2022835700299623E-002
   6.9600000000000009E-002    -3.4452088635109242E-002
   6.9900000000000004E-002    -3.6047001744760970E-002
   7.0199999999999999E-002    -3.6701272230312498E-002
   7.0500000000000007E-002    -3.6373523579216846E-002
   7.0800000000000016E-002    -3.5089052853232300E-002
   7.1099999999999997E-002    -3.2947021024848380E-002
   7.1400000000000005E-002    -3.0102309544548789E-002
   7.1700000000000000E-002    -2.6742805880287310E-002
   7.1999999999999995E-002    -2.3067845717578479E-002
   7.2300000000000003E-002    -1.9249420902349566E-002
   7.2600000000000012E-002    -1.5436059141467430E-002
   7.2900000000000006E-002    -1.1693752613260864E-002
   7.3200000000000001E-002    -8.0075469853806494E-003
   7.3499999999999996E-002    -4.2993301844166856E-003
   7.3800000000000004E-002    -4.6327458658153059E-004
   7.4099999999999999E-002     3.6267139243867344E-003
   7.4400000000000008E-002     8.0838822038007425E-003
   7.4700000000000003E-002     1.2938673876055544E-002
   7.5000000000000011E-002     1.8106738512596789E-002
   7.5299999999999992E-002     2.3358997053827952E-002
   7.5600000000000001E-002     2.8343719119993862E-002
   7.5900000000000009E-002     3.2570183101734103E-002
   7.6200000000000004E-002     3.5452171118553678E-002
   7.6499999999999999E-002     3.6376495438212669E-002
   7.6800000000000007E-002     3.4761190729133300E-002
   7.7099999999999988E-002     3.0130395307922005E-002
   7.7399999999999997E-002     2.2183889196575546E-002
   7.7700000000000005E-002     1.0833750076852557E-002
   7.8000000000000014E-002    -3.7428320224534555E-003
   7.8299999999999995E-002    -2.1084146880894102E-002
   7.8600000000000003E-002    -4.0518039904426303E-002
   7.8900000000000012E-002    -6.1178215109326528E-002
   7.9199999999999993E-002    -8.2053018906228958E-002
   7.9500000000000001E-002   -0.10205014819660285     
   7.9800000000000010E-002   -0.12013149910205227     
   8.0100000000000018E-002   -0.13527747211738120     
   8.0399999999999999E-002   -0.14660072996391799     
   8.0700000000000008E-002   -0.15331610070043611     
   8.1000000000000003E-002   -0.15475408013813005     
   8.1299999999999997E-002   -0.15036972883943425     
   8.1600000000000006E-002   -0.13971325295575571     
   8.1900000000000014E-002   -0.12243043946817422     
   8.2199999999999995E-002    -9.8268556938575904E-002
   8.2500000000000004E-002    -6.7123677309204918E-002
   8.2799999999999999E-002    -2.9111986464178424E-002
   8.3100000000000007E-002     1.5354900848826278E-002
   8.3400000000000002E-002     6.5462895362817672E-002
   8.3700000000000011E-002    0.11993902761019228     
   8.4000000000000005E-002    0.17687780762510064     
   8.4300000000000000E-002    0.23388521923061389     
   8.4599999999999995E-002    0.28804278747621836     
   8.4900000000000003E-002    0.33600955254053988     
   8.5199999999999998E-002    0.37431036672205636     
   8.5500000000000007E-002    0.39957876114951651     
   8.5800000000000001E-002    0.40886160768370861     
   8.6100000000000010E-002    0.40002559433628027     
   8.6399999999999991E-002    0.37201252241734661     
   8.6699999999999999E-002    0.32515288351036331     
   8.7000000000000008E-002    0.26125552764190729     
   8.7300000000000003E-002    0.18369007305107790     
   8.7599999999999997E-002     9.7176214438199543E-002
   8.7900000000000006E-002     7.5522826225883979E-003
   8.8200000000000014E-002    -7.8656276565594888E-002
   8.8499999999999995E-002   -0.15476131677184535     
   8.8800000000000004E-002   -0.21448285276426568     
   8.9100000000000013E-002   -0.25256330858688636     
   8.9399999999999993E-002   -0.26521011539661649     
   8.9700000000000002E-002   -0.25059417983522564     
   9.0000000000000011E-002   -0.20903398364357334     
   9.0299999999999991E-002   -0.14309910443359819     
   9.0600000000000000E-002    -5.7438805120043734E-002
   9.0900000000000009E-002     4.1527933051758850E-002
   9.1200000000000017E-002    0.14605489674064215     
   9.1499999999999998E-002    0.24773274980378709     
   9.1800000000000007E-002    0.33816578199316860     
   9.2100000000000001E-002    0.40966798379227726     
   9.2399999999999996E-002    0.45579662430748230     
   9.2700000000000005E-002    0.47196110061672814     
   9.3000000000000013E-002    0.45577442562615211     
   9.3300000000000008E-002    0.40716297651741662     
   9.3600000000000003E-002    0.32840015818428137     
   9.3899999999999997E-002    0.22381580909149024     
   9.4200000000000006E-002     9.9507967112233239E-002
   9.4500000000000001E-002    -3.7204148636261800E-002
   9.4800000000000009E-002   -0.17835504585558021     
   9.5100000000000004E-002   -0.31588497682003303     
   9.5399999999999999E-002   -0.44225910540377289     
   9.5699999999999993E-002   -0.55085542094022166     
   9.6000000000000002E-002   -0.63640647092717362     
   9.6300000000000011E-002   -0.69514297403182312     
   9.6600000000000005E-002   -0.72495280313640720     
   9.6900000000000000E-002   -0.72530829458728507     
   9.7200000000000009E-002   -0.69711500578363295     
   9.7499999999999989E-002   -0.64263702348100815     
   9.7799999999999998E-002   -0.56503601483788990     
   9.8100000000000007E-002   -0.46834335629693324     
   9.8400000000000015E-002   -0.35701786492396304     
   9.8699999999999996E-002   -0.23586397671163162     
   9.9000000000000005E-002   -0.10976950958790610     
   9.9300000000000013E-002     1.6451944558276255E-002
   9.9599999999999994E-002    0.13816535361713789     
   9.9900000000000003E-002    0.25105004559700012     
  0.10020000000000001         0.35132234968660842     
  0.10049999999999999         0.43565843091286111     
  0.10080000000000000         0.50155593905297280     
  0.10110000000000001         0.54731421650064138     
  0.10140000000000000         0.57222546273440456     
  0.10170000000000000         0.57656259583583003     
  0.10200000000000001         0.56165904335195060     
  0.10230000000000002         0.52975287210588085     
  0.10260000000000000         0.48397652630804755     
  0.10290000000000001         0.42794140620164206     
  0.10320000000000000         0.36563415852079162     
  0.10350000000000001         0.30091136879561298     
  0.10380000000000000         0.23728262368193798     
  0.10410000000000001         0.17752722619055131     
  0.10440000000000001         0.12341849266717064     
  0.10470000000000000          7.5686045561905751E-002
  0.10500000000000000          3.3855239172121743E-002
  0.10530000000000000         -3.5472661398695537E-003
  0.10560000000000000         -3.8708557918825076E-002
  0.10590000000000001         -7.4399928302132046E-002
  0.10620000000000000        -0.11332894944464250     
  0.10650000000000001        -0.15791680827304422     
  0.10679999999999999        -0.20988779550851425     
  0.10710000000000000        -0.27001271292205531     
  0.10740000000000001        -0.33778974543450618     
  0.10770000000000000        -0.41169926017397229     
  0.10800000000000000        -0.48909113125563963     
  0.10830000000000001        -0.56639020622158809     
  0.10859999999999999        -0.63973843258688368     
  0.10890000000000000        -0.70493157882554303     
  0.10920000000000001        -0.75811075365436420     
  0.10950000000000001        -0.79588776952359197     
  0.10979999999999999        -0.81566317333426697     
  0.11009999999999999        -0.81584617943374471     
  0.11040000000000001        -0.79570515962887933     
  0.11070000000000001        -0.75555704110638622     
  0.11100000000000000        -0.69635485845540046     
  0.11130000000000000        -0.61969673779549583     
  0.11160000000000002        -0.52773330085447023     
  0.11190000000000001        -0.42271794628054149     
  0.11220000000000001        -0.30723678204206134     
  0.11250000000000000        -0.18380612391377915     
  0.11280000000000000         -5.5089276907910018E-002
  0.11309999999999999          7.6223838941015490E-002
  0.11340000000000001         0.20719039752211546     
  0.11369999999999998         0.33502725592212168     
  0.11400000000000000         0.45647004635720129     
  0.11430000000000000         0.56840798508747215     
  0.11460000000000002         0.66758971409637868     
  0.11489999999999999         0.75099924278002783     
  0.11520000000000001         0.81578122631693306     
  0.11550000000000001         0.85966173854725558     
  0.11580000000000000         0.88087725549257390     
  0.11609999999999999         0.87852474127546365     
  0.11640000000000002         0.85266439739453848     
  0.11670000000000001         0.80410219410857509     
  0.11700000000000001         0.73464724810768811     
  0.11730000000000000         0.64706275988451833     
  0.11760000000000000         0.54459002154716907     
  0.11789999999999999         0.43122399444710596     
  0.11820000000000001         0.31111641303828541     
  0.11850000000000001         0.18883772550256100     
  0.11880000000000000          6.8708062649424612E-002
  0.11910000000000000         -4.4967619300049971E-002
  0.11940000000000002        -0.14849957110368459     
  0.11970000000000001        -0.23848389381252871     
  0.12000000000000001        -0.31210519522164304     
  0.12030000000000000        -0.36729964787003677     
  0.12060000000000000        -0.40276677022878282     
  0.12089999999999999        -0.41780291044650864     
  0.12119999999999999        -0.41270984969866920     
  0.12150000000000001        -0.38844123659560009     
  0.12180000000000001        -0.34697806877555243     
  0.12210000000000000        -0.29090184910053285     
  0.12239999999999999        -0.22379009024979168     
  0.12270000000000002        -0.14969443962011897     
  0.12300000000000001         -7.3234989379896309E-002
  0.12330000000000001          8.0106297618941745E-004
  0.12360000000000000          6.7773759603064504E-002
  0.12390000000000000         0.12329886532520370     
  0.12419999999999999         0.16399287881511498     
  0.12450000000000001         0.18766414110805130     
  0.12480000000000001         0.19362214212497117     
  0.12509999999999999         0.18274210187252402     
  0.12540000000000001         0.15774432458005849     
  0.12570000000000003         0.12277311313077394     
  0.12600000000000000          8.3401220154435587E-002
  0.12630000000000002          4.5745215257762074E-002
  0.12659999999999999          1.6196670687899928E-002
  0.12690000000000001          5.8256234538554830E-004
  0.12719999999999998          3.6427873067075740E-003
  0.12750000000000000          2.8328582844494542E-002
  0.12780000000000002          7.5511623076182630E-002
  0.12809999999999999         0.14386600579831718     
  0.12840000000000001         0.22957588972923892     
  0.12869999999999998         0.32715792126373905     
  0.12900000000000000         0.42928365401694479     
  0.12930000000000003         0.52784320526266004     
  0.12959999999999999         0.61444120877895470     
  0.12990000000000002         0.68094486427729317     
  0.13019999999999998         0.72050924909906755     
  0.13050000000000000         0.72749323737989924     
  0.13080000000000003         0.69850527896831960     
  0.13109999999999999         0.63202746273907717     
  0.13140000000000002         0.52893721241620928     
  0.13169999999999998         0.39202796816286201     
  0.13200000000000001         0.22635989411852853     
  0.13229999999999997          3.8354454570602048E-002
  0.13260000000000000        -0.16398858891892837     
  0.13290000000000002        -0.37178609653297146     
  0.13319999999999999        -0.57552037991422911     
  0.13350000000000001        -0.76567542403961131     
  0.13380000000000003        -0.93279818009272841     
  0.13410000000000000         -1.0687319210634159     
  0.13440000000000002         -1.1662801877383713     
  0.13469999999999999         -1.2202718855324703     
  0.13500000000000001         -1.2278340176472278     
  0.13529999999999998         -1.1884893374980250     
  0.13560000000000000         -1.1045888967629736     
  0.13590000000000002        -0.98129769895987340     
  0.13619999999999999        -0.82604023931005810     
  0.13650000000000001        -0.64849075476954465     
  0.13680000000000003        -0.45971042923562644     
  0.13710000000000000        -0.27131099822806531     
  0.13740000000000002         -9.4605331355673034E-002
  0.13769999999999999          5.9998701772502161E-002
  0.13800000000000001         0.18438553503432775     
  0.13829999999999998         0.27270480834181848     
  0.13860000000000000         0.32229095440950167     
  0.13890000000000002         0.33388528530317235     
  0.13919999999999999         0.31105533445765576     
  0.13950000000000001         0.26042871394155592     
  0.13979999999999998         0.19083250873713531     
  0.14010000000000000         0.11251715516307398     
  0.14040000000000002          3.6546242121781647E-002
  0.14069999999999999         -2.6134976914475291E-002
  0.14100000000000001         -6.5888619766873324E-002
  0.14130000000000004         -7.4470078512911056E-002
  0.14160000000000000         -4.6341423176819919E-002
  0.14189999999999997          2.1270192421452810E-002
  0.14219999999999999         0.12791852262783754     
  0.14250000000000002         0.26989144450268970     
  0.14279999999999998         0.44024970679186726     
  0.14310000000000000         0.62912810132416308     
  0.14339999999999997         0.82418620009119281     
  0.14369999999999999          1.0116013154525283     
  0.14400000000000002          1.1765529265905987     
  0.14429999999999998          1.3044632280369621     
  0.14460000000000001          1.3819871742895697     
  0.14490000000000003          1.3982632568669238     
  0.14520000000000000          1.3455250866538675     
  0.14550000000000002          1.2206221740764480     
  0.14579999999999999          1.0248889607492793     
  0.14610000000000001         0.76485591599395941     
  0.14640000000000003         0.45206345183920016     
  0.14670000000000000         0.10236653213154401     
  0.14699999999999996        -0.26498051899508579     
  0.14729999999999999        -0.62848179387641789     
  0.14760000000000001        -0.96615946141286391     
  0.14789999999999998         -1.2571196332484034     
  0.14820000000000000         -1.4833842639031547     