  -1.4999999999999999E-002     0.0000000000000000     
  -1.4700000000000000E-002     0.0000000000000000     
  -1.4400000000000000E-002     0.0000000000000000     
  -1.4100000000000000E-002     0.0000000000000000     
  -1.3800000000000000E-002     0.0000000000000000     
  -1.3500000000000000E-002     0.0000000000000000     
  -1.3200000000000000E-002     0.0000000000000000     
  -1.2899999999999998E-002     0.0000000000000000     
  -1.2600000000000000E-002     0.0000000000000000     
  -1.2299999999999998E-002     0.0000000000000000     
  -1.2000000000000000E-002     0.0000000000000000     
  -1.1699999999999999E-002     0.0000000000000000     
  -1.1399999999999999E-002     0.0000000000000000     
  -1.1099999999999999E-002     0.0000000000000000     
  -1.0799999999999999E-002     0.0000000000000000     
  -1.0499999999999999E-002     0.0000000000000000     
  -1.0199999999999999E-002     0.0000000000000000     
  -9.8999999999999991E-003     0.0000000000000000     
  -9.5999999999999992E-003     0.0000000000000000     
  -9.2999999999999992E-003     0.0000000000000000     
  -8.9999999999999993E-003     0.0000000000000000     
  -8.6999999999999994E-003     0.0000000000000000     
  -8.3999999999999995E-003     0.0000000000000000     
  -8.0999999999999996E-003     0.0000000000000000     
  -7.7999999999999988E-003     0.0000000000000000     
  -7.4999999999999997E-003     0.0000000000000000     
  -7.1999999999999998E-003     0.0000000000000000     
  -6.8999999999999981E-003     0.0000000000000000     
  -6.5999999999999982E-003     0.0000000000000000     
  -6.3000000000000000E-003     0.0000000000000000     
  -6.0000000000000001E-003     0.0000000000000000     
  -5.6999999999999985E-003     0.0000000000000000     
  -5.3999999999999986E-003     0.0000000000000000     
  -5.1000000000000004E-003     0.0000000000000000     
  -4.7999999999999987E-003     0.0000000000000000     
  -4.5000000000000005E-003     0.0000000000000000     
  -4.1999999999999989E-003     0.0000000000000000     
  -3.8999999999999990E-003     0.0000000000000000     
  -3.5999999999999990E-003     0.0000000000000000     
  -3.2999999999999991E-003     0.0000000000000000     
  -2.9999999999999992E-003     0.0000000000000000     
  -2.6999999999999993E-003     0.0000000000000000     
  -2.3999999999999994E-003     0.0000000000000000     
  -2.0999999999999977E-003     8.2993587888073045E-038
  -1.7999999999999995E-003     1.6224614186491295E-035
  -1.4999999999999979E-003     5.2678470989103447E-035
  -1.1999999999999997E-003    -3.6194843893042396E-034
  -8.9999999999999976E-004     7.4833296542564662E-034
  -5.9999999999999810E-004    -2.6155930692602951E-033
  -2.9999999999999992E-004     6.3487337352270249E-033
   0.0000000000000000         -1.1376535712198121E-032
   3.0000000000000165E-004     1.5056826232514177E-032
   5.9999999999999984E-004    -3.2021250950808892E-032
   9.0000000000000149E-004     1.1306837146822462E-031
   1.2000000000000031E-003    -2.1588499378921962E-031
   1.5000000000000013E-003    -4.1190064088260658E-032
   1.8000000000000030E-003     1.1913146935469918E-030
   2.1000000000000012E-003    -2.7976031605258616E-030
   2.3999999999999994E-003     1.5825379365418979E-030
   2.7000000000000010E-003     8.4107600024127451E-030
   2.9999999999999992E-003    -2.4716354938751159E-029
   3.3000000000000008E-003     1.4777134296655673E-029
   3.6000000000000025E-003     7.2736018920956411E-029
   3.9000000000000007E-003    -2.0927435032978803E-028
   4.2000000000000023E-003     1.4631408303994768E-028
   4.5000000000000005E-003     5.4640815320664672E-028
   4.7999999999999987E-003    -1.8265041459821455E-027
   5.1000000000000004E-003     1.7534857019550652E-027
   5.4000000000000020E-003     3.7045718153790421E-027
   5.7000000000000037E-003    -1.5123230726623091E-026
   5.9999999999999984E-003     1.7838269508954051E-026
   6.3000000000000000E-003     2.1358180357370233E-026
   6.6000000000000017E-003    -1.1541239466333329E-025
   6.9000000000000034E-003     1.5968414830106473E-025
   7.2000000000000015E-003     1.1187372892466291E-025
   7.5000000000000032E-003    -8.2671021010552827E-025
   7.8000000000000014E-003     1.2342543609732547E-024
   8.0999999999999996E-003     5.8053433795019674E-025
   8.4000000000000012E-003    -5.5266144166739424E-024
   8.7000000000000029E-003     8.3357219746746295E-024
   9.0000000000000011E-003     4.0035987507497771E-024
   9.2999999999999992E-003    -3.5899826511323878E-023
   9.6000000000000009E-003     4.8762795970272846E-023
   9.8999999999999991E-003     3.8930762400293454E-023
   1.0200000000000001E-002    -2.2995134476005058E-022
   1.0500000000000002E-002     2.4849325291547591E-022
   1.0800000000000004E-002     3.6387832780048382E-022
   1.1099999999999999E-002    -1.4170917594706450E-021
   1.1400000000000000E-002     1.0960789001331788E-021
   1.1700000000000002E-002     2.8230537216507939E-021
   1.2000000000000004E-002    -8.0205692741862226E-021
   1.2300000000000002E-002     4.0217314139716115E-021
   1.2600000000000000E-002     1.8063419429884655E-020
   1.2900000000000002E-002    -4.0499925906586580E-020
   1.3200000000000000E-002     1.0973729217613354E-020
   1.3500000000000002E-002     9.7556433474089139E-020
   1.3800000000000003E-002    -1.8002878767997677E-019
   1.4100000000000001E-002     1.1843703812317959E-020
   1.4400000000000000E-002     4.5208489013803359E-019
   1.4700000000000001E-002    -7.0126926365502046E-019
   1.4999999999999999E-002    -8.8768812874185556E-020
   1.5300000000000001E-002     1.8166700455896936E-018
   1.5600000000000003E-002    -2.3979820626047782E-018
   1.5899999999999997E-002    -7.4124526200337852E-019
   1.6199999999999999E-002     6.3713531290545854E-018
   1.6500000000000001E-002    -7.2752091936434550E-018
   1.6800000000000002E-002    -3.3879501413774730E-018
   1.7100000000000004E-002     1.9663978229263244E-017
   1.7400000000000006E-002    -2.0164105659922306E-017
   1.7700000000000000E-002    -1.1145940794216932E-017
   1.8000000000000002E-002     5.4433510858070169E-017
   1.8300000000000004E-002    -5.4021828573490633E-017
   1.8600000000000005E-002    -2.7742006652470161E-017
   1.8900000000000000E-002     1.4118500049628652E-016
   1.9200000000000002E-002    -1.4886001980843680E-016
   1.9500000000000003E-002    -5.4872388238654525E-017
   1.9799999999999998E-002     3.6597638132327132E-016
   2.0100000000000000E-002    -4.2421266688072378E-016
   2.0400000000000001E-002    -1.0236223397132716E-016
   2.0700000000000003E-002     9.8416588128690087E-016
   2.0999999999999998E-002    -1.2210542487726886E-015
   2.1299999999999999E-002    -2.1211247018376861E-016
   2.1600000000000001E-002     2.8640084925992001E-015
   2.1900000000000003E-002    -3.7238601566278213E-015
   2.2200000000000004E-002    -1.3232572302307986E-015
   2.2500000000000006E-002     1.0207972876534047E-014
   2.2800000000000001E-002    -6.7466153420137860E-015
   2.3100000000000002E-002    -1.7800078382559780E-014
   2.3400000000000004E-002     1.2612862522934734E-014
   2.3699999999999999E-002     6.5443036510628546E-014
   2.4000000000000000E-002    -1.1556294198175645E-014
   2.4300000000000002E-002    -3.5205840564756513E-013
   2.4599999999999997E-002     1.3248026879870529E-013
   2.4900000000000005E-002     1.2834456381677111E-012
   2.5200000000000000E-002     1.1631673201638062E-014
   2.5499999999999995E-002    -4.5852897357454627E-012
   2.5800000000000003E-002    -7.8406163623036840E-012
   2.6099999999999998E-002     3.1311810162238169E-011
   2.6400000000000007E-002     5.0745424522803370E-011
   2.6700000000000002E-002    -2.2171281659910360E-010
   2.6999999999999996E-002    -1.1417005021710076E-010
   2.7300000000000005E-002     1.1185257773861732E-009
   2.7600000000000000E-002    -3.3578506178064612E-010
   2.7900000000000008E-002    -4.0273244671610946E-009
   2.8200000000000003E-002     3.9637779822820348E-009
   2.8499999999999998E-002     1.0675630974160847E-008
   2.8800000000000006E-002    -1.9670523361561296E-008
   2.9100000000000001E-002    -2.0788452465079112E-008
   2.9400000000000003E-002     7.2621199881100221E-008
   2.9700000000000004E-002     2.0171783148997645E-008
   3.0000000000000006E-002    -2.6007302507166750E-007
   3.0300000000000001E-002     3.4770357100442653E-008
   3.0600000000000002E-002     1.4592173150165510E-006
   3.0900000000000004E-002     3.3313457058977311E-006
   3.1199999999999999E-002     6.4727501567135246E-006
   3.1500000000000007E-002     1.3524574016565825E-005
   3.1800000000000002E-002     2.2644337474087841E-005
   3.2099999999999997E-002     2.9695221708187792E-005
   3.2400000000000005E-002     4.0575919918608015E-005
   3.2700000000000000E-002     6.6079331636724662E-005
   3.3000000000000002E-002     1.0610370526464138E-004
   3.3300000000000003E-002     1.5872335628970005E-004
   3.3599999999999998E-002     2.3419082572729208E-004
   3.3900000000000000E-002     3.4555004281975097E-004
   3.4200000000000001E-002     5.0318142302038598E-004
   3.4500000000000003E-002     7.2044820928444117E-004
   3.4799999999999998E-002     1.0154310142441638E-003
   3.5099999999999999E-002     1.4168609623856825E-003
   3.5400000000000001E-002     1.9571552932568098E-003
   3.5699999999999996E-002     2.6550672362392054E-003
   3.6000000000000004E-002     3.5296622472846054E-003
   3.6299999999999999E-002     4.6178437470870597E-003
   3.6600000000000008E-002     5.9580229660275968E-003
   3.6900000000000002E-002     7.5720082204636732E-003
   3.7199999999999997E-002     9.4581990338304459E-003
   3.7500000000000006E-002     1.1609791622780991E-002
   3.7800000000000000E-002     1.4022100499643697E-002
   3.8100000000000009E-002     1.6644492452217299E-002
   3.8400000000000004E-002     1.9377559037399811E-002
   3.8699999999999998E-002     2.2129466258482562E-002
   3.9000000000000007E-002     2.4792741356189262E-002
   3.9300000000000002E-002     2.7220553876783276E-002
   3.9600000000000003E-002     2.9274269006835170E-002
   3.9900000000000005E-002     3.0831419700613410E-002
   4.0200000000000000E-002     3.1780629098561587E-002
   4.0500000000000001E-002     3.2067528462710153E-002
   4.0800000000000003E-002     3.1688562020837370E-002
   4.1100000000000005E-002     3.0708832961188051E-002
   4.1399999999999999E-002     2.9273908882277242E-002
   4.1700000000000008E-002     2.7553540110172609E-002
   4.2000000000000003E-002     2.5722241610511534E-002
   4.2299999999999997E-002     2.3929509294740345E-002
   4.2600000000000006E-002     2.2201375507385716E-002
   4.2900000000000001E-002     2.0366707872211020E-002
   4.3200000000000002E-002     1.7970773237389454E-002
   4.3500000000000004E-002     1.4219555773013117E-002
   4.3799999999999999E-002     7.9273058112774211E-003
   4.4100000000000000E-002    -2.5074484634430593E-003
   4.4400000000000002E-002    -1.9064864882691674E-002
   4.4700000000000004E-002    -4.3913421683748476E-002
   4.4999999999999998E-002    -7.9289250237889894E-002
   4.5300000000000000E-002   -0.12722834093305055     
   4.5600000000000002E-002   -0.18925631566951095     
   4.5899999999999996E-002   -0.26602875105481660     
   4.6200000000000005E-002   -0.35712115773964670     
   4.6500000000000000E-002   -0.46064509669203446     
   4.6799999999999994E-002   -0.57312153423558554     
   4.7100000000000003E-002   -0.68944172649000390     
   4.7399999999999998E-002   -0.80300478691238053     
   4.7700000000000006E-002   -0.90600232826777394     
   4.8000000000000001E-002   -0.98988835584464319     
   4.8300000000000010E-002    -1.0460088117131889     
   4.8600000000000004E-002    -1.0663702362362995     
   4.8899999999999999E-002    -1.0443158039109968     
   4.9200000000000008E-002   -0.97538148452121809     
   4.9500000000000002E-002   -0.85771995131611822     
   4.9800000000000011E-002   -0.69275116577385132     
   5.0100000000000006E-002   -0.48498043428706900     
   5.0400000000000000E-002   -0.24232195725051273     
   5.0700000000000009E-002     2.4980406363030155E-002
   5.1000000000000004E-002    0.30423315092104741     
   5.1299999999999998E-002    0.58215020391313665     
   5.1600000000000007E-002    0.84508995102505413     
   5.1900000000000002E-002     1.0806829684063097     
   5.2200000000000010E-002     1.2784738266533344     
   5.2500000000000005E-002     1.4310971204212910     
   5.2800000000000000E-002     1.5342020683431912     
   5.3099999999999994E-002     1.5873615436229491     
   5.3400000000000003E-002     1.5933320226337895     
   5.3699999999999998E-002     1.5579259118605304     
   5.4000000000000006E-002     1.4891738641265482     
   5.4300000000000001E-002     1.3965128442719137     
   5.4599999999999996E-002     1.2895974931745859     
   5.4900000000000004E-002     1.1779248571029044     
   5.5199999999999999E-002     1.0692825210026333     
   5.5499999999999994E-002    0.97009228915762824     
   5.5800000000000002E-002    0.88429897550030934     
   5.6099999999999997E-002    0.81397157637905215     
   5.6400000000000006E-002    0.75881761167851280     
   5.6700000000000000E-002    0.71715456148706247     
   5.6999999999999995E-002    0.68582785000154789     
   5.7300000000000004E-002    0.66080122959142940     
   5.7599999999999998E-002    0.63761436559635687     
   5.7900000000000007E-002    0.61166875988831515     
   5.8200000000000002E-002    0.57822816796602672     
   5.8499999999999996E-002    0.53310232393466794     
   5.8800000000000005E-002    0.47213934725292978     
   5.9100000000000000E-002    0.39186282707935088     
   5.9400000000000008E-002    0.28921501547314538     
   5.9700000000000003E-002    0.16218357042236761     
   6.0000000000000012E-002     9.7078515581397601E-003
   6.0300000000000006E-002   -0.16770353275275338     
   6.0600000000000001E-002   -0.36805749450003433     
   6.0900000000000010E-002   -0.58710599025483556     
   6.1200000000000004E-002   -0.81852143581128056     
   6.1500000000000013E-002    -1.0540686748742718     
   6.1800000000000008E-002    -1.2835945929304109     
   6.2100000000000002E-002    -1.4958009511091250     
   6.2399999999999997E-002    -1.6790569761764007     
   6.2700000000000006E-002    -1.8219170269220992     
   6.3000000000000000E-002    -1.9145131971073699     
   6.3300000000000009E-002    -1.9491222745887082     
   6.3600000000000004E-002    -1.9217866303833564     
   6.3899999999999998E-002    -1.8315736900801769     
   6.4199999999999993E-002    -1.6825315627323443     
   6.4500000000000002E-002    -1.4823586647828797     
   6.4800000000000010E-002    -1.2426863654894427     
   6.5100000000000005E-002   -0.97851870337055991     
   6.5400000000000000E-002   -0.70663361060799579     
   6.5700000000000008E-002   -0.44510133760719994     
   6.5999999999999989E-002   -0.21146464856740207     
   6.6299999999999998E-002    -2.1663706494570951E-002
   6.6600000000000006E-002    0.11111415855291218     
   6.6900000000000001E-002    0.17780048368227669     
   6.7199999999999996E-002    0.17379690082098412     
   6.7500000000000004E-002     9.9874284200159744E-002
   6.7800000000000013E-002    -3.8374759524998407E-002
   6.8099999999999994E-002   -0.22994562622770981     
   6.8400000000000002E-002   -0.45998264088831570     
   6.8700000000000011E-002   -0.71025041102912234     
   6.8999999999999992E-002   -0.96030291959272440     
   6.9300000000000000E-002    -1.1893872899645639     
   6.9600000000000009E-002    -1.3772260818082034     
   6.9900000000000004E-002    -1.5059353985005344     
   7.0199999999999999E-002    -1.5614337620876362     
   7.0500000000000007E-002    -1.5335775348168970     
   7.0800000000000016E-002    -1.4182027362578264     
   7.1099999999999997E-002    -1.2161500300666559     
   7.1400000000000005E-002   -0.93428187761718884     
   7.1700000000000000E-002   -0.58455216895251594     
   7.1999999999999995E-002   -0.18302684393290461     
   7.2300000000000003E-002    0.25059170791485114     
   7.2600000000000012E-002    0.69470116934420711     
   7.2900000000000006E-002     1.1266451744265025     
   7.3200000000000001E-002     1.5250459515253516     
   7.3499999999999996E-002     1.8696968109462160     
   7.3800000000000004E-002     2.1442853922324367     
   7.4099999999999999E-002     2.3362354730926245     
   7.4400000000000008E-002     2.4374157878478160     
   7.4700000000000003E-002     2.4456946360010838     
   7.5000000000000011E-002     2.3634790912893058     
   7.5299999999999992E-002     2.1990823325558320     
   7.5600000000000001E-002     1.9650482761003825     
   7.5900000000000009E-002     1.6783142967146876     
   7.6200000000000004E-002     1.3588510493979435     
   7.6499999999999999E-002     1.0290374552626786     
   7.6800000000000007E-002    0.71194671039102730     
   7.7099999999999988E-002    0.43029772078276046     
   7.7399999999999997E-002    0.20526551315938024     
   7.7700000000000005E-002     5.4392289282910962E-002
   7.8000000000000014E-002    -8.6519999701322667E-003
   7.8299999999999995E-002     2.3735752410982604E-002
   7.8600000000000003E-002    0.15256604824322278     
   7.8900000000000012E-002    0.37238238631647008     
   7.9199999999999993E-002    0.66897497472916911     
   7.9500000000000001E-002     1.0225827434801280     
   7.9800000000000010E-002     1.4057906557802271     
   8.0100000000000018E-002     1.7866556294027205     
   8.0399999999999999E-002     2.1298403359662874     
   8.0700000000000008E-002     2.3991510475117774     
   8.1000000000000003E-002     2.5598969075908462     
   8.1299999999999997E-002     2.5817289003603703     
   8.1600000000000006E-002     2.4415533256457542     
   8.1900000000000014E-002     2.1257505221299824     
   8.2199999999999995E-002     1.6321629207983048     
   8.2500000000000004E-002    0.97143853348614684     
   8.2799999999999999E-002    0.16688802083949364     
   8.3100000000000007E-002   -0.74491872428203376     
   8.3400000000000002E-002    -1.7182083756503921     
   8.3700000000000011E-002    -2.6974865661124352     
   8.4000000000000005E-002    -3.6239375194861947     
   8.4300000000000000E-002    -4.4377502407936840     
   8.4599999999999995E-002    -5.0823000801059068     
   8.4900000000000003E-002    -5.5090087759866657     
   8.5199999999999998E-002    -5.6805442710865846     
   8.5500000000000007E-002    -5.5737613669266892     
   8.5800000000000001E-002    -5.1822766445318740     
   8.6100000000000010E-002    -4.5159334528063102     
   8.6399999999999991E-002    -3.6028127314321514     
   8.6699999999999999E-002    -2.4849626949611778     
   8.7000000000000008E-002    -1.2179835083382067     
   8.7300000000000003E-002    0.13368706821567547     
   8.7599999999999997E-002     1.5002105573675140     
   8.7900000000000006E-002     2.8111795256187442     
   8.8200000000000014E-002     3.9996567813500654     
   8.8499999999999995E-002     5.0064299990587093     
   8.8800000000000004E-002     5.7826913202656742     
   8.9100000000000013E-002     6.2947333655194599     
   8.9399999999999993E-002     6.5221169867194160     
   8.9700000000000002E-002     6.4620560242824094     
   9.0000000000000011E-002     6.1256374178173676     
   9.0299999999999991E-002     5.5388645270233692     
   9.0600000000000000E-002     4.7376532018008808     
   9.0900000000000009E-002     3.7680709166768422     
   9.1200000000000017E-002     2.6801142842071086     
   9.1499999999999998E-002     1.5259347442907143     
   9.1800000000000007E-002    0.35639532280398822     
   9.2100000000000001E-002   -0.78149457296637515     
   9.2399999999999996E-002    -1.8476283494743191     
   9.2700000000000005E-002    -2.8084341082738424     
   9.3000000000000013E-002    -3.6396554414515161     
   9.3300000000000008E-002    -4.3240145117429050     
   9.3600000000000003E-002    -4.8538959911608597     
   9.3899999999999997E-002    -5.2259672637320396     
   9.4200000000000006E-002    -5.4451573945662508     
   9.4500000000000001E-002    -5.5192102178926961     
   9.4800000000000009E-002    -5.4603866467541051     
   9.5100000000000004E-002    -5.2828196567046017     
   9.5399999999999999E-002    -5.0029272271696819     
   9.5699999999999993E-002    -4.6378845550491921     
   9.6000000000000002E-002    -4.2061929216726357     
   9.6300000000000011E-002    -3.7259759533266523     
   9.6600000000000005E-002    -3.2156254975632006     
   9.6900000000000000E-002    -2.6924245171126331     
   9.7200000000000009E-002    -2.1732270600015053     
   9.7499999999999989E-002    -1.6722491916672757     
   9.7799999999999998E-002    -1.2027907354981324     
   9.8100000000000007E-002   -0.77413362492985016     
   9.8400000000000015E-002   -0.39433348784707190     
   9.8699999999999996E-002    -6.7170041273935249E-002
   9.9000000000000005E-002    0.20574072074472599     
   9.9300000000000013E-002    0.42584155081786129     
   9.9599999999999994E-002    0.59735689077878706     
   9.9900000000000003E-002    0.72560366851281133     
  0.10020000000000001         0.81880899430800858     
  0.10049999999999999         0.88567222553300207     
  0.10080000000000000         0.93618375683002797     
  0.10110000000000001         0.98028588148432361     
  0.10140000000000000          1.0290862831543608     
  0.10170000000000000          1.0919045654742261     
  0.10200000000000001          1.1781609449229240     
  0.10230000000000002          1.2948650469584484     
  0.10260000000000000          1.4477571569689072     
  0.10290000000000001          1.6380549974896144     
  0.10320000000000000          1.8655894109331270     
  0.10350000000000001          2.1241733156090645     
  0.10380000000000000          2.4051748862170941     
  0.10410000000000001          2.6945592551101503     
  0.10440000000000001          2.9764365394548484     
  0.10470000000000000          3.2303170460294925     
  0.10500000000000000          3.4377178518068767     
  0.10530000000000000          3.5772072716415990     
  0.10560000000000000          3.6327392587784320     
  0.10590000000000001          3.5895700078472248     
  0.10620000000000000          3.4401976785426691     
  0.10650000000000001          3.1818830792869339     
  0.10679999999999999          2.8206884795880263     
  0.10710000000000000          2.3668851896032406     
  0.10740000000000001          1.8400223408419119     
  0.10770000000000000          1.2622266072220738     
  0.10800000000000000         0.66068754150433295     
  0.10830000000000001          6.3525988565814831E-002
  0.10859999999999999        -0.50016803455840886     
  0.10890000000000000         -1.0051863831124412     
  0.10920000000000001         -1.4273989806193013     
  0.10950000000000001         -1.7505702375308658     
  0.10979999999999999         -1.9624596241715300     
  0.11009999999999999         -2.0604626559980819     
  0.11040000000000001         -2.0474388053707777     
  0.11070000000000001         -1.9368069849976903     
  0.11100000000000000         -1.7475716580962011     
  0.11130000000000000         -1.5083295835355222     
  0.11160000000000002         -1.2508621957558348     
  0.11190000000000001         -1.0122689759295689     
  0.11220000000000001        -0.82856620964443750     
  0.11250000000000000        -0.73412235347472499     
  0.11280000000000000        -0.75352158245143375     
  0.11309999999999999        -0.90121248114718489     
  0.11340000000000001         -1.1741128942093217     
  0.11369999999999998         -1.5509464677541929     
  0.11400000000000000         -1.9897633931696184     
  0.11430000000000000         -2.4300110726750725     
  0.11460000000000002         -2.7956100166899507     
  0.11489999999999999         -3.0026122066275649     
  0.11520000000000001         -2.9661987988009684     
  0.11550000000000001         -2.6153479945084026     
  0.11580000000000000         -1.8991955699690057     
  0.11609999999999999        -0.80246389819617570     
  0.11640000000000002         0.65029253210548632     
  0.11670000000000001          2.3881050933136518     
  0.11700000000000001          4.2955102887685479     
  0.11730000000000000          6.2182470028905499     
  0.11760000000000000          7.9744526374212601     
  0.11789999999999999          9.3718778874630040     
  0.11820000000000001          10.226519868975894     
  0.11850000000000001          10.382391311200564     
  0.11880000000000000          9.7325137907298913     
  0.11910000000000000          8.2335933492003512     
  0.11940000000000002          5.9159267858725633     
  0.11970000000000001          2.8886704710916993     
  0.12000000000000001        -0.66753215319435466     
  0.12030000000000000         -4.5096730633283091     
  0.12060000000000000         -8.3540373605056377     
  0.12089999999999999         -11.897430630644692     
  0.12119999999999999         -14.846509319142568     
  0.12150000000000001         -16.940592262508876     
  0.12180000000000001         -17.979420242965258     
  0.12210000000000000         -17.837616551831999     
  0.12239999999999999         -16.479427934884715     
  0.12270000000000002         -13.959663961165854     
  0.12300000000000001         -10.421738177043379     
  0.12330000000000001         -6.0820879270596588     
  0.12360000000000000         -1.2160862011549756     
  0.12390000000000000          3.8688045381276708     
  0.12419999999999999          8.8522386404413957     
  0.12450000000000001          13.430255058330642     
  0.12480000000000001          17.330320604417899     
  0.12509999999999999          20.334425323867485     
  0.12540000000000001          22.284399464801201     
  0.12570000000000003          23.094046125650365     
  0.12600000000000000          22.743816889173587     
  0.12630000000000002          21.282211817804566     
  0.12659999999999999          18.811682238019550     
  0.12690000000000001          15.483485668671770     
  0.12719999999999998          11.480718998809420     
  0.12750000000000000          7.0094993863784048     
  0.12780000000000002          2.2820849354901589     
  0.12809999999999999         -2.4866057358535785     
  0.12840000000000001         -7.0992364276522313     
  0.12869999999999998         -11.371998808863539     
  0.12900000000000000         -15.153102020493892     
  0.12930000000000003         -18.314293075073781     
  0.12959999999999999         -20.768656002037069     
  0.12990000000000002         -22.455599100843916     
  0.13019999999999998         -23.355835261540506     
  0.13050000000000000         -23.477876979984828     
  0.13080000000000003         -22.862854322791367     
  0.13109999999999999         -21.574091264692921     
  0.13140000000000002         -19.697872445149240     
  0.13169999999999998         -17.332330953087990     
  0.13200000000000001         -14.584604471041880     
  0.13229999999999997         -11.564013642222790     
  0.13260000000000000         -8.3778382472071531     
  0.13290000000000002         -5.1230245273018298     
  0.13319999999999999         -1.8920966570166549     
  0.13350000000000001          1.2434759372583997     
  0.13380000000000003          4.2156448945829501     
  0.13410000000000000          6.9782472525115384     
  0.13440000000000002          9.4901867994125020     
  0.13469999999999999          11.723751190864407     
  0.13500000000000001          13.658338677745997     
  0.13529999999999998          15.279532566504308     
  0.13560000000000000          16.574556483158801     
  0.13590000000000002          17.536550649823660     
  0.13619999999999999          18.156572462951896     
  0.13650000000000001          18.429945105370887     
  0.13680000000000003          18.350610837755628     
  0.13710000000000000          17.919994450841120     
  0.13740000000000002          17.137384503066261     
  0.13769999999999999          16.015052876325154     
  0.13800000000000001          14.568277432177545     
  0.13829999999999998          12.824402874600432     
  0.13860000000000000          10.820725498100453     
  0.13890000000000002          8.6054821490808937     
  0.13919999999999999          6.2367644680132743     
  0.13950000000000001          3.7809818039754730     
  0.13979999999999998          1.3105684629855903     
  0.14010000000000000         -1.0994095837611393     
  0.14040000000000002         -3.3782301143495808     
  0.14069999999999999         -5.4561515205415869     
  0.14100000000000001         -7.2802725345839390     
  0.14130000000000004         -8.8040915183452295     
  0.14160000000000000         -10.002677994594304     
  0.14189999999999997         -10.865603533741416     
  0.14219999999999999         -11.399380777202415     
  0.14250000000000002         -11.628521062206650     
  0.14279999999999998         -11.588959790259572     
  0.14310000000000000         -11.327231499999508     
  0.14339999999999997         -10.896281328709890     
  0.14369999999999999         -10.350245553158249     
  0.14400000000000002         -9.7396698663980832     
  0.14429999999999998         -9.1084271024110866     
  0.14460000000000001         -8.4919472163187422     
  0.14490000000000003         -7.9117899241118552     
  0.14520000000000000         -7.3766141122959858     
  0.14550000000000002         -6.8842959485379929     
  0.14579999999999999         -6.4186630239860678     
  0.14610000000000001         -5.9558420097660258     
  0.14640000000000003         -5.4660973405584166     
  0.14670000000000000         -4.9168410112419032     
  0.14699999999999996         -4.2766208425938599     
  0.14729999999999999         -3.5208444350727066     
  0.14760000000000001         -2.6312718129957937     
  0.14789999999999998         -1.6029437510257047     
  0.14820000000000000        -0.44152122955757567     