  -1.4999999999999999E-002     0.0000000000000000     
  -1.4700000000000000E-002     0.0000000000000000     
  -1.4400000000000000E-002     0.0000000000000000     
  -1.4100000000000000E-002     0.0000000000000000     
  -1.3800000000000000E-002     0.0000000000000000     
  -1.3500000000000000E-002     0.0000000000000000     
  -1.3200000000000000E-002     0.0000000000000000     
  -1.2899999999999998E-002     0.0000000000000000     
  -1.2600000000000000E-002     0.0000000000000000     
  -1.2299999999999998E-002     0.0000000000000000     
  -1.2000000000000000E-002     0.0000000000000000     
  -1.1699999999999999E-002     0.0000000000000000     
  -1.1399999999999999E-002     0.0000000000000000     
  -1.1099999999999999E-002     0.0000000000000000     
  -1.0799999999999999E-002     0.0000000000000000     
  -1.0499999999999999E-002     0.0000000000000000     
  -1.0199999999999999E-002     0.0000000000000000     
  -9.8999999999999991E-003     0.0000000000000000     
  -9.5999999999999992E-003     0.0000000000000000     
  -9.2999999999999992E-003     0.0000000000000000     
  -8.9999999999999993E-003     0.0000000000000000     
  -8.6999999999999994E-003     0.0000000000000000     
  -8.3999999999999995E-003     0.0000000000000000     
  -8.0999999999999996E-003     0.0000000000000000     
  -7.7999999999999988E-003     0.0000000000000000     
  -7.4999999999999997E-003     0.0000000000000000     
  -7.1999999999999998E-003     0.0000000000000000     
  -6.8999999999999981E-003     0.0000000000000000     
  -6.5999999999999982E-003     0.0000000000000000     
  -6.3000000000000000E-003     0.0000000000000000     
  -6.0000000000000001E-003     0.0000000000000000     
  -5.6999999999999985E-003     0.0000000000000000     
  -5.3999999999999986E-003     0.0000000000000000     
  -5.1000000000000004E-003     0.0000000000000000     
  -4.7999999999999987E-003     0.0000000000000000     
  -4.5000000000000005E-003     0.0000000000000000     
  -4.1999999999999989E-003     0.0000000000000000     
  -3.8999999999999990E-003     0.0000000000000000     
  -3.5999999999999990E-003     0.0000000000000000     
  -3.2999999999999991E-003     0.0000000000000000     
  -2.9999999999999992E-003     0.0000000000000000     
  -2.6999999999999993E-003     0.0000000000000000     
  -2.3999999999999994E-003     0.0000000000000000     
  -2.0999999999999977E-003     0.0000000000000000     
  -1.7999999999999995E-003     0.0000000000000000     
  -1.4999999999999979E-003     0.0000000000000000     
  -1.1999999999999997E-003     0.0000000000000000     
  -8.9999999999999976E-004     0.0000000000000000     
  -5.9999999999999810E-004     0.0000000000000000     
  -2.9999999999999992E-004     0.0000000000000000     
   0.0000000000000000          0.0000000000000000     
   3.0000000000000165E-004     0.0000000000000000     
   5.9999999999999984E-004     0.0000000000000000     
   9.0000000000000149E-004     0.0000000000000000     
   1.2000000000000031E-003     0.0000000000000000     
   1.5000000000000013E-003    -4.6303270945580178E-036
   1.8000000000000030E-003     3.6988632532930374E-035
   2.1000000000000012E-003    -7.3367552110170353E-035
   2.3999999999999994E-003    -7.4332847647068856E-035
   2.7000000000000010E-003     4.4506629657861926E-035
   2.9999999999999992E-003    -5.1795755033374696E-034
   3.3000000000000008E-003     2.1066461665994570E-033
   3.6000000000000025E-003     5.7614462091998297E-034
   3.9000000000000007E-003    -1.5678731499315097E-032
   4.2000000000000023E-003     4.1870523353101680E-032
   4.5000000000000005E-003    -3.0992564393428137E-032
   4.7999999999999987E-003    -1.1448750776301227E-031
   5.1000000000000004E-003     4.2158717644478331E-031
   5.4000000000000020E-003    -5.0087532192477588E-031
   5.7000000000000037E-003    -8.5184176887886282E-031
   5.9999999999999984E-003     4.6107265946919815E-030
   6.3000000000000000E-003    -6.6762007936995480E-030
   6.6000000000000017E-003    -7.0471068192436673E-030
   6.9000000000000034E-003     4.7106076541905159E-029
   7.2000000000000015E-003    -7.0063135197346316E-029
   7.5000000000000032E-003    -6.1428046180508665E-029
   7.8000000000000014E-003     4.3123165486571811E-028
   8.0999999999999996E-003    -6.1089078784823921E-028
   8.4000000000000012E-003    -5.6796559040499586E-028
   8.7000000000000029E-003     3.5446575533977434E-027
   9.0000000000000011E-003    -4.5006600292933894E-027
   9.2999999999999992E-003    -5.1962647572550467E-027
   9.6000000000000009E-003     2.6429589499534832E-026
   9.8999999999999991E-003    -2.8158586045195358E-026
   1.0200000000000001E-002    -4.6897402619180315E-026
   1.0500000000000002E-002     1.8210277461281209E-025
   1.0800000000000004E-002    -1.4144636431270839E-025
   1.1099999999999999E-002    -4.0355833687078180E-025
   1.1400000000000000E-002     1.1511060463750687E-024
   1.1700000000000002E-002    -4.7865283729884788E-025
   1.2000000000000004E-002    -3.1242382062798363E-024
   1.2300000000000002E-002     6.5293295981783228E-024
   1.2600000000000000E-002     1.7871247382106030E-026
   1.2900000000000002E-002    -2.1037794740633426E-023
   1.3200000000000000E-002     3.2283678358184041E-023
   1.3500000000000002E-002     1.5863462143264272E-023
   1.3800000000000003E-002    -1.2170400134220348E-022
   1.4100000000000001E-002     1.3521219812801047E-022
   1.4400000000000000E-002     1.5167746962996520E-022
   1.4700000000000001E-002    -6.0440747937274164E-022
   1.4999999999999999E-002     4.5853144273017052E-022
   1.5300000000000001E-002     9.6770587399058489E-022
   1.5600000000000003E-002    -2.5725859389667124E-021
   1.5899999999999997E-002     1.1261793019184310E-021
   1.6199999999999999E-002     4.8471478836585146E-021
   1.6500000000000001E-002    -9.3341342586156033E-021
   1.6800000000000002E-002     1.1212926408827465E-021
   1.7100000000000004E-002     1.9917712464433609E-020
   1.7400000000000006E-002    -2.8580251565074721E-020
   1.7700000000000000E-002    -6.1518840375689586E-021
   1.8000000000000002E-002     6.7857675975243282E-020
   1.8300000000000004E-002    -7.3229172644875025E-020
   1.8600000000000005E-002    -4.1909850719666022E-020
   1.8900000000000000E-002     1.9148649748730061E-019
   1.9200000000000002E-002    -1.6064879812199939E-019
   1.9500000000000003E-002    -1.3937907068469035E-019
   1.9799999999999998E-002     4.5113550394405324E-019
   2.0100000000000000E-002    -3.5201577662478100E-019
   2.0400000000000001E-002    -2.6378382942847667E-019
   2.0700000000000003E-002     9.6192976727332900E-019
   2.0999999999999998E-002    -1.0317451139709353E-018
   2.1299999999999999E-002    -1.1714600808479113E-019
   2.1600000000000001E-002     2.3873158223238548E-018
   2.1900000000000003E-002    -3.8188324689748228E-018
   2.2200000000000004E-002     4.4350049906274623E-019
   2.2500000000000006E-002     8.8878956098635599E-018
   2.2800000000000001E-002    -1.3719814441679940E-017
   2.3100000000000002E-002    -7.0540868674883564E-018
   2.3400000000000004E-002     5.5047496928087014E-017
   2.3699999999999999E-002    -5.6704953145449861E-017
   2.4000000000000000E-002    -1.4176099939484972E-016
   2.4300000000000002E-002     5.4876193499207729E-016
   2.4599999999999997E-002    -4.3942423478474577E-016
   2.4900000000000005E-002    -1.9625308510743369E-015
   2.5200000000000000E-002     6.6687637210170816E-015
   2.5499999999999995E-002    -2.6639178550014697E-015
   2.5800000000000003E-002    -3.2778819190434870E-014
   2.6099999999999998E-002     7.0540790814577371E-014
   2.6400000000000007E-002     7.8473257003482366E-014
   2.6700000000000002E-002    -5.0320607586564046E-013
   2.6999999999999996E-002     1.9765530612929919E-013
   2.7300000000000005E-002     2.5177459818960981E-012
   2.7600000000000000E-002    -3.9609571496278625E-012
   2.7900000000000008E-002    -8.4053227566687022E-012
   2.8200000000000003E-002     2.8404675807185293E-011
   2.8499999999999998E-002     8.6598272077117251E-012
   2.8800000000000006E-002    -1.3136524971737978E-010
   2.9100000000000001E-002     9.1427287714717827E-011
   2.9400000000000003E-002     4.1498536969442452E-010
   2.9700000000000004E-002    -6.8468920747829703E-010
   3.0000000000000006E-002    -8.1121028660197243E-010
   3.0300000000000001E-002     2.7507797351568442E-009
   3.0600000000000002E-002     2.1865845398497509E-010
   3.0900000000000004E-002    -7.3999361142397095E-009
   3.1199999999999999E-002     5.3163781510925824E-009
   3.1500000000000007E-002     1.1773760305982521E-008
   3.1800000000000002E-002    -2.4432737850441666E-008
   3.2099999999999997E-002     4.4913946523207317E-009
   3.2400000000000005E-002     6.7903356067615044E-008
   3.2700000000000000E-002    -1.2159427341989923E-007
   3.3000000000000002E-002    -1.7551212152720713E-007
   3.3300000000000003E-002     7.7108270157888608E-007
   3.3599999999999998E-002     2.7510066519817964E-006
   3.3900000000000000E-002     7.4491595565345439E-006
   3.4200000000000001E-002     1.9241418154038668E-005
   3.4500000000000003E-002     3.6734675727723861E-005
   3.4799999999999998E-002     5.3028127577223262E-005
   3.5099999999999999E-002     7.4247376050604700E-005
   3.5400000000000001E-002     1.1806868461160366E-004
   3.5699999999999996E-002     1.8720748845884008E-004
   3.6000000000000004E-002     2.7632843537622200E-004
   3.6299999999999999E-002     4.0344208806094960E-004
   3.6600000000000008E-002     5.9804790054079752E-004
   3.6900000000000002E-002     8.7588208071697404E-004
   3.7199999999999997E-002     1.2588647300271155E-003
   3.7500000000000006E-002     1.7913061380450633E-003
   3.7800000000000000E-002     2.5168970904120326E-003
   3.8100000000000009E-002     3.4724472961900339E-003
   3.8400000000000004E-002     4.7084594671407990E-003
   3.8699999999999998E-002     6.2845482575927449E-003
   3.9000000000000007E-002     8.2406995353575610E-003
   3.9300000000000002E-002     1.0589008852899467E-002
   3.9600000000000003E-002     1.3322017713830885E-002
   3.9900000000000005E-002     1.6400409404316453E-002
   4.0200000000000000E-002     1.9721554041726652E-002
   4.0500000000000001E-002     2.3097764058045724E-002
   4.0800000000000003E-002     2.6242095250957526E-002
   4.1100000000000005E-002     2.8753708255037674E-002
   4.1399999999999999E-002     3.0120235969769017E-002
   4.1700000000000008E-002     2.9716999385850998E-002
   4.2000000000000003E-002     2.6806579170949064E-002
   4.2299999999999997E-002     2.0593771151655026E-002
   4.2600000000000006E-002     1.0306868423863405E-002
   4.2900000000000001E-002    -4.7282770825780871E-003
   4.3200000000000002E-002    -2.4976752019340839E-002
   4.3500000000000004E-002    -5.0577739748730255E-002
   4.3799999999999999E-002    -8.1213002700666989E-002
   4.4100000000000000E-002   -0.11594050066691300     
   4.4400000000000002E-002   -0.15311345048589564     
   4.4700000000000004E-002   -0.19035979597998137     
   4.4999999999999998E-002   -0.22456214725491172     
   4.5300000000000000E-002   -0.25191434550582859     
   4.5600000000000002E-002   -0.26815404779578400     
   4.5899999999999996E-002   -0.26890131122372829     
   4.6200000000000005E-002   -0.25000473199144424     
   4.6500000000000000E-002   -0.20798332442308359     
   4.6799999999999994E-002   -0.14050833509858460     
   4.7100000000000003E-002    -4.6881495624595017E-002
   4.7399999999999998E-002     7.1527360107239452E-002
   4.7700000000000006E-002    0.21110346379497807     
   4.8000000000000001E-002    0.36590912009678095     
   4.8300000000000010E-002    0.52781485172938480     
   4.8600000000000004E-002    0.68692050625094958     
   4.8899999999999999E-002    0.83222661298933709     
   4.9200000000000008E-002    0.95245579462256336     
   4.9500000000000002E-002     1.0369877554113318     
   4.9800000000000011E-002     1.0768904415204086     
   5.0100000000000006E-002     1.0658118457085319     
   5.0400000000000000E-002     1.0007080780456012     
   5.0700000000000009E-002    0.88236943646950206     
   5.1000000000000004E-002    0.71542350628770746     
   5.1299999999999998E-002    0.50815008769251524     
   5.1600000000000007E-002    0.27182688581906145     
   5.1900000000000002E-002     1.9719238179282499E-002
   5.2200000000000010E-002   -0.23388647535920923     
   5.2500000000000005E-002   -0.47517843955618760     
   5.2800000000000000E-002   -0.69190929715938432     
   5.3099999999999994E-002   -0.87431232078422527     
   5.3400000000000003E-002    -1.0161603449890615     
   5.3699999999999998E-002    -1.1148584816460634     
   5.4000000000000006E-002    -1.1714122015521662     
   5.4300000000000001E-002    -1.1904900978215329     
   5.4599999999999996E-002    -1.1789563605345228     
   5.4900000000000004E-002    -1.1455028963875873     
   5.5199999999999999E-002    -1.0993398147992928     
   5.5499999999999994E-002    -1.0488739932458937     
   5.5800000000000002E-002    -1.0011043281294278     
   5.6099999999999997E-002   -0.96065256347981154     
   5.6400000000000006E-002   -0.92913613110085158     
   5.6700000000000000E-002   -0.90546456391678021     
   5.6999999999999995E-002   -0.88562754243402642     
   5.7300000000000004E-002   -0.86338970574266105     
   5.7599999999999998E-002   -0.83101955670023786     
   5.7900000000000007E-002   -0.78017214721209949     
   5.8200000000000002E-002   -0.70281300983896355     
   5.8499999999999996E-002   -0.59228889534624762     
   5.8800000000000005E-002   -0.44391592185926709     
   5.9100000000000000E-002   -0.25583946106099736     
   5.9400000000000008E-002    -2.9418014458330553E-002
   5.9700000000000003E-002    0.23091682021898827     
   6.0000000000000012E-002    0.51779346106323720     
   6.0300000000000006E-002    0.82088420415804042     
   6.0600000000000001E-002     1.1281925123460552     
   6.0900000000000010E-002     1.4263766610700341     
   6.1200000000000004E-002     1.7016137375957066     
   6.1500000000000013E-002     1.9408703520903794     
   6.1800000000000008E-002     2.1320979027894773     
   6.2100000000000002E-002     2.2652224897468014     
   6.2399999999999997E-002     2.3327366696051217     
   6.2700000000000006E-002     2.3295885912830334     
   6.3000000000000000E-002     2.2537462132862780     
   6.3300000000000009E-002     2.1062485636025232     
   6.3600000000000004E-002     1.8904466154269808     
   6.3899999999999998E-002     1.6125120718397199     
   6.4199999999999993E-002     1.2808834005105048     
   6.4500000000000002E-002    0.90555761161190051     
   6.4800000000000010E-002    0.49834399404278557     
   6.5100000000000005E-002     7.2090939659545120E-002
   6.5400000000000000E-002   -0.35985030500854204     
   6.5700000000000008E-002   -0.78374276244540553     
   6.5999999999999989E-002    -1.1863100197107734     
   6.6299999999999998E-002    -1.5549435191665939     
   6.6600000000000006E-002    -1.8781389687950230     
   6.6900000000000001E-002    -2.1463686853182544     
   6.7199999999999996E-002    -2.3516485076400513     
   6.7500000000000004E-002    -2.4884867023862052     
   6.7800000000000013E-002    -2.5535899935529667     
   6.8099999999999994E-002    -2.5455040280178314     
   6.8400000000000002E-002    -2.4653984871470653     
   6.8700000000000011E-002    -2.3159357911218734     
   6.8999999999999992E-002    -2.1011540353889773     
   6.9300000000000000E-002    -1.8269865044699460     
   6.9600000000000009E-002    -1.5004627316395420     
   6.9900000000000004E-002    -1.1294407547145651     
   7.0199999999999999E-002   -0.72335616750948706     
   7.0500000000000007E-002   -0.29288291008034545     
   7.0800000000000016E-002    0.15006968202575832     
   7.1099999999999997E-002    0.59215061569447258     
   7.1400000000000005E-002     1.0186984301380111     
   7.1700000000000000E-002     1.4142990963097444     
   7.1999999999999995E-002     1.7628243726952386     
   7.2300000000000003E-002     2.0488209210366510     
   7.2600000000000012E-002     2.2581650634523749     
   7.2900000000000006E-002     2.3786692003116250     
   7.3200000000000001E-002     2.4018883073095805     
   7.3499999999999996E-002     2.3237857195625704     
   7.3800000000000004E-002     2.1449396024937055     
   7.4099999999999999E-002     1.8719971848456929     
   7.4400000000000008E-002     1.5165755310056945     
   7.4700000000000003E-002     1.0954578782180173     
   7.5000000000000011E-002    0.63012037513034136     
   7.5299999999999992E-002    0.14455862954783888     
   7.5600000000000001E-002   -0.33513682669697870     
   7.5900000000000009E-002   -0.78241465862638837     
   7.6200000000000004E-002    -1.1726964441270751     
   7.6499999999999999E-002    -1.4835974810455133     
   7.6800000000000007E-002    -1.6972704702674148     
   7.7099999999999988E-002    -1.8010673064424199     
   7.7399999999999997E-002    -1.7882681623317522     
   7.7700000000000005E-002    -1.6591273113353513     
   7.8000000000000014E-002    -1.4201933963260680     
   7.8299999999999995E-002    -1.0845986316802356     
   7.8600000000000003E-002   -0.67163495410123697     
   7.8900000000000012E-002   -0.20551669026814864     
   7.9199999999999993E-002    0.28550779086642791     
   7.9500000000000001E-002    0.77096352940406143     
   7.9800000000000010E-002     1.2195453323675247     
   8.0100000000000018E-002     1.6012941178930993     
   8.0399999999999999E-002     1.8892940981457873     
   8.0700000000000008E-002     2.0617784918994277     
   8.1000000000000003E-002     2.1040303166082324     
   8.1299999999999997E-002     2.0092434372452495     
   8.1600000000000006E-002     1.7796932014817948     
   8.1900000000000014E-002     1.4275747190027535     
   8.2199999999999995E-002    0.97317931784415346     
   8.2500000000000004E-002    0.44496794672835838     
   8.2799999999999999E-002   -0.12252252709195337     
   8.3100000000000007E-002   -0.69208804738960716     
   8.3400000000000002E-002    -1.2251337435702032     
   8.3700000000000011E-002    -1.6857155124261924     
   8.4000000000000005E-002    -2.0437902886688821     
   8.4300000000000000E-002    -2.2759515676618216     
   8.4599999999999995E-002    -2.3689412498024960     
   8.4900000000000003E-002    -2.3200287267665369     
   8.5199999999999998E-002    -2.1364588240874154     
   8.5500000000000007E-002    -1.8358442364001966     
   8.5800000000000001E-002    -1.4432332189513672     
   8.6100000000000010E-002   -0.98944405482837194     
   8.6399999999999991E-002   -0.50873665798915813     
   8.6699999999999999E-002    -3.4464781449380824E-002
   8.7000000000000008E-002    0.40192934302189931     
   8.7300000000000003E-002    0.77377371799938688     
   8.7599999999999997E-002     1.0616202194800946     
   8.7900000000000006E-002     1.2528449117607650     
   8.8200000000000014E-002     1.3430175603427943     
   8.8499999999999995E-002     1.3351763326097954     
   8.8800000000000004E-002     1.2385033239357495     
   8.9100000000000013E-002     1.0676561502395332     
   8.9399999999999993E-002    0.84061848611141932     
   8.9700000000000002E-002    0.57742988941401119     
   9.0000000000000011E-002    0.29856559831099838     
   9.0299999999999991E-002     2.3511097311122262E-002
   9.0600000000000000E-002   -0.22993193048694965     
   9.0900000000000009E-002   -0.44683050619905595     
   9.1200000000000017E-002   -0.61605775019290954     
   9.1499999999999998E-002   -0.72985005318942564     
   9.1800000000000007E-002   -0.78472650346903960     
   9.2100000000000001E-002   -0.78085840470769485     
   9.2399999999999996E-002   -0.72277725911768975     
   9.2700000000000005E-002   -0.61824514081404713     
   9.3000000000000013E-002   -0.47844650339223505     
   9.3300000000000008E-002   -0.31739338511699844     
   9.3600000000000003E-002   -0.15075921434826964     
   9.3899999999999997E-002     4.9627118573521587E-003
   9.4200000000000006E-002    0.13279945453370387     
   9.4500000000000001E-002    0.21769453288036220     
   9.4800000000000009E-002    0.24638471317411448     
   9.5100000000000004E-002    0.20926569022046837     
   9.5399999999999999E-002    0.10175484260222835     
   9.5699999999999993E-002    -7.6187988571977075E-002
   9.6000000000000002E-002   -0.31843394134598296     
   9.6300000000000011E-002   -0.61297281447507546     
   9.6600000000000005E-002   -0.94260752856144703     
   9.6900000000000000E-002    -1.2851622657539987     
   9.7200000000000009E-002    -1.6148007376177256     
   9.7499999999999989E-002    -1.9035262262328911     
   9.7799999999999998E-002    -2.1234153863377432     
   9.8100000000000007E-002    -2.2474102133389522     
   9.8400000000000015E-002    -2.2522970825980080     
   9.8699999999999996E-002    -2.1206630933183654     
   9.9000000000000005E-002    -1.8418377029553183     
   9.9300000000000013E-002    -1.4137008932557016     
   9.9599999999999994E-002   -0.84337804136307681     
   9.9900000000000003E-002   -0.14712372099488111     
  0.10020000000000001         0.64913378021015666     
  0.10049999999999999          1.5125576979972970     
  0.10080000000000000          2.4040340649355381     
  0.10110000000000001          3.2810889697916159     
  0.10140000000000000          4.1002544152852183     
  0.10170000000000000          4.8201817068249744     
  0.10200000000000001          5.4048198100614382     
  0.10230000000000002          5.8251970539683944     
  0.10260000000000000          6.0621746259135554     
  0.10290000000000001          6.1074507908006987     
  0.10320000000000000          5.9632676373267968     
  0.10350000000000001          5.6432851187620319     
  0.10380000000000000          5.1700910104763915     
  0.10410000000000001          4.5728133867385692     
  0.10440000000000001          3.8863653091737551     
  0.10470000000000000          3.1468752976016372     
  0.10500000000000000          2.3884529440975406     
  0.10530000000000000          1.6429917388978215     
  0.10560000000000000         0.93601951641733283     
  0.10590000000000001         0.28558617204651143     
  0.10620000000000000        -0.29666050381675796     
  0.10650000000000001        -0.80652050005064102     
  0.10679999999999999         -1.2466600807296606     
  0.10710000000000000         -1.6234197199720306     
  0.10740000000000001         -1.9467117291947098     
  0.10770000000000000         -2.2269918356244367     
  0.10800000000000000         -2.4738492344001677     
  0.10830000000000001         -2.6953653611158055     
  0.10859999999999999         -2.8960696919141222     
  0.10890000000000000         -3.0774060898077140     
  0.10920000000000001         -3.2389718655250652     
  0.10950000000000001         -3.3776251394190195     
  0.10979999999999999         -3.4905158558187206     
  0.11009999999999999         -3.5755609515485656     
  0.11040000000000001         -3.6326207136232780     
  0.11070000000000001         -3.6648928119381625     
  0.11100000000000000         -3.6791724140574718     
  0.11130000000000000         -3.6843494339293312     
  0.11160000000000002         -3.6928686053027122     
  0.11190000000000001         -3.7162610427889420     
  0.11220000000000001         -3.7642928482381999     
  0.11250000000000000         -3.8446353772425588     
  0.11280000000000000         -3.9575415922910779     
  0.11309999999999999         -4.0969103622644489     
  0.11340000000000001         -4.2500051278342799     
  0.11369999999999998         -4.3951386212718111     
  0.11400000000000000         -4.5068086376797512     
  0.11430000000000000         -4.5563300845723909     
  0.11460000000000002         -4.5127252375011588     
  0.11489999999999999         -4.3513306476669671     
  0.11520000000000001         -4.0523961975275649     
  0.11550000000000001         -3.6050168605430559     
  0.11580000000000000         -3.0120386376283013     
  0.11609999999999999         -2.2859391661654618     
  0.11640000000000002         -1.4523285341683085     
  0.11670000000000001        -0.54656618255891154     
  0.11700000000000001         0.39005873804500274     
  0.11730000000000000          1.3118149828634358     
  0.11760000000000000          2.1730839595877187     
  0.11789999999999999          2.9350797333426386     
  0.11820000000000001          3.5638214601285330     
  0.11850000000000001          4.0375422382758428     
  0.11880000000000000          4.3456496071969886     
  0.11910000000000000          4.4892534064864895     
  0.11940000000000002          4.4819287112007737     
  0.11970000000000001          4.3449491347184441     
  0.12000000000000001          4.1089013959140548     
  0.12030000000000000          3.8090468854347095     
  0.12060000000000000          3.4807628677817317     
  0.12089999999999999          3.1614987009384441     
  0.12119999999999999          2.8840932060666611     
  0.12150000000000001          2.6760188787751717     
  0.12180000000000001          2.5599788889575819     
  0.12210000000000000          2.5485250214710784     
  0.12239999999999999          2.6457368568051516     
  0.12270000000000002          2.8447295813315123     
  0.12300000000000001          3.1266893482811349     
  0.12330000000000001          3.4627360381250627     
  0.12360000000000000          3.8103887069549938     
  0.12390000000000000          4.1183022457588967     
  0.12419999999999999          4.3276013331020868     
  0.12450000000000001          4.3753804204756683     
  0.12480000000000001          4.2017873849459653     
  0.12509999999999999          3.7558387984932016     
  0.12540000000000001          3.0040690371364169     
  0.12570000000000003          1.9387819484977162     
  0.12600000000000000         0.58207434490110821     
  0.12630000000000002         -1.0054796617534911     
  0.12659999999999999         -2.7269157732986775     
  0.12690000000000001         -4.4504627261990946     
  0.12719999999999998         -6.0187882219005413     
  0.12750000000000000         -7.2591961497798172     
  0.12780000000000002         -8.0016306459043420     
  0.12809999999999999         -8.0979984886114700     
  0.12840000000000001         -7.4385427326621452     
  0.12869999999999998         -5.9733571238914402     
  0.12900000000000000         -3.7233519239001374     
  0.12930000000000003        -0.78602811134810646     
  0.12959999999999999          2.6585578072128122     
  0.12990000000000002          6.3651240783654099     
  0.13019999999999998          10.034188064444757     
  0.13050000000000000          13.335935338102216     
  0.13080000000000003          15.946340270986123     
  0.13109999999999999          17.568690947908141     
  0.13140000000000002          17.969323813041964     
  0.13169999999999998          17.005695073067002     
  0.13200000000000001          14.635011457398832     
  0.13229999999999997          10.935307362201790     
  0.13260000000000000          6.0956453796521330     
  0.13290000000000002         0.40506052803399650     
  0.13319999999999999         -5.7652614807876077     
  0.13350000000000001         -11.996056277991933     
  0.13380000000000003         -17.854459381637433     
  0.13410000000000000         -22.922038565952601     
  0.13440000000000002         -26.838935321956832     
  0.13469999999999999         -29.324262050717799     
  0.13500000000000001         -30.198348422667038     
  0.13529999999999998         -29.398126047253065     
  0.13560000000000000         -26.973762007515479     
  0.13590000000000002         -23.081798126026911     
  0.13619999999999999         -17.973464637011329     
  0.13650000000000001         -11.966377997501141     
  0.13680000000000003         -5.4214848574555150     
  0.13710000000000000          1.2822545393233833     
  0.13740000000000002          7.7785700150388282     
  0.13769999999999999          13.735400879643832     
  0.13800000000000001          18.870486841656920     
  0.13829999999999998          22.969201592067236     
  0.13860000000000000          25.890029400583156     
  0.13890000000000002          27.560979304152045     
  0.13919999999999999          27.985330033942326     
  0.13950000000000001          27.226180495063360     
  0.13979999999999998          25.394612766109052     
  0.14010000000000000          22.646068124511018     
  0.14040000000000002          19.156423186514235     
  0.14069999999999999          15.114049607828589     
  0.14100000000000001          10.711217661021172     
  0.14130000000000004          6.1264351502648591     
  0.14160000000000000          1.5243031595278542     
  0.14189999999999997         -2.9499568440896087     
  0.14219999999999999         -7.1794236733670838     
  0.14250000000000002         -11.064636015364901     
  0.14279999999999998         -14.531167697274034     
  0.14310000000000000         -17.522861129531524     
  0.14339999999999997         -19.994838310337059     
  0.14369999999999999         -21.917249232164924     
  0.14400000000000002         -23.267514702505586     
  0.14429999999999998         -24.025022008316824     
  0.14460000000000001         -24.182853192206473     
  0.14490000000000003         -23.732993579528628     
  0.14520000000000000         -22.678351875509989     
  0.14550000000000002         -21.035712746709159     
  0.14579999999999999         -18.829019143349012     
  0.14610000000000001         -16.105353962632730     
  0.14640000000000003         -12.925092417325549     
  0.14670000000000000         -9.3660619621660430     
  0.14699999999999996         -5.5285991419899796     
  0.14729999999999999         -1.5204538970533383     
  0.14760000000000001          2.5373453522007270     
  0.14789999999999998          6.5169805043462707     
  0.14820000000000000          10.299308548905048     