  -1.4999999999999999E-002     0.0000000000000000     
  -1.4700000000000000E-002    -7.4500716822919135E-027
  -1.4400000000000000E-002    -1.2214451635450268E-021
  -1.4100000000000000E-002    -1.6707759558140520E-019
  -1.3800000000000000E-002     8.0208243659800319E-018
  -1.3500000000000000E-002     3.6036157738783054E-017
  -1.3200000000000000E-002    -7.4397882626476642E-016
  -1.2899999999999998E-002     5.6466469743382555E-016
  -1.2600000000000000E-002     8.9550529093384073E-015
  -1.2299999999999998E-002    -5.8355265189483800E-015
  -1.2000000000000000E-002    -4.6718789882813582E-014
  -1.1699999999999999E-002    -4.0537224901428168E-014
  -1.1399999999999999E-002     2.4778341185012269E-013
  -1.1099999999999999E-002     2.1334290761256725E-013
  -1.0799999999999999E-002    -1.5781356681237147E-013
  -1.0499999999999999E-002    -1.5647761003992238E-012
  -1.0199999999999999E-002    -1.4307070833517868E-012
  -9.8999999999999991E-003     3.9507792855969428E-012
  -9.5999999999999992E-003     8.9878056778053509E-012
  -9.2999999999999992E-003    -3.3594921870055995E-012
  -8.9999999999999993E-003    -2.0510370409648037E-011
  -8.6999999999999994E-003    -1.2879349596472098E-011
  -8.3999999999999995E-003    -1.0429694513915522E-011
  -8.0999999999999996E-003     8.5686848742373642E-011
  -7.7999999999999988E-003     1.1162533485520894E-010
  -7.4999999999999997E-003    -1.1563092707591979E-010
  -7.1999999999999998E-003    -2.8110066502431586E-010
  -6.8999999999999981E-003    -3.7966180515891834E-011
  -6.5999999999999982E-003     4.2453462848850587E-011
  -6.3000000000000000E-003     5.3683676032697087E-010
  -6.0000000000000001E-003     1.1199227949490824E-009
  -5.6999999999999985E-003    -8.1622617090751090E-010
  -5.3999999999999986E-003    -2.3727728695555927E-009
  -5.1000000000000004E-003    -3.7679042146812286E-010
  -4.7999999999999987E-003     6.1566873311330096E-010
  -4.5000000000000005E-003     2.4696557259455864E-009
  -4.1999999999999989E-003     5.6357792220523265E-009
  -3.8999999999999990E-003     1.4418913449072193E-010
  -3.5999999999999990E-003    -1.0638282057309144E-008
  -3.2999999999999991E-003    -1.0151835223633858E-008
  -2.9999999999999992E-003     4.7142097794287253E-009
  -2.6999999999999993E-003     1.0386403987308489E-008
  -2.3999999999999994E-003     9.9133971728173678E-009
  -2.0999999999999977E-003     2.3944538927353583E-008
  -1.7999999999999995E-003    -1.2392424442053392E-008
  -1.4999999999999979E-003    -7.4985889601003494E-008
  -1.1999999999999997E-003     1.2585736453480290E-008
  -8.9999999999999976E-004     4.6803033749459900E-008
  -5.9999999999999810E-004    -6.1913381894180825E-008
  -2.9999999999999992E-004     1.3298263905615358E-007
   0.0000000000000000          1.0497615088910141E-007
   3.0000000000000165E-004    -3.1911005784411015E-007
   5.9999999999999984E-004     4.3615026633856856E-008
   9.0000000000000149E-004     2.8645886103432266E-007
   1.2000000000000031E-003    -4.0685735907941694E-007
   1.5000000000000013E-003    -1.7838759750153082E-008
   1.8000000000000030E-003     5.8994940090812436E-007
   2.1000000000000012E-003    -3.4572546314683429E-007
   2.3999999999999994E-003    -1.7601593708874638E-007
   2.7000000000000010E-003     6.3049745457081234E-007
   2.9999999999999992E-003    -5.1830984528520426E-008
   3.3000000000000008E-003    -1.2033769731112154E-007
   3.6000000000000025E-003    -8.1064858986188333E-007
   3.9000000000000007E-003    -2.1135279803067949E-006
   4.2000000000000023E-003     8.0354308549989886E-007
   4.5000000000000005E-003     5.2876494166956568E-006
   4.7999999999999987E-003     7.7589128480415440E-006
   5.1000000000000004E-003     1.2821548800542270E-005
   5.4000000000000020E-003     2.3017491210824678E-005
   5.7000000000000037E-003     4.1738043768112336E-005
   5.9999999999999984E-003     7.2581305896135545E-005
   6.3000000000000000E-003     1.0549238014343162E-004
   6.6000000000000017E-003     1.3133247880732854E-004
   6.9000000000000034E-003     1.5037393575003080E-004
   7.2000000000000015E-003     1.6078745767537895E-004
   7.5000000000000032E-003     1.6666075896746140E-004
   7.8000000000000014E-003     1.7392240513762556E-004
   8.0999999999999996E-003     1.6764468801880517E-004
   8.4000000000000012E-003     1.1088266890882888E-004
   8.7000000000000029E-003    -5.7978635492862251E-005
   9.0000000000000011E-003    -4.4179026495298589E-004
   9.2999999999999992E-003    -1.2004462250624790E-003
   9.6000000000000009E-003    -2.5708281110801380E-003
   9.8999999999999991E-003    -4.8854030343660195E-003
   1.0200000000000001E-002    -8.6104669834169752E-003
   1.0500000000000002E-002    -1.4409234741067752E-002
   1.0800000000000004E-002    -2.3201181627315767E-002
   1.1099999999999999E-002    -3.6198655762027881E-002
   1.1400000000000000E-002    -5.4928196179620581E-002
   1.1700000000000002E-002    -8.1244151835262471E-002
   1.2000000000000004E-002   -0.11737275589474096     
   1.2300000000000002E-002   -0.16594313733251903     
   1.2600000000000000E-002   -0.22993098691946218     
   1.2900000000000002E-002   -0.31249114332409211     
   1.3200000000000000E-002   -0.41674065692932283     
   1.3500000000000002E-002   -0.54548496842928584     
   1.3800000000000003E-002   -0.70091066810022307     
   1.4100000000000001E-002   -0.88411555829603006     
   1.4400000000000000E-002    -1.0947063503339196     
   1.4700000000000001E-002    -1.3302334264596554     
   1.4999999999999999E-002    -1.5857335779491535     
   1.5300000000000001E-002    -1.8533227352327719     
   1.5600000000000003E-002    -2.1220070145754715     
   1.5899999999999997E-002    -2.3777669402403974     
   1.6199999999999999E-002    -2.6039017326782776     
   1.6500000000000001E-002    -2.7814767421340161     
   1.6800000000000002E-002    -2.8905240409361999     
   1.7100000000000004E-002    -2.9112133847410586     
   1.7400000000000006E-002    -2.8257032714218573     
   1.7700000000000000E-002    -2.6193974309663162     
   1.8000000000000002E-002    -2.2832486134792491     
   1.8300000000000004E-002    -1.8146781733829331     
   1.8600000000000005E-002    -1.2194139269457531     
   1.8900000000000000E-002   -0.51186176258726657     
   1.9200000000000002E-002    0.28571567977250245     
   1.9500000000000003E-002     1.1426501255084005     
   1.9799999999999998E-002     2.0229795871557559     
   2.0100000000000000E-002     2.8868324355192176     
   2.0400000000000001E-002     3.6937385533968454     
   2.0700000000000003E-002     4.4055914590099539     
   2.0999999999999998E-002     4.9894601334148252     
   2.1299999999999999E-002     5.4207115650726667     
   2.1600000000000001E-002     5.6842822282732328     
   2.1900000000000003E-002     5.7762691918113376     
   2.2200000000000004E-002     5.7039079462764111     
   2.2500000000000006E-002     5.4839600651573530     
   2.2800000000000001E-002     5.1420932992260244     
   2.3100000000000002E-002     4.7083344839936379     
   2.3400000000000004E-002     4.2159575049068820     
   2.3699999999999999E-002     3.6965873171607360     
   2.4000000000000000E-002     3.1788138101043404     
   2.4300000000000002E-002     2.6845203645701821     
   2.4599999999999997E-002     2.2287783051325132     
   2.4900000000000005E-002     1.8183854100224455     
   2.5200000000000000E-002     1.4537428858314261     
   2.5499999999999995E-002     1.1298050018394770     
   2.5800000000000003E-002    0.83927338571362076     
   2.6099999999999998E-002    0.57528794325931421     
   2.6400000000000007E-002    0.33483680626938372     
   2.6700000000000002E-002    0.12156768715909083     
   2.6999999999999996E-002    -5.2592349516167869E-002
   2.7300000000000005E-002   -0.16622793158590776     
   2.7600000000000000E-002   -0.19052735183779945     
   2.7900000000000008E-002    -9.0813569430339802E-002
   2.8200000000000003E-002    0.16743422288175558     
   2.8499999999999998E-002    0.61428725705678611     
   2.8800000000000006E-002     1.2673412998585225     
   2.9100000000000001E-002     2.1250619638566923     
   2.9400000000000003E-002     3.1622619446903277     
   2.9700000000000004E-002     4.3235154915433611     
   3.0000000000000006E-002     5.5254913264682823     
   3.0300000000000001E-002     6.6553068111802940     
   3.0600000000000002E-002     7.5801599513662801     
   3.0900000000000004E-002     8.1550415026016072     
   3.1199999999999999E-002     8.2361353766808900     
   3.1500000000000007E-002     7.6956467533462813     
   3.1800000000000002E-002     6.4365498693735326     
   3.2099999999999997E-002     4.4064348273065672     
   3.2400000000000005E-002     1.6090470809995230     
   3.2700000000000000E-002    -1.8918015853167542     
   3.3000000000000002E-002    -5.9668051494580840     
   3.3300000000000003E-002    -10.432514929571839     
   3.3599999999999998E-002    -15.056357546110853     
   3.3900000000000000E-002    -19.576692899982600     
   3.4200000000000001E-002    -23.720653685385457     
   3.4500000000000003E-002    -27.223999099403699     
   3.4799999999999998E-002    -29.855118923462083     
   3.5099999999999999E-002    -31.426748937863536     
   3.5400000000000001E-002    -31.817870800751713     
   3.5699999999999996E-002    -30.974766412883888     
   3.6000000000000004E-002    -28.919003615305101     
   3.6299999999999999E-002    -25.741905676545041     
   3.6600000000000008E-002    -21.594342404747227     
   3.6900000000000002E-002    -16.677962165299935     
   3.7199999999999997E-002    -11.225626723892855     
   3.7500000000000006E-002    -5.4869844003377732     
   3.7800000000000000E-002    0.28843773565204245     
   3.8100000000000009E-002     5.8663133263123948     
   3.8400000000000004E-002     11.038620718343314     
   3.8699999999999998E-002     15.632412272028178     
   3.9000000000000007E-002     19.517279894864551     
   3.9300000000000002E-002     22.602939581427854     
   3.9600000000000003E-002     24.842697662505934     
   3.9900000000000005E-002     26.227506079461087     
   4.0200000000000000E-002     26.782848614558741     
   4.0500000000000001E-002     26.562412619029068     
   4.0800000000000003E-002     25.642239911736961     
   4.1100000000000005E-002     24.117674994423773     
   4.1399999999999999E-002     22.091669030164123     
   4.1700000000000008E-002     19.679227535180331     
   4.2000000000000003E-002     16.993715021188507     
   4.2299999999999997E-002     14.148687079260061     
   4.2600000000000006E-002     11.252706159091201     
   4.2900000000000001E-002     8.4047690436533387     
   4.3200000000000002E-002     5.6928601042891813     
   4.3500000000000004E-002     3.1902761923206207     
   4.3799999999999999E-002    0.95405463264921164     
   4.4100000000000000E-002   -0.97702537094412589     
   4.4400000000000002E-002    -2.5810566131916071     
   4.4700000000000004E-002    -3.8559984966702698     
   4.4999999999999998E-002    -4.8140345963743867     
   4.5300000000000000E-002    -5.4822820244608224     
   4.5600000000000002E-002    -5.9005396726662420     
   4.5899999999999996E-002    -6.1126760415884984     
   4.6200000000000005E-002    -6.1706596243513658     
   4.6500000000000000E-002    -6.1230348119565638     
   4.6799999999999994E-002    -6.0176560434805282     
   4.7100000000000003E-002    -5.8951248887893861     
   4.7399999999999998E-002    -5.7886410634656054     
   4.7700000000000006E-002    -5.7197388730674898     
   4.8000000000000001E-002    -5.7008289587861860     
   4.8300000000000010E-002    -5.7330760064486448     
   4.8600000000000004E-002    -5.8078150024141051     
   4.8899999999999999E-002    -5.9080045051070069     
   4.9200000000000008E-002    -6.0110165164958609     
   4.9500000000000002E-002    -6.0885734753511933     
   4.9800000000000011E-002    -6.1140055252937273     
   5.0100000000000006E-002    -6.0580000711860054     
   5.0400000000000000E-002    -5.8992672406358277     
   5.0700000000000009E-002    -5.6195049604337939     
   5.1000000000000004E-002    -5.2093036644628414     
   5.1299999999999998E-002    -4.6680524940429295     
   5.1600000000000007E-002    -4.0027298696805120     
   5.1900000000000002E-002    -3.2310276928166748     
   5.2200000000000010E-002    -2.3756855438321889     
   5.2500000000000005E-002    -1.4682564284558381     
   5.2800000000000000E-002   -0.54155141914289884     
   5.3099999999999994E-002    0.36729859639376511     
   5.3400000000000003E-002     1.2229581198933426     
   5.3699999999999998E-002     1.9926236625466558     
   5.4000000000000006E-002     2.6470454162633308     
   5.4300000000000001E-002     3.1657540046748327     
   5.4599999999999996E-002     3.5314552239624986     
   5.4900000000000004E-002     3.7407299731233596     
   5.5199999999999999E-002     3.7935615968613892     
   5.5499999999999994E-002     3.7022686216380398     
   5.5800000000000002E-002     3.4845066343454780     
   5.6099999999999997E-002     3.1656473537906025     
   5.6400000000000006E-002     2.7750084017162262     
   5.6700000000000000E-002     2.3460515521415410     
   5.6999999999999995E-002     1.9112368177557117     
   5.7300000000000004E-002     1.5025899968453142     
   5.7599999999999998E-002     1.1477600446616989     
   5.7900000000000007E-002    0.86811144647286853     
   5.8200000000000002E-002    0.67838356677518341     
   5.8499999999999996E-002    0.58442575090572657     
   5.8800000000000005E-002    0.58285969537163318     
   5.9100000000000000E-002    0.66305393116720546     
   5.9400000000000008E-002    0.80695050132169954     
   5.9700000000000003E-002    0.99053285176087291     
   6.0000000000000012E-002     1.1875439737927653     
   6.0300000000000006E-002     1.3700588303580341     
   6.0600000000000001E-002     1.5120629202351097     
   6.0900000000000010E-002     1.5915926483611904     
   6.1200000000000004E-002     1.5913107467921408     
   6.1500000000000013E-002     1.5017063797087111     
   6.1800000000000008E-002     1.3194399627837570     
   6.2100000000000002E-002     1.0499531926065506     
   6.2399999999999997E-002    0.70427777221274956     
   6.2700000000000006E-002    0.30041797034624129     
   6.3000000000000000E-002   -0.13930759897001832     
   6.3300000000000009E-002   -0.58974822453210685     
   6.3600000000000004E-002    -1.0242045165229674     
   6.3899999999999998E-002    -1.4165004960569934     
   6.4199999999999993E-002    -1.7431290183185137     
   6.4500000000000002E-002    -1.9830861518661065     
   6.4800000000000010E-002    -2.1226718802229660     
   6.5100000000000005E-002    -2.1522734688199292     
   6.5400000000000000E-002    -2.0718122492811939     
   6.5700000000000008E-002    -1.8861779714334270     
   6.5999999999999989E-002    -1.6102931852825981     
   6.6299999999999998E-002    -1.2643040742574643     
   6.6600000000000006E-002   -0.87392580329497926     
   6.6900000000000001E-002   -0.47003604191414128     
   6.7199999999999996E-002    -8.2985287834365956E-002
   6.7500000000000004E-002    0.25535641232392070     
   6.7800000000000013E-002    0.51893692708940853     
   6.8099999999999994E-002    0.68606718271454559     
   6.8400000000000002E-002    0.74431125102948004     
   6.8700000000000011E-002    0.69051612047843758     
   6.8999999999999992E-002    0.53153904252706619     
   6.9300000000000000E-002    0.28615652960294491     
   6.9600000000000009E-002    -2.1086438408983638E-002
   6.9900000000000004E-002   -0.35602675729689304     
   7.0199999999999999E-002   -0.68363765385648800     
   7.0500000000000007E-002   -0.96655981614181630     
   7.0800000000000016E-002    -1.1735935866881178     
   7.1099999999999997E-002    -1.2782469266174989     
   7.1400000000000005E-002    -1.2656779784910781     
   7.1700000000000000E-002    -1.1315469196068444     
   7.1999999999999995E-002   -0.88342866096042583     
   7.2300000000000003E-002   -0.54078305704976037     
   7.2600000000000012E-002   -0.13213482655574660     
   7.2900000000000006E-002    0.30729894899486321     
   7.3200000000000001E-002    0.73985674661339818     
   7.3499999999999996E-002     1.1274340977582948     
   7.3800000000000004E-002     1.4378637329234079     
   7.4099999999999999E-002     1.6449360184052291     
   7.4400000000000008E-002     1.7331101269912932     
   7.4700000000000003E-002     1.6973032554764429     
   7.5000000000000011E-002     1.5425148669825108     
   7.5299999999999992E-002     1.2847592317591752     
   7.5600000000000001E-002    0.94585383171451087     
   7.5900000000000009E-002    0.55431060407492305     
   7.6200000000000004E-002    0.13971822907815412     
   7.6499999999999999E-002   -0.26742292591110861     
   7.6800000000000007E-002   -0.64090258812169232     
   7.7099999999999988E-002   -0.95806455934470658     
   7.7399999999999997E-002    -1.2019072562699364     
   7.7700000000000005E-002    -1.3622790202265627     
   7.8000000000000014E-002    -1.4343998290154405     
   7.8299999999999995E-002    -1.4190901647978575     
   7.8600000000000003E-002    -1.3224647256658593     
   7.8900000000000012E-002    -1.1532279514893302     
   7.9199999999999993E-002   -0.92385164675877718     
   7.9500000000000001E-002   -0.64849287102532882     
   7.9800000000000010E-002   -0.34195706833902906     
   8.0100000000000018E-002    -2.1279057664026435E-002
   8.0399999999999999E-002    0.29813060139578573     
   8.0700000000000008E-002    0.59951700628418403     
   8.1000000000000003E-002    0.86803372498339360     
   8.1299999999999997E-002     1.0901894649066306     
   8.1600000000000006E-002     1.2540529399942031     
   8.1900000000000014E-002     1.3517085359588488     
   8.2199999999999995E-002     1.3773505425882415     
   8.2500000000000004E-002     1.3309154358331801     
   8.2799999999999999E-002     1.2149507792230243     
   8.3100000000000007E-002     1.0377129474292361     
   8.3400000000000002E-002    0.80984091966220961     
   8.3700000000000011E-002    0.54556967264949108     
   8.4000000000000005E-002    0.26203201909294060     
   8.4300000000000000E-002    -2.5532806792861601E-002
   8.4599999999999995E-002   -0.29809721736670136     
   8.4900000000000003E-002   -0.54221761155615700     
   8.5199999999999998E-002   -0.74393501270506079     
   8.5500000000000007E-002   -0.89435838931729050     
   8.5800000000000001E-002   -0.98705454852679608     
   8.6100000000000010E-002    -1.0201246944628899     
   8.6399999999999991E-002   -0.99491141335243105     
   8.6699999999999999E-002   -0.91664638321227665     
   8.7000000000000008E-002   -0.79375396735732762     
   8.7300000000000003E-002   -0.63602711619009655     
   8.7599999999999997E-002   -0.45609822493889263     
   8.7900000000000006E-002   -0.26685140322851886     
   8.8200000000000014E-002    -8.0459650827003446E-002
   8.8499999999999995E-002     9.0121146565811688E-002
   8.8800000000000004E-002    0.23475701489057876     
   8.9100000000000013E-002    0.34540434902716727     
   8.9399999999999993E-002    0.41635662741274160     
   8.9700000000000002E-002    0.44515051799341171     
   9.0000000000000011E-002    0.43315254813699194     
   9.0299999999999991E-002    0.38355296841698433     
   9.0600000000000000E-002    0.30367591371489178     
   9.0900000000000009E-002    0.20199289916448682     
   9.1200000000000017E-002     8.9145754793488685E-002
   9.1499999999999998E-002    -2.4858360554205466E-002
   9.1800000000000007E-002   -0.12882375583820799     
   9.2100000000000001E-002   -0.21451550913368689     
   9.2399999999999996E-002   -0.27344216098519325     
   9.2700000000000005E-002   -0.30204022396079677     
   9.3000000000000013E-002   -0.29698768700112510     
   9.3300000000000008E-002   -0.25955672393500651     
   9.3600000000000003E-002   -0.19203356853903247     
   9.3899999999999997E-002   -0.10070673771950560     
   9.4200000000000006E-002     7.7853321759161036E-003
   9.4500000000000001E-002    0.12508806469206479     
   9.4800000000000009E-002    0.24196696173099314     
   9.5100000000000004E-002    0.34962688772113293     
   9.5399999999999999E-002    0.43968987937999793     
   9.5699999999999993E-002    0.50498687792828845     
   9.6000000000000002E-002    0.53978555545620710     
   9.6300000000000011E-002    0.54039164443293297     
   9.6600000000000005E-002    0.50628648283005573     
   9.6900000000000000E-002    0.43748029546575240     
   9.7200000000000009E-002    0.33854409769943139     
   9.7499999999999989E-002    0.21458014970684586     
   9.7799999999999998E-002     7.3937939195606900E-002
   9.8100000000000007E-002    -7.5180723593509552E-002
   9.8400000000000015E-002   -0.22182754202242885     
   9.8699999999999996E-002   -0.35667063494004525     
   9.9000000000000005E-002   -0.47015677830616376     
   9.9300000000000013E-002   -0.55419491655922948     
   9.9599999999999994E-002   -0.60270963381195453     
   9.9900000000000003E-002   -0.61241362211892370     
  0.10020000000000001        -0.58179248354255364     
  0.10049999999999999        -0.51323314726840086     
  0.10080000000000000        -0.41056392673580488     
  0.10110000000000001        -0.28071348375115029     
  0.10140000000000000        -0.13152544548023071     
  0.10170000000000000          2.7615252014412395E-002
  0.10200000000000001         0.18786600574044232     
  0.10230000000000002         0.33936248536291519     
  0.10260000000000000         0.47493234667365369     
  0.10290000000000001         0.58677004063308902     
  0.10320000000000000         0.67064064367521448     
  0.10350000000000001         0.72238391838950977     
  0.10380000000000000         0.74107214990087455     
  0.10410000000000001         0.72654130599648659     
  0.10440000000000001         0.68009722506409453     
  0.10470000000000000         0.60564501903334089     
  0.10500000000000000         0.50654888163068090     
  0.10530000000000000         0.38818599887446981     
  0.10560000000000000         0.25608223339720687     
  0.10590000000000001         0.11577245846367346     
  0.10620000000000000         -2.6118015937210328E-002
  0.10650000000000001        -0.16451336502870723     
  0.10679999999999999        -0.29321916146754035     
  0.10710000000000000        -0.40886708316517328     
  0.10740000000000001        -0.50555783354628014     
  0.10770000000000000        -0.58303865412525302     
  0.10800000000000000        -0.63746159684683046     
  0.10830000000000001        -0.66939698320689711     
  0.10859999999999999        -0.67934567717804950     
  0.10890000000000000        -0.66813137526961686     
  0.10920000000000001        -0.63860348228485952     
  0.10950000000000001        -0.59295701761240271     
  0.10979999999999999        -0.53450415292732489     
  0.11009999999999999        -0.46572357881496729     
  0.11040000000000001        -0.39023795894539759     
  0.11070000000000001        -0.31047053630468729     
  0.11100000000000000        -0.22906174351195979     
  0.11130000000000000        -0.14922272414504678     
  0.11160000000000002         -7.1953733456735780E-002
  0.11190000000000001         -1.2110627498031438E-003
  0.11220000000000001          6.2582685192000012E-002
  0.11250000000000000         0.11589705332252032     
  0.11280000000000000         0.15823858564306476     
  0.11309999999999999         0.18732489596551652     
  0.11340000000000001         0.20308510937561652     
  0.11369999999999998         0.20428853386886098     
  0.11400000000000000         0.19183392942320460     
  0.11430000000000000         0.16612588622461161     
  0.11460000000000002         0.12875208038707953     
  0.11489999999999999          8.1683135974585958E-002
  0.11520000000000001          2.7060120367192922E-002
  0.11550000000000001         -3.2871886845761443E-002
  0.11580000000000000         -9.4925889539800232E-002
  0.11609999999999999        -0.15716140027387640     
  0.11640000000000002        -0.21657668660554485     
  0.11670000000000001        -0.27088830998894919     
  0.11700000000000001        -0.31734844698884368     
  0.11730000000000000        -0.35444600717600527     
  0.11760000000000000        -0.37907983041419574     
  0.11789999999999999        -0.39057521769108616     
  0.11820000000000001        -0.38654640780896055     
  0.11850000000000001        -0.36692848850863741     
  0.11880000000000000        -0.33107095879160353     
  0.11910000000000000        -0.28017221473814685     
  0.11940000000000002        -0.21522103978004653     
  0.11970000000000001        -0.13918127474306816     
  0.12000000000000001         -5.4281461416448171E-002
  0.12030000000000000          3.5206127250589483E-002
  0.12060000000000000         0.12629337131538232     
  0.12089999999999999         0.21486084832012611     
  0.12119999999999999         0.29831844631659216     
  0.12150000000000001         0.37346633342474056     
  0.12180000000000001         0.43898217082539281     
  0.12210000000000000         0.49358168897088850     
  0.12239999999999999         0.53658465575301939     
  0.12270000000000002         0.56845197923035951     
  0.12300000000000001         0.58990855973934386     
  0.12330000000000001         0.60112981417908062     
  0.12360000000000000         0.60377968997371922     
  0.12390000000000000         0.59743698118010591     
  0.12419999999999999         0.58429988292121371     
  0.12450000000000001         0.56365079198839529     
  0.12480000000000001         0.53731876546448720     
  0.12509999999999999         0.50489934171465889     
  0.12540000000000001         0.46766061425137317     
  0.12570000000000003         0.42663675830972753     
  0.12600000000000000         0.38148574945540853     
  0.12630000000000002         0.33458501921687733     
  0.12659999999999999         0.28497558827681074     
  0.12690000000000001         0.23525229569676426     
  0.12719999999999998         0.18438147909057087     
  0.12750000000000000         0.13380943437768456     
  0.12780000000000002          8.4203987228471666E-002
  0.12809999999999999          3.5028972931462621E-002
  0.12840000000000001         -1.0684080953609565E-002
  0.12869999999999998         -5.4839228986439004E-002
  0.12900000000000000         -9.4019829908710689E-002
  0.12930000000000003        -0.12872602231353816     
  0.12959999999999999        -0.15702433585656250     
  0.12990000000000002        -0.17820852232793843     
  0.13019999999999998        -0.19226785002884944     
  0.13050000000000000        -0.19824026837682199     
  0.13080000000000003        -0.19772767119513829     
  0.13109999999999999        -0.19068978609040690     
  0.13140000000000002        -0.17943767596258292     
  0.13169999999999998        -0.16516271736368546     
  0.13200000000000001        -0.15011794128584205     
  0.13229999999999997        -0.13557531254234872     
  0.13260000000000000        -0.12309229706678679     
  0.13290000000000002        -0.11335624372206260     
  0.13319999999999999        -0.10643116628811285     
  0.13350000000000001        -0.10144880148761259     
  0.13380000000000003         -9.8344737949613542E-002
  0.13410000000000000         -9.4622919051532695E-002
  0.13440000000000002         -9.0028333726641124E-002
  0.13469999999999999         -8.2329721967706937E-002
  0.13500000000000001         -7.0968351806479327E-002
  0.13529999999999998         -5.5617517366503250E-002
  0.13560000000000000         -3.5254279267653940E-002
  0.13590000000000002         -1.1528953175351478E-002
  0.13619999999999999          1.5889211759514410E-002
  0.13650000000000001          4.4782802368442218E-002
  0.13680000000000003          7.3981245107391930E-002
  0.13710000000000000         0.10182629934098095     
  0.13740000000000002         0.12631963655247538     
  0.13769999999999999         0.14634257145387899     
  0.13800000000000001         0.15929730081532834     
  0.13829999999999998         0.16599324653128492     
  0.13860000000000000         0.16368954403474548     
  0.13890000000000002         0.15433467272973517     
  0.13919999999999999         0.13693693129317025     
  0.13950000000000001         0.11287608088623785     
  0.13979999999999998          8.4572979182718971E-002
  0.14010000000000000          5.2468521524928702E-002
  0.14040000000000002          2.0167755118600944E-002
  0.14069999999999999         -1.1401616731689993E-002
  0.14100000000000001         -3.9321161307959131E-002
  0.14130000000000004         -6.2677543520208323E-002
  0.14160000000000000         -7.9984994971765755E-002
  0.14189999999999997         -9.1429170896910772E-002
  0.14219999999999999         -9.7395024841889680E-002
  0.14250000000000002         -9.8512320574570739E-002
  0.14279999999999998         -9.7464007282539400E-002
  0.14310000000000000         -9.5390285488736196E-002
  0.14339999999999997         -9.4926031302428521E-002
  0.14369999999999999         -9.7627240808085478E-002
  0.14400000000000002        -0.10529831832843456     
  0.14429999999999998        -0.11852565511381810     
  0.14460000000000001        -0.13800221148479716     
  0.14490000000000003        -0.16278228306129711     
  0.14520000000000000        -0.19258980345077015     
  0.14550000000000002        -0.22568967937573664     
  0.14579999999999999        -0.26030619085445816     
  0.14610000000000001        -0.29580156196899565     
  0.14640000000000003        -0.32854826228752726     
  0.14670000000000000        -0.35933645527381275     
  0.14699999999999996        -0.38471184562253957     
  0.14729999999999999        -0.40583169571470318     
  0.14760000000000001        -0.42013448113979840     
  0.14789999999999998        -0.42833398767185199     
  0.14820000000000000        -0.42994267827483801     