  -1.4999999999999999E-002     0.0000000000000000     
  -1.4700000000000000E-002     0.0000000000000000     
  -1.4400000000000000E-002     0.0000000000000000     
  -1.4100000000000000E-002     0.0000000000000000     
  -1.3800000000000000E-002     0.0000000000000000     
  -1.3500000000000000E-002     0.0000000000000000     
  -1.3200000000000000E-002     0.0000000000000000     
  -1.2899999999999998E-002     0.0000000000000000     
  -1.2600000000000000E-002    -9.7996203623046887E-036
  -1.2299999999999998E-002     4.1773265039742581E-035
  -1.2000000000000000E-002     3.9658360682057384E-033
  -1.1699999999999999E-002    -3.4799479362684832E-032
  -1.1399999999999999E-002    -3.3036511600142273E-031
  -1.1099999999999999E-002     3.8939701048634096E-030
  -1.0799999999999999E-002     1.7385178991433276E-030
  -1.0499999999999999E-002    -1.2287948842116636E-028
  -1.0199999999999999E-002     2.1332309693194123E-028
  -9.8999999999999991E-003     1.6077699338085402E-027
  -9.5999999999999992E-003    -4.0335329397253554E-027
  -9.2999999999999992E-003    -1.3835484826751554E-026
  -8.9999999999999993E-003     3.4755175938328316E-026
  -8.6999999999999994E-003     1.1485461070230565E-025
  -8.3999999999999995E-003    -2.2907575872110436E-025
  -8.0999999999999996E-003    -7.5145471019911515E-025
  -7.7999999999999988E-003     9.5185108071818098E-025
  -7.4999999999999997E-003     3.8673388463883011E-024
  -7.1999999999999998E-003    -6.4668941214346906E-025
  -6.8999999999999981E-003    -1.6512909483021843E-023
  -6.5999999999999982E-003    -1.9431387806731095E-023
  -6.3000000000000000E-003     4.6268112140340308E-023
  -6.0000000000000001E-003     1.7598717352460246E-022
  -5.6999999999999985E-003    -5.8745633237144186E-023
  -5.3999999999999986E-003    -8.2952774847348893E-022
  -5.1000000000000004E-003    -3.1759590682790939E-022
  -4.7999999999999987E-003     2.3629481027707899E-021
  -4.5000000000000005E-003     2.6611995120811989E-021
  -4.1999999999999989E-003    -2.1835206761323605E-021
  -3.8999999999999990E-003    -1.0356244993176955E-020
  -3.5999999999999990E-003    -1.7990390908021194E-020
  -3.2999999999999991E-003     2.7488449106722661E-020
  -2.9999999999999992E-003     1.0615307434089825E-019
  -2.6999999999999993E-003    -3.9158892984294737E-020
  -2.3999999999999994E-003    -2.8803063348477297E-019
  -2.0999999999999977E-003    -2.4013650321399516E-020
  -1.7999999999999995E-003     1.4598345309165695E-019
  -1.4999999999999979E-003     5.4258814721974499E-019
  -1.1999999999999997E-003     1.7543138754049471E-018
  -8.9999999999999976E-004    -2.3456231456016647E-018
  -5.9999999999999810E-004    -6.7410583535356067E-018
  -2.9999999999999992E-004     4.4423935513385612E-018
   0.0000000000000000          1.1424143759176749E-017
   3.0000000000000165E-004    -1.6751569106746338E-018
   5.9999999999999984E-004     7.1223837758277881E-018
   9.0000000000000149E-004    -1.8874826690689477E-017
   1.2000000000000031E-003    -9.5616252591029764E-017
   1.5000000000000013E-003     7.0270059388213760E-017
   1.8000000000000030E-003     2.5195610990793970E-016
   2.1000000000000012E-003    -1.2218980252286780E-016
   2.3999999999999994E-003    -2.3662276793248523E-016
   2.7000000000000010E-003     8.2948853536171764E-017
   2.9999999999999992E-003    -6.3342015465389903E-016
   3.3000000000000008E-003     2.3625959483908711E-016
   3.6000000000000025E-003     2.8028070625169664E-015
   3.9000000000000007E-003    -9.0064682955045847E-016
   4.2000000000000023E-003    -4.0508206615260472E-015
   4.5000000000000005E-003     7.5077325723066373E-016
   4.7999999999999987E-003    -1.7584409500974899E-015
   5.1000000000000004E-003     3.2277210052429973E-015
   5.4000000000000020E-003     1.6832632153265900E-014
   5.7000000000000037E-003    -1.1411690026047096E-014
   5.9999999999999984E-003    -1.8878152965177457E-014
   6.3000000000000000E-003     5.2284563775601783E-015
   6.6000000000000017E-003    -4.1362937851957416E-014
   6.9000000000000034E-003     7.0339861552462945E-014
   7.2000000000000015E-003     1.5157002420586480E-013
   7.5000000000000032E-003    -2.6476596813067834E-013
   7.8000000000000014E-003    -5.9444361623158881E-014
   8.0999999999999996E-003     4.5040872875567919E-013
   8.4000000000000012E-003    -7.3708495385053469E-013
   8.7000000000000029E-003    -8.1701216710711652E-014
   9.0000000000000011E-003     2.3645759710945723E-012
   9.2999999999999992E-003    -1.7851184322974983E-012
   9.6000000000000009E-003    -3.2612916218064122E-012
   9.8999999999999991E-003     5.6637054601001553E-012
   1.0200000000000001E-002    -5.2674398728844565E-013
   1.0500000000000002E-002    -9.7310536282820829E-012
   1.0800000000000004E-002     1.3052335683591143E-011
   1.1099999999999999E-002     7.6050464100484157E-012
   1.1400000000000000E-002    -3.2099852957783619E-011
   1.1700000000000002E-002     1.1436905632741326E-011
   1.2000000000000004E-002     4.2239692985716483E-011
   1.2300000000000002E-002    -5.4406099839224788E-011
   1.2600000000000000E-002    -1.7926943458658579E-011
   1.2900000000000002E-002     1.0686597573675737E-010
   1.3200000000000000E-002    -4.7617611196957982E-011
   1.3500000000000002E-002    -1.2834417735543136E-010
   1.3800000000000003E-002     9.3038058963540690E-011
   1.4100000000000001E-002     1.0720993917375085E-010
   1.4400000000000000E-002    -2.1138022203460219E-011
   1.4700000000000001E-002    -2.6673763384822210E-011
   1.4999999999999999E-002    -2.5008087949802028E-011
   1.5300000000000001E-002    -1.3863218410486176E-009
   1.5600000000000003E-002    -2.1350842295997267E-010
   1.5899999999999997E-002     1.2764473015756356E-008
   1.6199999999999999E-002    -3.2617632640326041E-009
   1.6500000000000001E-002    -7.1174498777799537E-008
   1.6800000000000002E-002     3.2376483765937427E-008
   1.7100000000000004E-002     2.9983057666216497E-007
   1.7400000000000006E-002    -1.8292962998034782E-007
   1.7700000000000000E-002    -1.1834266830940911E-006
   1.8000000000000002E-002     1.3613393905197292E-006
   1.8300000000000004E-002     1.1490410795112462E-005
   1.8600000000000005E-002     2.6875653937809904E-005
   1.8900000000000000E-002     4.2023148489236559E-005
   1.9200000000000002E-002     5.5825820955381565E-005
   1.9500000000000003E-002     7.0542248259173327E-005
   1.9799999999999998E-002     8.9978580861257434E-005
   2.0100000000000000E-002     1.2541647055960481E-004
   2.0400000000000001E-002     1.9308662862235588E-004
   2.0700000000000003E-002     2.9714355478318959E-004
   2.0999999999999998E-002     4.2572637763579272E-004
   2.1299999999999999E-002     5.7119179379119258E-004
   2.1600000000000001E-002     7.4398699565279250E-004
   2.1900000000000003E-002     9.6342161937345888E-004
   2.2200000000000004E-002     1.2409956556023350E-003
   2.2500000000000006E-002     1.5607886744350675E-003
   2.2800000000000001E-002     1.8616438923178586E-003
   2.3100000000000002E-002     2.0463557137338087E-003
   2.3400000000000004E-002     2.0003840440327250E-003
   2.3699999999999999E-002     1.5685252296525722E-003
   2.4000000000000000E-002     5.1018206347044285E-004
   2.4300000000000002E-002    -1.5134785809466813E-003
   2.4599999999999997E-002    -4.9509393542321511E-003
   2.4900000000000005E-002    -1.0394892315325003E-002
   2.5200000000000000E-002    -1.8573146081594959E-002
   2.5499999999999995E-002    -3.0289921977627463E-002
   2.5800000000000003E-002    -4.6393763964712537E-002
   2.6099999999999998E-002    -6.7755697627860517E-002
   2.6400000000000007E-002    -9.5189489530649818E-002
   2.6700000000000002E-002   -0.12932048179192002     
   2.6999999999999996E-002   -0.17040529541593658     
   2.7300000000000005E-002   -0.21812115474413477     
   2.7600000000000000E-002   -0.27138781382310012     
   2.7900000000000008E-002   -0.32817914687831296     
   2.8200000000000003E-002   -0.38534342172224240     
   2.8499999999999998E-002   -0.43844533181535111     
   2.8800000000000006E-002   -0.48171745978862712     
   2.9100000000000001E-002   -0.50817171289115171     
   2.9400000000000003E-002   -0.50987835262476700     
   2.9700000000000004E-002   -0.47832170889610603     
   3.0000000000000006E-002   -0.40502913801013646     
   3.0300000000000001E-002   -0.28234167742918947     
   3.0600000000000002E-002   -0.10432858433810022     
   3.0900000000000004E-002    0.13218801641110495     
   3.1199999999999999E-002    0.42668571934869370     
   3.1500000000000007E-002    0.77405760615672892     
   3.1800000000000002E-002     1.1639677640152759     
   3.2099999999999997E-002     1.5804997857324430     
   3.2400000000000005E-002     2.0023475337322814     
   3.2700000000000000E-002     2.4035942561750643     
   3.3000000000000002E-002     2.7547183483113717     
   3.3300000000000003E-002     3.0243524527296577     
   3.3599999999999998E-002     3.1816886538714968     
   3.3900000000000000E-002     3.1988550970936664     
   3.4200000000000001E-002     3.0536442485905182     
   3.4500000000000003E-002     2.7319168571690415     
   3.4799999999999998E-002     2.2299100869726844     
   3.5099999999999999E-002     1.5556531300061689     
   3.5400000000000001E-002    0.72978304490542456     
   3.5699999999999996E-002   -0.21468041268541227     
   3.6000000000000004E-002    -1.2338581155477322     
   3.6299999999999999E-002    -2.2748950084496933     
   3.6600000000000008E-002    -3.2797930570744036     
   3.6900000000000002E-002    -4.1888747998143021     
   3.7199999999999997E-002    -4.9452546390265084     
   3.7500000000000006E-002    -5.4991150492875978     
   3.7800000000000000E-002    -5.8115372873469386     
   3.8100000000000009E-002    -5.8576362136735387     
   3.8400000000000004E-002    -5.6288089568542983     
   3.8699999999999998E-002    -5.1336123261459221     
   3.9000000000000007E-002    -4.3971664758875137     
   3.9300000000000002E-002    -3.4596520183264743     
   3.9600000000000003E-002    -2.3731876961219411     
   3.9900000000000005E-002    -1.1984894983214611     
   4.0200000000000000E-002    -2.1669282619141139E-004
   4.0500000000000001E-002     1.1570425055317930     
   4.0800000000000003E-002     2.2133321069570702     
   4.1100000000000005E-002     3.1165360532587938     
   4.1399999999999999E-002     3.8255158068829505     
   4.1700000000000008E-002     4.3119744590028466     
   4.2000000000000003E-002     4.5611204267546421     
   4.2299999999999997E-002     4.5721237247449977     
   4.2600000000000006E-002     4.3567758175713118     
   4.2900000000000001E-002     3.9379791873336032     
   4.3200000000000002E-002     3.3482707341396494     
   4.3500000000000004E-002     2.6267376585070159     
   4.3799999999999999E-002     1.8169041007586855     
   4.4100000000000000E-002    0.96468503756525892     
   4.4400000000000002E-002    0.11488578833947455     
   4.4700000000000004E-002   -0.69007595309806624     
   4.4999999999999998E-002    -1.4123974794628189     
   4.5300000000000000E-002    -2.0214325684431373     
   4.5600000000000002E-002    -2.4942556984598303     
   4.5899999999999996E-002    -2.8172997312280463     
   4.6200000000000005E-002    -2.9873701660582777     
   4.6500000000000000E-002    -3.0106490179380554     
   4.6799999999999994E-002    -2.9029845945680668     
   4.7100000000000003E-002    -2.6887103098296761     
   4.7399999999999998E-002    -2.3974974904940396     
   4.7700000000000006E-002    -2.0631723434236644     
   4.8000000000000001E-002    -1.7203131629686574     
   4.8300000000000010E-002    -1.4002665459340569     
   4.8600000000000004E-002    -1.1296734026280835     
   4.8899999999999999E-002   -0.92656612550929107     
   4.9200000000000008E-002   -0.79892411751376891     
   4.9500000000000002E-002   -0.74451110937883247     
   4.9800000000000011E-002   -0.75010245607833614     
   5.0100000000000006E-002   -0.79316709975167221     
   5.0400000000000000E-002   -0.84538184052456966     
   5.0700000000000009E-002   -0.87372208110521421     
   5.1000000000000004E-002   -0.84628689011064617     
   5.1299999999999998E-002   -0.73519385116289104     
   5.1600000000000007E-002   -0.51913437189877265     
   5.1900000000000002E-002   -0.18795909873761263     
   5.2200000000000010E-002    0.25768667295762432     
   5.2500000000000005E-002    0.80569875198527274     
   5.2800000000000000E-002     1.4325802391347700     
   5.3099999999999994E-002     2.1072316114354974     
   5.3400000000000003E-002     2.7934283819326469     
   5.3699999999999998E-002     3.4528197627031614     
   5.4000000000000006E-002     4.0500351736850844     
   5.4300000000000001E-002     4.5548383187730694     
   5.4599999999999996E-002     4.9449634352493463     
   5.4900000000000004E-002     5.2079953134737469     
   5.5199999999999999E-002     5.3405696582529885     
   5.5499999999999994E-002     5.3484579134147578     
   5.5800000000000002E-002     5.2437419746697893     
   5.6099999999999997E-002     5.0426296790260343     
   5.6400000000000006E-002     4.7628261972065378     
   5.6700000000000000E-002     4.4200481925271742     
   5.6999999999999995E-002     4.0269907972702317     
   5.7300000000000004E-002     3.5919380761165698     
   5.7599999999999998E-002     3.1177289392553869     
   5.7900000000000007E-002     2.6041887265076955     
   5.8200000000000002E-002     2.0488609356046834     
   5.8499999999999996E-002     1.4492602177401739     
   5.8800000000000005E-002    0.80695442041695742     
   5.9100000000000000E-002    0.12778014011255018     
   5.9400000000000008E-002   -0.57507553850388016     
   5.9700000000000003E-002    -1.2805375792114000     
   6.0000000000000012E-002    -1.9614264515306790     
   6.0300000000000006E-002    -2.5845399203000228     
   6.0600000000000001E-002    -3.1143115281453677     
   6.0900000000000010E-002    -3.5174844634839961     
   6.1200000000000004E-002    -3.7642740583344092     
   6.1500000000000013E-002    -3.8350513273806230     
   6.1800000000000008E-002    -3.7215422442515278     
   6.2100000000000002E-002    -3.4293008035845318     
   6.2399999999999997E-002    -2.9791768066292992     
   6.2700000000000006E-002    -2.4052669594309597     
   6.3000000000000000E-002    -1.7538700824663795     
   6.3300000000000009E-002    -1.0807653165310012     
   6.3600000000000004E-002   -0.44552807372358794     
   6.3899999999999998E-002     9.0336492021752840E-002
   6.4199999999999993E-002    0.46895903696332308     
   6.4500000000000002E-002    0.64042207420971842     
   6.4800000000000010E-002    0.56374582359203296     
   6.5100000000000005E-002    0.21221798634690603     
   6.5400000000000000E-002   -0.42555574350893233     
   6.5700000000000008E-002    -1.3451386493687922     
   6.5999999999999989E-002    -2.5220187680028627     
   6.6299999999999998E-002    -3.9130011530019528     
   6.6600000000000006E-002    -5.4544615408134343     
   6.6900000000000001E-002    -7.0604267537733056     
   6.7199999999999996E-002    -8.6267052618318747     
   6.7500000000000004E-002    -10.031160761240667     
   6.7800000000000013E-002    -11.138435249555725     
   6.8099999999999994E-002    -11.809777645449483     
   6.8400000000000002E-002    -11.910093744965906     
   6.8700000000000011E-002    -11.321725162430118     
   6.8999999999999992E-002    -9.9593760381817322     
   6.9300000000000000E-002    -7.7809884489466921     
   6.9600000000000009E-002    -4.8033233559672146     
   6.9900000000000004E-002    -1.1085639550867912     
   7.0199999999999999E-002     3.1513827340019134     
   7.0500000000000007E-002     7.7568327374703454     
   7.0800000000000016E-002     12.431052169787037     
   7.1099999999999997E-002     16.858481435967015     
   7.1400000000000005E-002     20.704470836963388     
   7.1700000000000000E-002     23.645821001119423     
   7.1999999999999995E-002     25.398485516315304     
   7.2300000000000003E-002     25.743279261047601     
   7.2600000000000012E-002     24.551894578756674     
   7.2900000000000006E-002     21.800479618341495     
   7.3200000000000001E-002     17.576659022787211     
   7.3499999999999996E-002     12.079279073207292     
   7.3800000000000004E-002     5.6014275713165960     
   7.4099999999999999E-002    -1.4882561024951446     
   7.4400000000000008E-002    -8.7733946254093844     
   7.4700000000000003E-002    -15.824657943631752     
   7.5000000000000011E-002    -22.228669141479450     
   7.5299999999999992E-002    -27.619737403775023     
   7.5600000000000001E-002    -31.705625082925025     
   7.5900000000000009E-002    -34.280926999062807     
   7.6200000000000004E-002    -35.240068023473711     
   7.6499999999999999E-002    -34.576324080273764     
   7.6800000000000007E-002    -32.372666799880761     
   7.7099999999999988E-002    -28.790229732877609     
   7.7399999999999997E-002    -24.050491857675325     
   7.7700000000000005E-002    -18.413290170940279     
   7.8000000000000014E-002    -12.158999983383332     
   7.8299999999999995E-002    -5.5700188555653867     
   7.8600000000000003E-002     1.0842881541763427     
   7.8900000000000012E-002     7.5577776799560681     
   7.9199999999999993E-002     13.636489421440345     
   7.9500000000000001E-002     19.137306594120954     
   7.9800000000000010E-002     23.914213095636551     
   8.0100000000000018E-002     27.855849402512526     
   8.0399999999999999E-002     30.879391952893712     
   8.0700000000000008E-002     32.935545800565279     
   8.1000000000000003E-002     34.003247831284938     
   8.1299999999999997E-002     34.086373583260837     
   8.1600000000000006E-002     33.220268915187347     
   8.1900000000000014E-002     31.464951201268626     
   8.2199999999999995E-002     28.903412293650810     
   8.2500000000000004E-002     25.647451061037412     
   8.2799999999999999E-002     21.824040515744187     
   8.3100000000000007E-002     17.578133384297061     
   8.3400000000000002E-002     13.065605685113468     
   8.3700000000000011E-002     8.4420295065777999     
   8.4000000000000005E-002     3.8623549287576608     
   8.4300000000000000E-002   -0.52931872910171984     
   8.4599999999999995E-002    -4.6084761825781984     
   8.4900000000000003E-002    -8.2698814199628838     
   8.5199999999999998E-002    -11.433892104380428     
   8.5500000000000007E-002    -14.051105335442621     
   8.5800000000000001E-002    -16.096510923644370     
   8.6100000000000010E-002    -17.573629307836999     
   8.6399999999999991E-002    -18.510704289529588     
   8.6699999999999999E-002    -18.953250345925241     
   8.7000000000000008E-002    -18.964649228595995     
   8.7300000000000003E-002    -18.619011964765008     
   8.7599999999999997E-002    -17.992042829704616     
   8.7900000000000006E-002    -17.163051017846680     
   8.8200000000000014E-002    -16.204051658125913     
   8.8499999999999995E-002    -15.175945426203278     
   8.8800000000000004E-002    -14.129960893704888     
   8.9100000000000013E-002    -13.100415776398727     
   8.9399999999999993E-002    -12.103654146796554     
   8.9700000000000002E-002    -11.145879168498659     
   9.0000000000000011E-002    -10.214935675504000     
   9.0299999999999991E-002    -9.2885929477145552     
   9.0600000000000000E-002    -8.3414028454166953     
   9.0900000000000009E-002    -7.3408565262956849     
   9.1200000000000017E-002    -6.2571421581022699     
   9.1499999999999998E-002    -5.0685017632722360     
   9.1800000000000007E-002    -3.7586476038412080     
   9.2100000000000001E-002    -2.3230309959253366     
   9.2399999999999996E-002   -0.77248489660893416     
   9.2700000000000005E-002    0.87387804362623234     
   9.3000000000000013E-002     2.5816814620208945     
   9.3300000000000008E-002     4.3076598711299550     
   9.3600000000000003E-002     6.0028254142385027     
   9.3899999999999997E-002     7.6102345775286038     
   9.4200000000000006E-002     9.0743346760513752     
   9.4500000000000001E-002     10.342476500428907     
   9.4800000000000009E-002     11.364944963036246     
   9.5100000000000004E-002     12.103693764374032     
   9.5399999999999999E-002     12.530920300890942     
   9.5699999999999993E-002     12.631963932701067     
   9.6000000000000002E-002     12.408716364365803     
   9.6300000000000011E-002     11.875266448724219     
   9.6600000000000005E-002     11.062575787942166     
   9.6900000000000000E-002     10.014117645271355     
   9.7200000000000009E-002     8.7817528657609873     
   9.7499999999999989E-002     7.4282533616288511     
   9.7799999999999998E-002     6.0170901459116930     
   9.8100000000000007E-002     4.6115661899053269     
   9.8400000000000015E-002     3.2741633273095139     
   9.8699999999999996E-002     2.0557078125027974     
   9.9000000000000005E-002    0.99779102939975584     
   9.9300000000000013E-002    0.13249776440440653     
   9.9599999999999994E-002   -0.52816055872287027     
   9.9900000000000003E-002   -0.98175189356990411     
  0.10020000000000001         -1.2398872411787896     
  0.10049999999999999         -1.3306010560505088     
  0.10080000000000000         -1.2873823990902531     
  0.10110000000000001         -1.1525352758520084     
  0.10140000000000000        -0.97539814501044098     
  0.10170000000000000        -0.80133251504990899     
  0.10200000000000001        -0.67605505216918960     
  0.10230000000000002        -0.64050631601068486     
  0.10260000000000000        -0.72246057990971890     
  0.10290000000000001        -0.94173882319125923     
  0.10320000000000000         -1.3045340838441315     
  0.10350000000000001         -1.8014604346135890     
  0.10380000000000000         -2.4117998215085290     
  0.10410000000000001         -3.1013008991840159     
  0.10440000000000001         -3.8251242725702679     
  0.10470000000000000         -4.5319079174166559     
  0.10500000000000000         -5.1690227657860950     
  0.10530000000000000         -5.6825464146830669     
  0.10560000000000000         -6.0250393820689103     
  0.10590000000000001         -6.1612413966471067     
  0.10620000000000000         -6.0663198677824228     
  0.10650000000000001         -5.7319661569713487     
  0.10679999999999999         -5.1699070034642691     
  0.10710000000000000         -4.4048962273265992     
  0.10740000000000001         -3.4786645660386348     
  0.10770000000000000         -2.4479872331124009     
  0.10800000000000000         -1.3730896457655877     
  0.10830000000000001        -0.32115209311205195     
  0.10859999999999999         0.64267538222404375     
  0.10890000000000000          1.4643091029164803     
  0.10920000000000001          2.0968412708160473     
  0.10950000000000001          2.5121643749753240     
  0.10979999999999999          2.7015277993101385     
  0.11009999999999999          2.6703075570080976     
  0.11040000000000001          2.4466191615275070     
  0.11070000000000001          2.0717828499659725     
  0.11100000000000000          1.5952372608219427     
  0.11130000000000000          1.0772470697244410     
  0.11160000000000002         0.57449219434455667     
  0.11190000000000001         0.13890571788806216     
  0.11220000000000001        -0.18311489988150847     
  0.11250000000000000        -0.36420934273487932     
  0.11280000000000000        -0.38875642295441659     
  0.11309999999999999        -0.25542782768061179     
  0.11340000000000001          1.7129611535247058E-002
  0.11369999999999998         0.40317985259556033     
  0.11400000000000000         0.86742508223819847     
  0.11430000000000000          1.3634012393176123     
  0.11460000000000002          1.8514452481182968     
  0.11489999999999999          2.2897781424335375     
  0.11520000000000001          2.6393795123138877     
  0.11550000000000001          2.8757721131895098     
  0.11580000000000000          2.9779149250180401     
  0.11609999999999999          2.9336134292201033     
  0.11640000000000002          2.7462265135988471     
  0.11670000000000001          2.4217299275933497     
  0.11700000000000001          1.9753935776856828     
  0.11730000000000000          1.4337326412060500     
  0.11760000000000000         0.82142711671681523     
  0.11789999999999999         0.17076180474676489     
  0.11820000000000001        -0.48232082881628779     
  0.11850000000000001         -1.1071029789397717     
  0.11880000000000000         -1.6692345358567480     
  0.11910000000000000         -2.1388341300240858     
  0.11940000000000002         -2.4945516174993076     
  0.11970000000000001         -2.7163226126504831     
  0.12000000000000001         -2.7943643967297112     
  0.12030000000000000         -2.7293551670998855     
  0.12060000000000000         -2.5252124707280466     
  0.12089999999999999         -2.1989747775255628     
  0.12119999999999999         -1.7740755117047851     
  0.12150000000000001         -1.2758454054399828     
  0.12180000000000001        -0.73995109380827584     
  0.12210000000000000        -0.19971793732456750     
  0.12239999999999999         0.31262613514239013     
  0.12270000000000002         0.76177398631077531     
  0.12300000000000001          1.1229594029834669     
  0.12330000000000001          1.3756384823499461     
  0.12360000000000000          1.5024653551068270     
  0.12390000000000000          1.5016744559484789     
  0.12419999999999999          1.3752184401648297     
  0.12450000000000001          1.1314353126637715     
  0.12480000000000001         0.79366442287933348     
  0.12509999999999999         0.38446627311119730     
  0.12540000000000001         -6.8317702801893643E-002
  0.12570000000000003        -0.52830425277048798     
  0.12600000000000000        -0.96648949264521633     
  0.12630000000000002         -1.3522122274400576     
  0.12659999999999999         -1.6562580548021861     
  0.12690000000000001         -1.8612102933410370     
  0.12719999999999998         -1.9527517400269665     
  0.12750000000000000         -1.9234376616559183     
  0.12780000000000002         -1.7788220813374827     
  0.12809999999999999         -1.5280536989812596     
  0.12840000000000001         -1.1876951117508292     
  0.12869999999999998        -0.78195315082726691     
  0.12900000000000000        -0.33609486270837208     
  0.12930000000000003         0.12165568883842071     
  0.12959999999999999         0.56307368668056923     
  0.12990000000000002         0.96228679208532575     
  0.13019999999999998          1.2977246882272144     
  0.13050000000000000          1.5518846969518569     
  0.13080000000000003          1.7132956049797525     
  0.13109999999999999          1.7786000842610938     
  0.13140000000000002          1.7496439603347385     
  0.13169999999999998          1.6344677499641529     
  0.13200000000000001          1.4491055460199469     
  0.13229999999999997          1.2115167229308945     
  0.13260000000000000         0.94299881845227462     
  0.13290000000000002         0.66797431419102971     
  0.13319999999999999         0.40754183641547814     
  0.13350000000000001         0.18230363362608509     
  0.13380000000000003          9.4325821326690096E-003
  0.13410000000000000        -0.10135525887039989     
  0.13440000000000002        -0.14323253756777110     
  0.13469999999999999        -0.11673691559366803     
  0.13500000000000001         -2.8058797713840636E-002
  0.13529999999999998         0.11235164763956729     
  0.13560000000000000         0.28841912100723782     
  0.13590000000000002         0.48350194150126846     
  0.13619999999999999         0.67869945860088987     
  0.13650000000000001         0.85378641085208284     
  0.13680000000000003         0.99361969655278648     
  0.13710000000000000          1.0824914450775931     
  0.13740000000000002          1.1085400089779824     
  0.13769999999999999          1.0680386672821780     
  0.13800000000000001         0.95694025244847536     
  0.13829999999999998         0.77905002028017178     
  0.13860000000000000         0.54460981644639161     
  0.13890000000000002         0.26281313868428435     
  0.13919999999999999         -4.8662425221887906E-002
  0.13950000000000001        -0.37060693009542273     
  0.13979999999999998        -0.68738175019043102     
  0.14010000000000000        -0.97783642564972406     
  0.14040000000000002         -1.2249895111254960     
  0.14069999999999999         -1.4181915211021219     
  0.14100000000000001         -1.5452323402078121     
  0.14130000000000004         -1.6017952042152053     
  0.14160000000000000         -1.5904776201171416     
  0.14189999999999997         -1.5132777239148201     
  0.14219999999999999         -1.3803881230980768     
  0.14250000000000002         -1.2053224943975644     
  0.14279999999999998        -0.99998440042767012     
  0.14310000000000000        -0.78018114160885443     
  0.14339999999999997        -0.56185592038669663     
  0.14369999999999999        -0.35607652985740756     
  0.14400000000000002        -0.17599775377105850     
  0.14429999999999998         -2.9839826588664783E-002
  0.14460000000000001          7.8197163541811346E-002
  0.14490000000000003         0.14315994063258486     
  0.14520000000000000         0.16697359680273396     
  0.14550000000000002         0.15383682881402358     
  0.14579999999999999         0.10709247550925366     
  0.14610000000000001          3.7307547677650432E-002
  0.14640000000000003         -4.6737564886543820E-002
  0.14670000000000000        -0.13599803462652638     
  0.14699999999999996        -0.21699111798361581     
  0.14729999999999999        -0.28183793342540564     
  0.14760000000000001        -0.32214124486693879     
  0.14789999999999998        -0.32854511426687055     
  0.14820000000000000        -0.30061667098339534     