  -1.4999999999999999E-002     0.0000000000000000     
  -1.4700000000000000E-002     0.0000000000000000     
  -1.4400000000000000E-002     0.0000000000000000     
  -1.4100000000000000E-002     0.0000000000000000     
  -1.3800000000000000E-002     0.0000000000000000     
  -1.3500000000000000E-002     0.0000000000000000     
  -1.3200000000000000E-002     0.0000000000000000     
  -1.2899999999999998E-002     0.0000000000000000     
  -1.2600000000000000E-002     0.0000000000000000     
  -1.2299999999999998E-002     0.0000000000000000     
  -1.2000000000000000E-002     0.0000000000000000     
  -1.1699999999999999E-002     0.0000000000000000     
  -1.1399999999999999E-002     0.0000000000000000     
  -1.1099999999999999E-002     0.0000000000000000     
  -1.0799999999999999E-002     0.0000000000000000     
  -1.0499999999999999E-002     0.0000000000000000     
  -1.0199999999999999E-002     0.0000000000000000     
  -9.8999999999999991E-003     0.0000000000000000     
  -9.5999999999999992E-003     0.0000000000000000     
  -9.2999999999999992E-003     0.0000000000000000     
  -8.9999999999999993E-003     0.0000000000000000     
  -8.6999999999999994E-003     0.0000000000000000     
  -8.3999999999999995E-003     0.0000000000000000     
  -8.0999999999999996E-003     0.0000000000000000     
  -7.7999999999999988E-003     0.0000000000000000     
  -7.4999999999999997E-003     0.0000000000000000     
  -7.1999999999999998E-003     0.0000000000000000     
  -6.8999999999999981E-003     0.0000000000000000     
  -6.5999999999999982E-003     0.0000000000000000     
  -6.3000000000000000E-003     0.0000000000000000     
  -6.0000000000000001E-003     0.0000000000000000     
  -5.6999999999999985E-003     0.0000000000000000     
  -5.3999999999999986E-003     0.0000000000000000     
  -5.1000000000000004E-003     0.0000000000000000     
  -4.7999999999999987E-003     0.0000000000000000     
  -4.5000000000000005E-003     0.0000000000000000     
  -4.1999999999999989E-003     0.0000000000000000     
  -3.8999999999999990E-003     0.0000000000000000     
  -3.5999999999999990E-003     0.0000000000000000     
  -3.2999999999999991E-003     0.0000000000000000     
  -2.9999999999999992E-003     0.0000000000000000     
  -2.6999999999999993E-003     0.0000000000000000     
  -2.3999999999999994E-003     0.0000000000000000     
  -2.0999999999999977E-003     0.0000000000000000     
  -1.7999999999999995E-003     0.0000000000000000     
  -1.4999999999999979E-003     0.0000000000000000     
  -1.1999999999999997E-003     0.0000000000000000     
  -8.9999999999999976E-004     0.0000000000000000     
  -5.9999999999999810E-004     0.0000000000000000     
  -2.9999999999999992E-004     0.0000000000000000     
   0.0000000000000000          0.0000000000000000     
   3.0000000000000165E-004     0.0000000000000000     
   5.9999999999999984E-004     0.0000000000000000     
   9.0000000000000149E-004     0.0000000000000000     
   1.2000000000000031E-003     0.0000000000000000     
   1.5000000000000013E-003     0.0000000000000000     
   1.8000000000000030E-003     0.0000000000000000     
   2.1000000000000012E-003     0.0000000000000000     
   2.3999999999999994E-003     0.0000000000000000     
   2.7000000000000010E-003     0.0000000000000000     
   2.9999999999999992E-003     0.0000000000000000     
   3.3000000000000008E-003     0.0000000000000000     
   3.6000000000000025E-003     0.0000000000000000     
   3.9000000000000007E-003     0.0000000000000000     
   4.2000000000000023E-003     0.0000000000000000     
   4.5000000000000005E-003     0.0000000000000000     
   4.7999999999999987E-003     0.0000000000000000     
   5.1000000000000004E-003     0.0000000000000000     
   5.4000000000000020E-003     0.0000000000000000     
   5.7000000000000037E-003     0.0000000000000000     
   5.9999999999999984E-003     0.0000000000000000     
   6.3000000000000000E-003     0.0000000000000000     
   6.6000000000000017E-003     0.0000000000000000     
   6.9000000000000034E-003     0.0000000000000000     
   7.2000000000000015E-003     0.0000000000000000     
   7.5000000000000032E-003     0.0000000000000000     
   7.8000000000000014E-003     0.0000000000000000     
   8.0999999999999996E-003     0.0000000000000000     
   8.4000000000000012E-003     0.0000000000000000     
   8.7000000000000029E-003     0.0000000000000000     
   9.0000000000000011E-003     0.0000000000000000     
   9.2999999999999992E-003     0.0000000000000000     
   9.6000000000000009E-003     0.0000000000000000     
   9.8999999999999991E-003     0.0000000000000000     
   1.0200000000000001E-002     0.0000000000000000     
   1.0500000000000002E-002     0.0000000000000000     
   1.0800000000000004E-002     0.0000000000000000     
   1.1099999999999999E-002     0.0000000000000000     
   1.1400000000000000E-002     0.0000000000000000     
   1.1700000000000002E-002     0.0000000000000000     
   1.2000000000000004E-002     0.0000000000000000     
   1.2300000000000002E-002     0.0000000000000000     
   1.2600000000000000E-002     0.0000000000000000     
   1.2900000000000002E-002     0.0000000000000000     
   1.3200000000000000E-002     0.0000000000000000     
   1.3500000000000002E-002     0.0000000000000000     
   1.3800000000000003E-002     0.0000000000000000     
   1.4100000000000001E-002     0.0000000000000000     
   1.4400000000000000E-002     0.0000000000000000     
   1.4700000000000001E-002     0.0000000000000000     
   1.4999999999999999E-002     0.0000000000000000     
   1.5300000000000001E-002     0.0000000000000000     
   1.5600000000000003E-002     0.0000000000000000     
   1.5899999999999997E-002     0.0000000000000000     
   1.6199999999999999E-002     0.0000000000000000     
   1.6500000000000001E-002     0.0000000000000000     
   1.6800000000000002E-002     0.0000000000000000     
   1.7100000000000004E-002     0.0000000000000000     
   1.7400000000000006E-002     0.0000000000000000     
   1.7700000000000000E-002     0.0000000000000000     
   1.8000000000000002E-002     0.0000000000000000     
   1.8300000000000004E-002     0.0000000000000000     
   1.8600000000000005E-002     0.0000000000000000     
   1.8900000000000000E-002     0.0000000000000000     
   1.9200000000000002E-002     0.0000000000000000     
   1.9500000000000003E-002     0.0000000000000000     
   1.9799999999999998E-002     0.0000000000000000     
   2.0100000000000000E-002     0.0000000000000000     
   2.0400000000000001E-002     0.0000000000000000     
   2.0700000000000003E-002     0.0000000000000000     
   2.0999999999999998E-002     0.0000000000000000     
   2.1299999999999999E-002     0.0000000000000000     
   2.1600000000000001E-002     0.0000000000000000     
   2.1900000000000003E-002     0.0000000000000000     
   2.2200000000000004E-002     0.0000000000000000     
   2.2500000000000006E-002     0.0000000000000000     
   2.2800000000000001E-002     0.0000000000000000     
   2.3100000000000002E-002     0.0000000000000000     
   2.3400000000000004E-002     0.0000000000000000     
   2.3699999999999999E-002     0.0000000000000000     
   2.4000000000000000E-002     0.0000000000000000     
   2.4300000000000002E-002     0.0000000000000000     
   2.4599999999999997E-002     0.0000000000000000     
   2.4900000000000005E-002     0.0000000000000000     
   2.5200000000000000E-002     0.0000000000000000     
   2.5499999999999995E-002     0.0000000000000000     
   2.5800000000000003E-002     0.0000000000000000     
   2.6099999999999998E-002     0.0000000000000000     
   2.6400000000000007E-002     0.0000000000000000     
   2.6700000000000002E-002     0.0000000000000000     
   2.6999999999999996E-002     0.0000000000000000     
   2.7300000000000005E-002     0.0000000000000000     
   2.7600000000000000E-002     0.0000000000000000     
   2.7900000000000008E-002     0.0000000000000000     
   2.8200000000000003E-002     0.0000000000000000     
   2.8499999999999998E-002     0.0000000000000000     
   2.8800000000000006E-002     0.0000000000000000     
   2.9100000000000001E-002     0.0000000000000000     
   2.9400000000000003E-002     0.0000000000000000     
   2.9700000000000004E-002     0.0000000000000000     
   3.0000000000000006E-002     0.0000000000000000     
   3.0300000000000001E-002     0.0000000000000000     
   3.0600000000000002E-002     0.0000000000000000     
   3.0900000000000004E-002     0.0000000000000000     
   3.1199999999999999E-002     0.0000000000000000     
   3.1500000000000007E-002     0.0000000000000000     
   3.1800000000000002E-002     0.0000000000000000     
   3.2099999999999997E-002     0.0000000000000000     
   3.2400000000000005E-002     0.0000000000000000     
   3.2700000000000000E-002     0.0000000000000000     
   3.3000000000000002E-002     9.5897479336600602E-044
   3.3300000000000003E-002    -6.5416331922130296E-043
   3.3599999999999998E-002     1.2902824578479560E-036
   3.3900000000000000E-002     1.4269644160927973E-036
   3.4200000000000001E-002     6.3017772296009960E-036
   3.4500000000000003E-002     1.0159592266927550E-034
   3.4799999999999998E-002    -1.4281341762801818E-033
   3.5099999999999999E-002     6.7187544975086460E-033
   3.5400000000000001E-002    -1.8214386836397996E-032
   3.5699999999999996E-002     4.6708967546060788E-032
   3.6000000000000004E-002    -1.0415693763344509E-031
   3.6299999999999999E-002     1.8165641239531631E-031
   3.6600000000000008E-002    -1.5844933372815379E-031
   3.6900000000000002E-002    -4.6875747444904479E-031
   3.7199999999999997E-002     3.1361451469380504E-030
   3.7500000000000006E-002    -1.0950691989123845E-029
   3.7800000000000000E-002     2.8475002292971168E-029
   3.8100000000000009E-002    -5.6514567804297564E-029
   3.8400000000000004E-002     7.2358415175697482E-029
   3.8699999999999998E-002     1.8973012752699759E-029
   3.9000000000000007E-002    -4.6528933710541688E-028
   3.9300000000000002E-002     1.7124093321977523E-027
   3.9600000000000003E-002    -4.1523730244468685E-027
   3.9900000000000005E-002     6.9792063411744076E-027
   4.0200000000000000E-002    -5.3710765548717871E-027
   4.0500000000000001E-002    -1.3760289014554350E-026
   4.0800000000000003E-002     7.2858802160651216E-026
   4.1100000000000005E-002    -1.8755770249577729E-025
   4.1399999999999999E-002     3.0881451385527844E-025
   4.1700000000000008E-002    -2.0973721271126601E-025
   4.2000000000000003E-002    -6.1636615488770990E-025
   4.2299999999999997E-002     2.7849276488072703E-024
   4.2600000000000006E-002    -6.0792501277305741E-024
   4.2900000000000001E-002     7.3605466066581629E-024
   4.3200000000000002E-002     1.9466646494352797E-024
   4.3500000000000004E-002    -3.6615401136778944E-023
   4.3799999999999999E-002     1.1998865043202930E-022
   4.4100000000000000E-002    -3.3134988049878656E-022
   4.4400000000000002E-002     1.0904496355791130E-021
   4.4700000000000004E-002    -4.2917938047237501E-021
   4.4999999999999998E-002     1.6859405664557221E-020
   4.5300000000000000E-002    -5.9822108607309774E-020
   4.5600000000000002E-002     1.8569431020342398E-019
   4.5899999999999996E-002    -4.9053159817626748E-019
   4.6200000000000005E-002     1.0191398611204733E-018
   4.6500000000000000E-002    -1.1448343022707778E-018
   4.6799999999999994E-002    -2.8250365450032349E-018
   4.7100000000000003E-002     2.4328988348713856E-017
   4.7399999999999998E-002    -9.8594315931229397E-017
   4.7700000000000006E-002     2.8257181247173530E-016
   4.8000000000000001E-002    -5.5073865303550846E-016
   4.8300000000000010E-002     3.1850679354281077E-016
   4.8600000000000004E-002     2.8036205460197344E-015
   4.8899999999999999E-002    -1.4451332863781374E-014
   4.9200000000000008E-002     3.9434603853715091E-014
   4.9500000000000002E-002    -5.3959776585350740E-014
   4.9800000000000011E-002    -6.9919907291355682E-014
   5.0100000000000006E-002     6.3166882673103164E-013
   5.0400000000000000E-002    -1.7711558956002586E-012
   5.0700000000000009E-002     1.8340420715342769E-012
   5.1000000000000004E-002     5.5467507348393792E-012
   5.1299999999999998E-002    -2.8754516418446461E-011
   5.1600000000000007E-002     4.9487042614731467E-011
   5.1900000000000002E-002     3.8743289395044063E-011
   5.2200000000000010E-002    -3.9519492357838333E-010
   5.2500000000000005E-002     7.2758600495397821E-010
   5.2800000000000000E-002     6.2973825912933723E-010
   5.3099999999999994E-002    -5.3475453505061989E-009
   5.3400000000000003E-002     6.4795986346570894E-009
   5.3699999999999998E-002     1.7835669228391474E-008
   5.4000000000000006E-002    -5.9492793312300041E-008
   5.4300000000000001E-002    -2.0457758662251544E-008
   5.4599999999999996E-002     3.1085342487660333E-007
   5.4900000000000004E-002    -1.3523721357436583E-007
   5.5199999999999999E-002    -1.4740841713250795E-006
   5.5499999999999994E-002     1.2078515620992919E-006
   5.5800000000000002E-002     1.1881512099204874E-005
   5.6099999999999997E-002     2.3336040639793561E-005
   5.6400000000000006E-002     2.6360747039811411E-005
   5.6700000000000000E-002     2.7149424038719079E-005
   5.6999999999999995E-002     3.9068039171449747E-005
   5.7300000000000004E-002     6.3949154883644302E-005
   5.7599999999999998E-002     9.8050811090959395E-005
   5.7900000000000007E-002     1.4678537084960775E-004
   5.8200000000000002E-002     2.2003883818942261E-004
   5.8499999999999996E-002     3.2149161795323370E-004
   5.8800000000000005E-002     4.5412952980994277E-004
   5.9100000000000000E-002     6.3082592548848956E-004
   5.9400000000000008E-002     8.6700845478140758E-004
   5.9700000000000003E-002     1.1697007446808561E-003
   6.0000000000000012E-002     1.5449938192208070E-003
   6.0300000000000006E-002     1.9987609483163495E-003
   6.0600000000000001E-002     2.5212426859988965E-003
   6.0900000000000010E-002     3.0885443216653753E-003
   6.1200000000000004E-002     3.6678530339527477E-003
   6.1500000000000013E-002     4.2012803732697024E-003
   6.1800000000000008E-002     4.5948405253209961E-003
   6.2100000000000002E-002     4.7218212348545284E-003
   6.2399999999999997E-002     4.4227004510429364E-003
   6.2700000000000006E-002     3.5028713389141665E-003
   6.3000000000000000E-002     1.7298229338176228E-003
   6.3300000000000009E-002    -1.1552513889809717E-003
   6.3600000000000004E-002    -5.4040122157279795E-003
   6.3899999999999998E-002    -1.1231013447740084E-002
   6.4199999999999993E-002    -1.8784640148758906E-002
   6.4500000000000002E-002    -2.8101931948657583E-002
   6.4800000000000010E-002    -3.9062350561343731E-002
   6.5100000000000005E-002    -5.1340773142723208E-002
   6.5400000000000000E-002    -6.4366615610854674E-002
   6.5700000000000008E-002    -7.7303140520448899E-002
   6.5999999999999989E-002    -8.9037924046925954E-002
   6.6299999999999998E-002    -9.8217449029120593E-002
   6.6600000000000006E-002   -0.10333406814813104     
   6.6900000000000001E-002   -0.10283412674910369     
   6.7199999999999996E-002    -9.5226659363043906E-002
   6.7500000000000004E-002    -7.9264289797789697E-002
   6.7800000000000013E-002    -5.4140470360877144E-002
   6.8099999999999994E-002    -1.9651537571059956E-002
   6.8400000000000002E-002     2.3685864829349961E-002
   6.8700000000000011E-002     7.4503622136073241E-002
   6.8999999999999992E-002    0.13057263054545468     
   6.9300000000000000E-002    0.18888142502241087     
   6.9600000000000009E-002    0.24583558475492254     
   6.9900000000000004E-002    0.29747122208950122     
   7.0199999999999999E-002    0.33978554244796805     
   7.0500000000000007E-002    0.36915477718028089     
   7.0800000000000016E-002    0.38269596885413626     
   7.1099999999999997E-002    0.37857967213381555     
   7.1400000000000005E-002    0.35631030420085213     
   7.1700000000000000E-002    0.31686791441549750     
   7.1999999999999995E-002    0.26268645843001726     
   7.2300000000000003E-002    0.19748800784718118     
   7.2600000000000012E-002    0.12592333424056096     
   7.2900000000000006E-002     5.3174171079099206E-002
   7.3200000000000001E-002    -1.5578384275768435E-002
   7.3499999999999996E-002    -7.5755990133727732E-002
   7.3800000000000004E-002   -0.12382223310207371     
   7.4099999999999999E-002   -0.15763023308317184     
   7.4400000000000008E-002   -0.17674179162147211     
   7.4700000000000003E-002   -0.18240281714632656     
   7.5000000000000011E-002   -0.17738117053886376     
   7.5299999999999992E-002   -0.16566079640477849     
   7.5600000000000001E-002   -0.15190470016958663     
   7.5900000000000009E-002   -0.14088512768449687     
   7.6200000000000004E-002   -0.13688419579028102     
   7.6499999999999999E-002   -0.14312228380195949     
   7.6800000000000007E-002   -0.16133086194083884     
   7.7099999999999988E-002   -0.19153511315676158     
   7.7399999999999997E-002   -0.23194843293688713     
   7.7700000000000005E-002   -0.27914145318260686     
   7.8000000000000014E-002   -0.32842093399671651     
   7.8299999999999995E-002   -0.37428384679695281     
   7.8600000000000003E-002   -0.41105341547073948     
   7.8900000000000012E-002   -0.43351396541569504     
   7.9199999999999993E-002   -0.43740456923337634     
   7.9500000000000001E-002   -0.41995688922811436     
   7.9800000000000010E-002   -0.38029655505578480     
   8.0100000000000018E-002   -0.31943768014414420     
   8.0399999999999999E-002   -0.24026936119730280     
   8.0700000000000008E-002   -0.14737525494907960     
   8.1000000000000003E-002    -4.6578895342699191E-002
   8.1299999999999997E-002     5.5515705595709022E-002
   8.1600000000000006E-002    0.15210743071944832     
   8.1900000000000014E-002    0.23669214300847013     
   8.2199999999999995E-002    0.30351951422310675     
   8.2500000000000004E-002    0.34813218985162897     
   8.2799999999999999E-002    0.36758294374534123     
   8.3100000000000007E-002    0.36051404171375451     
   8.3400000000000002E-002    0.32735335567432838     
   8.3700000000000011E-002    0.27018692896072893     
   8.4000000000000005E-002    0.19247427472820811     
   8.4300000000000000E-002     9.8936095666134594E-002
   8.4599999999999995E-002    -4.7748509058474732E-003
   8.4900000000000003E-002   -0.11240478424896246     
   8.5199999999999998E-002   -0.21741831032921685     
   8.5500000000000007E-002   -0.31337624441274159     
   8.5800000000000001E-002   -0.39417934010368300     
   8.6100000000000010E-002   -0.45442491324897510     
   8.6399999999999991E-002   -0.48972448247631478     
   8.6699999999999999E-002   -0.49682482629257407     
   8.7000000000000008E-002   -0.47393253034963073     
   8.7300000000000003E-002   -0.42084976681457253     
   8.7599999999999997E-002   -0.33897089692586718     
   8.7900000000000006E-002   -0.23136094049636896     
   8.8200000000000014E-002   -0.10267280740789179     
   8.8499999999999995E-002     4.1132967111699816E-002
   8.8800000000000004E-002    0.19295510438844096     
   8.9100000000000013E-002    0.34501570123922926     
   8.9399999999999993E-002    0.48925897018716979     
   8.9700000000000002E-002    0.61784517198331557     
   9.0000000000000011E-002    0.72365909160017539     
   9.0299999999999991E-002    0.80069046493034624     
   9.0600000000000000E-002    0.84455858905107084     
   9.0900000000000009E-002    0.85289203355506393     
   9.1200000000000017E-002    0.82526367158924063     
   9.1499999999999998E-002    0.76346730492852766     
   9.1800000000000007E-002    0.67150908089758587     
   9.2100000000000001E-002    0.55514621213182747     
   9.2399999999999996E-002    0.42170366236083734     
   9.2700000000000005E-002    0.27960240550511151     
   9.3000000000000013E-002    0.13765257429274244     
   9.3300000000000008E-002     4.6783000305811052E-003
   9.3600000000000003E-002   -0.11130245733130451     
   9.3899999999999997E-002   -0.20356459794153883     
   9.4200000000000006E-002   -0.26706299014349349     
   9.4500000000000001E-002   -0.29906526015186596     
   9.4800000000000009E-002   -0.29911896397754401     
   9.5100000000000004E-002   -0.26906591501448540     
   9.5399999999999999E-002   -0.21321819627059185     
   9.5699999999999993E-002   -0.13755112862468588     
   9.6000000000000002E-002    -4.9420975764715255E-002
   9.6300000000000011E-002     4.2817870583864652E-002
   9.6600000000000005E-002    0.13092279215571506     
   9.6900000000000000E-002    0.20714786367766777     
   9.7200000000000009E-002    0.26481958906006353     
   9.7499999999999989E-002    0.29902487662598909     
   9.7799999999999998E-002    0.30673524421572590     
   9.8100000000000007E-002    0.28708639470683744     
   9.8400000000000015E-002    0.24125391044561167     
   9.8699999999999996E-002    0.17212085317527032     
   9.9000000000000005E-002     8.4097698338830018E-002
   9.9300000000000013E-002    -1.7518254651543788E-002
   9.9599999999999994E-002   -0.12705781811318187     
   9.9900000000000003E-002   -0.23888262739644375     
  0.10020000000000001        -0.34790861123600070     
  0.10049999999999999        -0.44981172094604793     
  0.10080000000000000        -0.54138528623385096     
  0.10110000000000001        -0.62037741385420120     
  0.10140000000000000        -0.68541704799608161     
  0.10170000000000000        -0.73609065158451947     
  0.10200000000000001        -0.77242218571977006     
  0.10230000000000002        -0.79469429562973282     
  0.10260000000000000        -0.80330055073146800     
  0.10290000000000001        -0.79839872455235761     
  0.10320000000000000        -0.78004818330996295     
  0.10350000000000001        -0.74811535296007203     
  0.10380000000000000        -0.70216482161861737     
  0.10410000000000001        -0.64197021080161742     
  0.10440000000000001        -0.56748032012318339     
  0.10470000000000000        -0.47901904123388878     
  0.10500000000000000        -0.37757861261168124     
  0.10530000000000000        -0.26476514102280019     
  0.10560000000000000        -0.14309084300032854     
  0.10590000000000001         -1.5822351079222856E-002
  0.10620000000000000         0.11323249203515529     
  0.10650000000000001         0.23977032043290381     
  0.10679999999999999         0.35934802510995145     
  0.10710000000000000         0.46765756118917085     
  0.10740000000000001         0.56076466449961559     
  0.10770000000000000         0.63552372976165672     
  0.10800000000000000         0.68971508003087389     
  0.10830000000000001         0.72212665484267102     
  0.10859999999999999         0.73274891748441584     
  0.10890000000000000         0.72266810302029039     
  0.10920000000000001         0.69386278759746756     
  0.10950000000000001         0.64903860488523668     
  0.10979999999999999         0.59143596136416798     
  0.11009999999999999         0.52435653710558028     
  0.11040000000000001         0.45092719177889007     
  0.11070000000000001         0.37400549120855975     
  0.11100000000000000         0.29573812648256553     
  0.11130000000000000         0.21763582200427783     
  0.11160000000000002         0.14067017813187063     
  0.11190000000000001          6.5168029513878900E-002
  0.11220000000000001         -8.7104904433032773E-003
  0.11250000000000000         -8.0838716317544829E-002
  0.11280000000000000        -0.15093800194165402     
  0.11309999999999999        -0.21797220078261270     
  0.11340000000000001        -0.28020643767666231     
  0.11369999999999998        -0.33509829141552205     
  0.11400000000000000        -0.37924244446770666     
  0.11430000000000000        -0.40867703565358243     
  0.11460000000000002        -0.41901668311344648     
  0.11489999999999999        -0.40618112115710281     
  0.11520000000000001        -0.36691584671373934     
  0.11550000000000001        -0.29880803406646966     
  0.11580000000000000        -0.20123690078442244     
  0.11609999999999999         -7.5659281177448509E-002
  0.11640000000000002          7.4623353216212843E-002
  0.11670000000000001         0.24403193334077983     
  0.11700000000000001         0.42534690623658861     
  0.11730000000000000         0.61009775901624286     
  0.11760000000000000         0.78891991677501827     
  0.11789999999999999         0.95269303438764308     
  0.11820000000000001          1.0927209731076886     
  0.11850000000000001          1.2014728650583235     
  0.11880000000000000          1.2734769441544576     
  0.11910000000000000          1.3048221921671814     
  0.11940000000000002          1.2938262083987704     
  0.11970000000000001          1.2409262523892770     
  0.12000000000000001          1.1479438422061958     
  0.12030000000000000          1.0182907475783776     
  0.12060000000000000         0.85638087112284211     
  0.12089999999999999         0.66697805457288195     
  0.12119999999999999         0.45544445076584300     
  0.12150000000000001         0.22713972419744802     
  0.12180000000000001         -1.2652779587031262E-002
  0.12210000000000000        -0.25832715362411190     
  0.12239999999999999        -0.50445210438282817     
  0.12270000000000002        -0.74540060037053268     
  0.12300000000000001        -0.97500186232836594     
  0.12330000000000001         -1.1872346289470757     
  0.12360000000000000         -1.3758203853688025     
  0.12390000000000000         -1.5343971107861083     
  0.12419999999999999         -1.6573085627539124     
  0.12450000000000001         -1.7394987177099608     
  0.12480000000000001         -1.7768654649361877     
  0.12509999999999999         -1.7670110286945031     
  0.12540000000000001         -1.7090959372330188     
  0.12570000000000003         -1.6041863985403095     
  0.12600000000000000         -1.4554061727253642     
  0.12630000000000002         -1.2674538940023778     
  0.12659999999999999         -1.0467855798659782     
  0.12690000000000001        -0.80122428022683778     
  0.12719999999999998        -0.53927539908133626     
  0.12750000000000000        -0.27015479791851621     
  0.12780000000000002         -3.2753296702720540E-003
  0.12809999999999999         0.25241193217895791     
  0.12840000000000001         0.48829802632043923     
  0.12869999999999998         0.69669001787515938     
  0.12900000000000000         0.87097083762903038     
  0.12930000000000003          1.0054691932810520     
  0.12959999999999999          1.0962407474121825     
  0.12990000000000002          1.1406109205099064     
  0.13019999999999998          1.1373966797334838     
  0.13050000000000000          1.0874216419510645     
  0.13080000000000003         0.99287210567266115     
  0.13109999999999999         0.85779546468728740     
  0.13140000000000002         0.68812923555145611     
  0.13169999999999998         0.49095415211667215     
  0.13200000000000001         0.27508618821295827     
  0.13229999999999997          5.0424755064359790E-002
  0.13260000000000000        -0.17283965673084534     
  0.13290000000000002        -0.38380956379109976     
  0.13319999999999999        -0.57204138677945859     
  0.13350000000000001        -0.72797422790329758     
  0.13380000000000003        -0.84316723526304205     
  0.13410000000000000        -0.91136359009784307     
  0.13440000000000002        -0.92834781367599284     
  0.13469999999999999        -0.89254193273603011     
  0.13500000000000001        -0.80550913858813378     
  0.13529999999999998        -0.67135166140862224     
  0.13560000000000000        -0.49711202824775891     
  0.13590000000000002        -0.29240667348334271     
  0.13619999999999999         -6.8547716764444100E-002
  0.13650000000000001         0.16146178353397553     
  0.13680000000000003         0.38410582616369510     
  0.13710000000000000         0.58619599700495295     
  0.13740000000000002         0.75538222890273732     
  0.13769999999999999         0.88138912818376902     
  0.13800000000000001         0.95640705602301146     
  0.13829999999999998         0.97579394324724689     
  0.13860000000000000         0.93863235505580411     
  0.13890000000000002         0.84741501735223690     
  0.13919999999999999         0.70833813088669428     
  0.13950000000000001         0.53088270827328610     
  0.13979999999999998         0.32672890543008298     
  0.14010000000000000         0.10939924273714610     
  0.14040000000000002        -0.10684383472251208     
  0.14069999999999999        -0.30819719522932926     
  0.14100000000000001        -0.48200710824925730     
  0.14130000000000004        -0.61788164559983194     
  0.14160000000000000        -0.70814352056514562     
  0.14189999999999997        -0.74838041002586009     
  0.14219999999999999        -0.73767446199410924     
  0.14250000000000002        -0.67807017545678694     
  0.14279999999999998        -0.57469921222149045     
  0.14310000000000000        -0.43495433623402285     
  0.14339999999999997        -0.26769661239274151     
  0.14369999999999999         -8.2988325216002509E-002
  0.14400000000000002         0.10924396783538463     
  0.14429999999999998         0.29931640457050440     
  0.14460000000000001         0.47829123891454617     
  0.14490000000000003         0.63879471324021830     
  0.14520000000000000         0.77455036920616349     
  0.14550000000000002         0.88072495567756914     
  0.14579999999999999         0.95406620479124904     
  0.14610000000000001         0.99244104526121513     
  0.14640000000000003         0.99512188314734118     
  0.14670000000000000         0.96229396965441139     
  0.14699999999999996         0.89519970404176441     
  0.14729999999999999         0.79637144910981594     
  0.14760000000000001         0.66900329856302354     
  0.14789999999999998         0.51735966664202737     
  0.14820000000000000         0.34677907300444305     