  -1.4999999999999999E-002     0.0000000000000000     
  -1.4700000000000000E-002     1.0813205938636464E-006
  -1.4400000000000000E-002    -1.2829391907417497E-005
  -1.4100000000000000E-002    -1.0976191361705983E-005
  -1.3800000000000000E-002     1.9341455270125008E-005
  -1.3500000000000000E-002     5.3276233934542971E-005
  -1.3200000000000000E-002     1.7841158278862077E-005
  -1.2899999999999998E-002    -4.6200397740875925E-005
  -1.2600000000000000E-002    -8.1722034596002171E-005
  -1.2299999999999998E-002    -5.2457925242415903E-005
  -1.2000000000000000E-002     7.5969217021429897E-005
  -1.1699999999999999E-002     1.3495403609695245E-004
  -1.1399999999999999E-002     1.2988628915239935E-004
  -1.1099999999999999E-002     5.6457316189596524E-005
  -1.0799999999999999E-002    -9.3007592385993489E-005
  -1.0499999999999999E-002    -3.0881500463081303E-004
  -1.0199999999999999E-002    -6.0137437847970895E-004
  -9.8999999999999991E-003    -1.2532173260238180E-003
  -9.5999999999999992E-003    -2.3286553168856642E-003
  -9.2999999999999992E-003    -3.9378028555596654E-003
  -8.9999999999999993E-003    -6.3521838236063055E-003
  -8.6999999999999994E-003    -9.9909480291270041E-003
  -8.3999999999999995E-003    -1.5597926397172703E-002
  -8.0999999999999996E-003    -2.4016496586706178E-002
  -7.7999999999999988E-003    -3.7013519384899662E-002
  -7.4999999999999997E-003    -5.5748356918233585E-002
  -7.1999999999999998E-003    -8.3189644797328183E-002
  -6.8999999999999981E-003   -0.12201349396921490     
  -6.5999999999999982E-003   -0.17668839737400488     
  -6.3000000000000000E-003   -0.25198852735568411     
  -6.0000000000000001E-003   -0.35427896221644356     
  -5.6999999999999985E-003   -0.49061323231092846     
  -5.3999999999999986E-003   -0.66929439829467863     
  -5.1000000000000004E-003   -0.89943657762092000     
  -4.7999999999999987E-003    -1.1901605853152168     
  -4.5000000000000005E-003    -1.5508348231883322     
  -4.1999999999999989E-003    -1.9884457511128919     
  -3.8999999999999990E-003    -2.5077957181435186     
  -3.5999999999999990E-003    -3.1089785069695561     
  -3.2999999999999991E-003    -3.7859650328071313     
  -2.9999999999999992E-003    -4.5244406331833158     
  -2.6999999999999993E-003    -5.2996806164018970     
  -2.3999999999999994E-003    -6.0754259177950320     
  -2.0999999999999977E-003    -6.8025909294993054     
  -1.7999999999999995E-003    -7.4192630868170157     
  -1.4999999999999979E-003    -7.8516545178304042     
  -1.1999999999999997E-003    -8.0172466945827594     
  -8.9999999999999976E-004    -7.8290932980986998     
  -5.9999999999999810E-004    -7.2022716984182056     
  -2.9999999999999992E-004    -6.0612565692806646     
   0.0000000000000000         -4.3486835189855260     
   3.0000000000000165E-004    -2.0351188995929359     
   5.9999999999999984E-004    0.87254852432399321     
   9.0000000000000149E-004     4.3234740352533816     
   1.2000000000000031E-003     8.2191246970223464     
   1.5000000000000013E-003     12.410922345457013     
   1.8000000000000030E-003     16.705535990585808     
   2.1000000000000012E-003     20.870912748608273     
   2.3999999999999994E-003     24.652586023463947     
   2.7000000000000010E-003     27.786391850277859     
   2.9999999999999992E-003     30.023566784741870     
   3.3000000000000008E-003     31.147172419208459     
   3.6000000000000025E-003     30.995956184948994     
   3.9000000000000007E-003     29.478777241065085     
   4.2000000000000023E-003     26.588075264499153     
   4.5000000000000005E-003     22.405221930115012     
   4.7999999999999987E-003     17.096163634290548     
   5.1000000000000004E-003     10.906011201303487     
   5.4000000000000020E-003     4.1361818895773625     
   5.7000000000000037E-003    -2.8719048045913667     
   5.9999999999999984E-003    -9.7683714546985598     
   6.3000000000000000E-003    -16.214898735278446     
   6.6000000000000017E-003    -21.914676162202767     
   6.9000000000000034E-003    -26.626191689903948     
   7.2000000000000015E-003    -30.182946367629690     
   7.5000000000000032E-003    -32.494301136737704     
   7.8000000000000014E-003    -33.548021201898969     
   8.0999999999999996E-003    -33.401623612522137     
   8.4000000000000012E-003    -32.168576657976104     
   8.7000000000000029E-003    -30.003370240677491     
   9.0000000000000011E-003    -27.084764016625964     
   9.2999999999999992E-003    -23.597105055665914     
   9.6000000000000009E-003    -19.721080010596253     
   9.8999999999999991E-003    -15.618175641587673     
   1.0200000000000001E-002    -11.431618536582299     
   1.0500000000000002E-002    -7.2787655309439181     
   1.0800000000000004E-002    -3.2574064978083568     
   1.1099999999999999E-002    0.55217654803801519     
   1.1400000000000000E-002     4.0832368055036774     
   1.1700000000000002E-002     7.2750410662748344     
   1.2000000000000004E-002     10.073801513581678     
   1.2300000000000002E-002     12.427114350210720     
   1.2600000000000000E-002     14.289228437759382     
   1.2900000000000002E-002     15.619917628741764     
   1.3200000000000000E-002     16.391816865131798     
   1.3500000000000002E-002     16.593020662546945     
   1.3800000000000003E-002     16.232767067668995     
   1.4100000000000001E-002     15.342395557280316     
   1.4400000000000000E-002     13.979044946056613     
   1.4700000000000001E-002     12.221532340877276     
   1.4999999999999999E-002     10.168792058348107     
   1.5300000000000001E-002     7.9324230690239155     
   1.5600000000000003E-002     5.6318960417078765     
   1.5899999999999997E-002     3.3840049184847052     
   1.6199999999999999E-002     1.2988328352096248     
   1.6500000000000001E-002   -0.53151764861886686     
   1.6800000000000002E-002    -2.0344883437420629     
   1.7100000000000004E-002    -3.1632687715136880     
   1.7400000000000006E-002    -3.8960798515086594     
   1.7700000000000000E-002    -4.2384294796750668     
   1.8000000000000002E-002    -4.2163592426305643     
   1.8300000000000004E-002    -3.8795392430371241     
   1.8600000000000005E-002    -3.2884659101907090     
   1.8900000000000000E-002    -2.5169099076363786     
   1.9200000000000002E-002    -1.6394377573872081     
   1.9500000000000003E-002   -0.73352607645819323     
   1.9799999999999998E-002    0.13169816195933950     
   2.0100000000000000E-002    0.89396350290424231     
   2.0400000000000001E-002     1.5031701521739238     
   2.0700000000000003E-002     1.9233801309064549     
   2.0999999999999998E-002     2.1335186259940517     
   2.1299999999999999E-002     2.1263568409516860     
   2.1600000000000001E-002     1.9116793521708395     
   2.1900000000000003E-002     1.5096265580619088     
   2.2200000000000004E-002    0.95475144278170809     
   2.2500000000000006E-002    0.28857339458152653     
   2.2800000000000001E-002   -0.43996435702092374     
   2.3100000000000002E-002    -1.1800233093465891     
   2.3400000000000004E-002    -1.8809499757833186     
   2.3699999999999999E-002    -2.4955902763613014     
   2.4000000000000000E-002    -2.9851688312118760     
   2.4300000000000002E-002    -3.3180849564966155     
   2.4599999999999997E-002    -3.4769674861616529     
   2.4900000000000005E-002    -3.4542966345517927     
   2.5200000000000000E-002    -3.2567693290877058     
   2.5499999999999995E-002    -2.9012116187717130     
   2.5800000000000003E-002    -2.4149707471768154     
   2.6099999999999998E-002    -1.8336271520712830     
   2.6400000000000007E-002    -1.1952578302052612     
   2.6700000000000002E-002   -0.54166485593720415     
   2.6999999999999996E-002     8.7112889965775847E-002
   2.7300000000000005E-002    0.65733893016856315     
   2.7600000000000000E-002     1.1361485162636020     
   2.7900000000000008E-002     1.5057152140131529     
   2.8200000000000003E-002     1.7484145673820364     
   2.8499999999999998E-002     1.8639610228606283     
   2.8800000000000006E-002     1.8523012724610854     
   2.9100000000000001E-002     1.7278283082636039     
   2.9400000000000003E-002     1.5057139359076790     
   2.9700000000000004E-002     1.2089084225801259     
   3.0000000000000006E-002    0.86310802997672531     
   3.0300000000000001E-002    0.49311009517125526     
   3.0600000000000002E-002    0.12744982577305741     
   3.0900000000000004E-002   -0.21155508131091227     
   3.1199999999999999E-002   -0.50023937360947834     
   3.1500000000000007E-002   -0.72266087907174659     
   3.1800000000000002E-002   -0.86504156058672654     
   3.2099999999999997E-002   -0.92007923356015453     
   3.2400000000000005E-002   -0.88651919227297049     
   3.2700000000000000E-002   -0.76793096034324548     
   3.3000000000000002E-002   -0.57431926707592473     
   3.3300000000000003E-002   -0.31987950943338139     
   3.3599999999999998E-002    -2.2784096731178066E-002
   3.3900000000000000E-002    0.29618191689980478     
   3.4200000000000001E-002    0.61461350846641782     
   3.4500000000000003E-002    0.91020257040292973     
   3.4799999999999998E-002     1.1631941912354249     
   3.5099999999999999E-002     1.3555967513268758     
   3.5400000000000001E-002     1.4753740838136582     
   3.5699999999999996E-002     1.5154258122055997     
   3.6000000000000004E-002     1.4737104561421281     
   3.6299999999999999E-002     1.3560395683200439     
   3.6600000000000008E-002     1.1722455791092909     
   3.6900000000000002E-002    0.93685371712211052     
   3.7199999999999997E-002    0.66873287215839172     
   3.7500000000000006E-002    0.38625317896181577     
   3.7800000000000000E-002    0.11001863091956002     
   3.8100000000000009E-002   -0.14504997749551715     
   3.8400000000000004E-002   -0.36271032708109557     
   3.8699999999999998E-002   -0.53743768900584565     
   3.9000000000000007E-002   -0.66348460371418461     
   3.9300000000000002E-002   -0.74475627308557180     
   3.9600000000000003E-002   -0.78559477172748293     
   3.9900000000000005E-002   -0.79749381420988497     
   4.0200000000000000E-002   -0.79053878422178814     
   4.0500000000000001E-002   -0.77665228312025580     
   4.0800000000000003E-002   -0.76574553171519621     
   4.1100000000000005E-002   -0.76319150899370081     
   4.1399999999999999E-002   -0.77275407474010038     
   4.1700000000000008E-002   -0.79150875651688468     
   4.2000000000000003E-002   -0.81506436835214013     
   4.2299999999999997E-002   -0.83402186487033481     
   4.2600000000000006E-002   -0.83998864312439614     
   4.2900000000000001E-002   -0.82253250021246704     
   4.3200000000000002E-002   -0.77557332007070023     
   4.3500000000000004E-002   -0.69453387468883820     
   4.3799999999999999E-002   -0.58066597509172946     
   4.4100000000000000E-002   -0.43849535898349146     
   4.4400000000000002E-002   -0.27742783887375067     
   4.4700000000000004E-002   -0.10888303090929147     
   4.4999999999999998E-002     5.3304656442403980E-002
   4.5300000000000000E-002    0.19686344258226127     
   4.5600000000000002E-002    0.31020619776521896     
   4.5899999999999996E-002    0.38634358137784403     
   4.6200000000000005E-002    0.42256277118595531     
   4.6500000000000000E-002    0.42042195918687136     
   4.6799999999999994E-002    0.38557802531909352     
   4.7100000000000003E-002    0.32792714139020801     
   4.7399999999999998E-002    0.25768864072694858     
   4.7700000000000006E-002    0.18757487700669667     
   4.8000000000000001E-002    0.12632411659706611     
   4.8300000000000010E-002     8.2680275924767482E-002
   4.8600000000000004E-002     6.0093500747243900E-002
   4.8899999999999999E-002     5.9874205014219195E-002
   4.9200000000000008E-002     7.8350470516894227E-002
   4.9500000000000002E-002    0.11105788109083647     
   4.9800000000000011E-002    0.15019157055416330     
   5.0100000000000006E-002    0.18890977318399249     
   5.0400000000000000E-002    0.22156685362664225     
   5.0700000000000009E-002    0.24271531113434130     
   5.1000000000000004E-002    0.25161666988167752     
   5.1299999999999998E-002    0.24792726976847734     
   5.1600000000000007E-002    0.23579662517706224     
   5.1900000000000002E-002    0.21945217716252710     
   5.2200000000000010E-002    0.20552148778210738     
   5.2500000000000005E-002    0.19862128991850367     
   5.2800000000000000E-002    0.20513146072576141     
   5.3099999999999994E-002    0.22654260747585026     
   5.3400000000000003E-002    0.26582265322090498     
   5.3699999999999998E-002    0.32071565495450094     
   5.4000000000000006E-002    0.38888110337672954     
   5.4300000000000001E-002    0.46528117872042496     
   5.4599999999999996E-002    0.54382702576527431     
   5.4900000000000004E-002    0.61823648753783833     
   5.5199999999999999E-002    0.68126847983996353     
   5.5499999999999994E-002    0.72722420408268751     
   5.5800000000000002E-002    0.74982102459405575     
   5.6099999999999997E-002    0.74620459227495439     
   5.6400000000000006E-002    0.71221812978719634     
   5.6700000000000000E-002    0.64780459655790301     
   5.6999999999999995E-002    0.55365819539273242     
   5.7300000000000004E-002    0.43194925992564492     
   5.7599999999999998E-002    0.28758680477353821     
   5.7900000000000007E-002    0.12603217446316295     
   5.8200000000000002E-002    -4.5094776880166193E-002
   5.8499999999999996E-002   -0.21838100916898565     
   5.8800000000000005E-002   -0.38417362844045788     
   5.9100000000000000E-002   -0.53559522452953701     
   5.9400000000000008E-002   -0.66422730019667020     
   5.9700000000000003E-002   -0.76463256335189445     
   6.0000000000000012E-002   -0.83237826908673440     
   6.0300000000000006E-002   -0.86621809355238022     
   6.0600000000000001E-002   -0.86611366502591947     
   6.0900000000000010E-002   -0.83503995842690926     
   6.1200000000000004E-002   -0.77781153856104557     
   6.1500000000000013E-002   -0.69943507065745447     
   6.1800000000000008E-002   -0.60812339421450656     
   6.2100000000000002E-002   -0.50968077793455135     
   6.2399999999999997E-002   -0.41151846019892740     
   6.2700000000000006E-002   -0.31875666101240741     
   6.3000000000000000E-002   -0.23673539044313907     
   6.3300000000000009E-002   -0.16739023385001420     
   6.3600000000000004E-002   -0.11417983162918710     
   6.3899999999999998E-002    -7.5907356195119180E-002
   6.4199999999999993E-002    -5.2660865565577294E-002
   6.4500000000000002E-002    -4.2219168174077643E-002
   6.4800000000000010E-002    -4.1759973893363514E-002
   6.5100000000000005E-002    -4.8095365400885347E-002
   6.5400000000000000E-002    -5.8006834437657945E-002
   6.5700000000000008E-002    -6.7725524187750241E-002
   6.5999999999999989E-002    -7.4249225294403545E-002
   6.6299999999999998E-002    -7.4690960081538318E-002
   6.6600000000000006E-002    -6.7110263260741321E-002
   6.6900000000000001E-002    -4.9957095711946814E-002
   6.7199999999999996E-002    -2.3907565259739499E-002
   6.7500000000000004E-002     1.0834019125607879E-002
   6.7800000000000013E-002     5.2353539023151194E-002
   6.8099999999999994E-002     9.7563807403332634E-002
   6.8400000000000002E-002    0.14452279731201328     
   6.8700000000000011E-002    0.18857574402523744     
   6.8999999999999992E-002    0.22715740015324565     
   6.9300000000000000E-002    0.25744776267388825     
   6.9600000000000009E-002    0.27716509524612509     
   6.9900000000000004E-002    0.28507745236596338     
   7.0199999999999999E-002    0.28138908664538420     
   7.0500000000000007E-002    0.26609081260683420     
   7.0800000000000016E-002    0.24120335359665290     
   7.1099999999999997E-002    0.20891915644678591     
   7.1400000000000005E-002    0.17120727766194840     
   7.1700000000000000E-002    0.13159666654529295     
   7.1999999999999995E-002     9.2385795065677595E-002
   7.2300000000000003E-002     5.5498373169276971E-002
   7.2600000000000012E-002     2.4122237771765948E-002
   7.2900000000000006E-002    -1.1338295668960573E-003
   7.3200000000000001E-002    -1.8526152409597811E-002
   7.3499999999999996E-002    -2.7389981994656337E-002
   7.3800000000000004E-002    -2.7849090720170284E-002
   7.4099999999999999E-002    -2.0100193713568911E-002
   7.4400000000000008E-002    -4.6087285275519269E-003
   7.4700000000000003E-002     1.6695011357798904E-002
   7.5000000000000011E-002     4.2993461571216252E-002
   7.5299999999999992E-002     7.1506642126434816E-002
   7.5600000000000001E-002    0.10104856937119125     
   7.5900000000000009E-002    0.12802709730626730     
   7.6200000000000004E-002    0.15164489029083966     
   7.6499999999999999E-002    0.16843099693421201     
   7.6800000000000007E-002    0.17763256079798603     
   7.7099999999999988E-002    0.17795834014108242     
   7.7399999999999997E-002    0.16855402681296194     
   7.7700000000000005E-002    0.15015425168417457     
   7.8000000000000014E-002    0.12292857685870176     
   7.8299999999999995E-002     8.8965949073742293E-002
   7.8600000000000003E-002     4.9484387616608373E-002
   7.8900000000000012E-002     7.5029167857851749E-003
   7.9199999999999993E-002    -3.5277697641527758E-002
   7.9500000000000001E-002    -7.6604164670953698E-002
   7.9800000000000010E-002   -0.11373542633329642     
   8.0100000000000018E-002   -0.14613130445540201     
   8.0399999999999999E-002   -0.17092275098479365     
   8.0700000000000008E-002   -0.18851644663019884     
   8.1000000000000003E-002   -0.19729978749382326     
   8.1299999999999997E-002   -0.19787224881267973     
   8.1600000000000006E-002   -0.19037557127490731     
   8.1900000000000014E-002   -0.17469037387865061     
   8.2199999999999995E-002   -0.15309288178556252     
   8.2500000000000004E-002   -0.12528983156558857     
   8.2799999999999999E-002    -9.4542877309848450E-002
   8.3100000000000007E-002    -6.0801735000597018E-002
   8.3400000000000002E-002    -2.7886880246308747E-002
   8.3700000000000011E-002     3.9077138506504704E-003
   8.4000000000000005E-002     3.0925694653665001E-002
   8.4300000000000000E-002     5.2648006110969502E-002
   8.4599999999999995E-002     6.7177892909496495E-002
   8.4900000000000003E-002     7.3043575092883617E-002
   8.5199999999999998E-002     7.0660865881829182E-002
   8.5500000000000007E-002     5.9281273528095937E-002
   8.5800000000000001E-002     4.0364832407263650E-002
   8.6100000000000010E-002     1.5477562024091784E-002
   8.6399999999999991E-002    -1.3954333422521718E-002
   8.6699999999999999E-002    -4.5389344501305343E-002
   8.7000000000000008E-002    -7.6661701913462957E-002
   8.7300000000000003E-002   -0.10524359864650250     
   8.7599999999999997E-002   -0.12972706710715731     
   8.7900000000000006E-002   -0.14745683729549261     
   8.8200000000000014E-002   -0.15830125141634493     
   8.8499999999999995E-002   -0.16093693250964178     
   8.8800000000000004E-002   -0.15505726178344303     
   8.9100000000000013E-002   -0.14177603670189357     
   8.9399999999999993E-002   -0.12104578710895283     
   8.9700000000000002E-002    -9.4710839874767680E-002
   9.0000000000000011E-002    -6.3672193876364427E-002
   9.0299999999999991E-002    -3.0416649892358608E-002
   9.0600000000000000E-002     3.5532797882453920E-003
   9.0900000000000009E-002     3.5894352788870307E-002
   9.1200000000000017E-002     6.4802378246081815E-002
   9.1499999999999998E-002     8.8635778429074802E-002
   9.1800000000000007E-002    0.10524259952225019     
   9.2100000000000001E-002    0.11494187212045015     
   9.2399999999999996E-002    0.11570403744894389     
   9.2700000000000005E-002    0.10919770651314714     
   9.3000000000000013E-002     9.5324688051774159E-002
   9.3300000000000008E-002     7.5696320213396895E-002
   9.3600000000000003E-002     5.2616609669326755E-002
   9.3899999999999997E-002     2.7434164238613324E-002
   9.4200000000000006E-002     3.0792152320735923E-003
   9.4500000000000001E-002    -1.9222646183226499E-002
   9.4800000000000009E-002    -3.7193915636035260E-002
   9.5100000000000004E-002    -4.9988138704567933E-002
   9.5399999999999999E-002    -5.7075106387566493E-002
   9.5699999999999993E-002    -5.8248082542052215E-002
   9.6000000000000002E-002    -5.4673372214754108E-002
   9.6300000000000011E-002    -4.6206284659748784E-002
   9.6600000000000005E-002    -3.5144721783275712E-002
   9.6900000000000000E-002    -2.1762532953221916E-002
   9.7200000000000009E-002    -7.7758359606250604E-003
   9.7499999999999989E-002     5.6636735558230405E-003
   9.7799999999999998E-002     1.8764073168609053E-002
   9.8100000000000007E-002     2.9302864013784125E-002
   9.8400000000000015E-002     3.8972695119095943E-002
   9.8699999999999996E-002     4.5872493350813462E-002
   9.9000000000000005E-002     5.1713987616007748E-002
   9.9300000000000013E-002     5.5466355580467350E-002
   9.9599999999999994E-002     5.8629625403477499E-002
   9.9900000000000003E-002     6.0472070142958884E-002
  0.10020000000000001          6.2739679135960486E-002
  0.10049999999999999          6.4876265500576819E-002
  0.10080000000000000          6.7751755496257296E-002
  0.10110000000000001          7.1440841282161008E-002
  0.10140000000000000          7.6509481228019524E-002
  0.10170000000000000          8.1724712693396387E-002
  0.10200000000000001          8.8067631348273973E-002
  0.10230000000000002          9.3732690041848102E-002
  0.10260000000000000          9.8483007607413783E-002
  0.10290000000000001         0.10121872199570042     
  0.10320000000000000         0.10029604223086500     
  0.10350000000000001          9.4985897332191926E-002
  0.10380000000000000          8.3846252806765928E-002
  0.10410000000000001          6.6521803151113792E-002
  0.10440000000000001          4.1448930365503067E-002
  0.10470000000000000          9.7272464197717574E-003
  0.10500000000000000         -2.9389832348757510E-002
  0.10530000000000000         -7.4731559769928887E-002
  0.10560000000000000        -0.12502687154205885     
  0.10590000000000001        -0.17931037992430021     
  0.10620000000000000        -0.23469697058442146     
  0.10650000000000001        -0.28960119982538302     
  0.10679999999999999        -0.34100108929499384     
  0.10710000000000000        -0.38579218644668323     
  0.10740000000000001        -0.42180736745777514     
  0.10770000000000000        -0.44516316036430154     
  0.10800000000000000        -0.45431688360473010     
  0.10830000000000001        -0.44563979552021288     
  0.10859999999999999        -0.41915812579248718     
  0.10890000000000000        -0.37249605476511360     
  0.10920000000000001        -0.30718010474522767     
  0.10950000000000001        -0.22374186321869396     
  0.10979999999999999        -0.12427976499114826     
  0.11009999999999999         -1.2751967652289933E-002
  0.11040000000000001         0.10754352993322880     
  0.11070000000000001         0.23095228452312622     
  0.11100000000000000         0.35311833434222933     
  0.11130000000000000         0.46856377512618064     
  0.11160000000000002         0.57232155857117706     
  0.11190000000000001         0.66034835335582875     
  0.11220000000000001         0.72799602086662829     
  0.11250000000000000         0.77358571892228256     
  0.11280000000000000         0.79425202125750438     
  0.11309999999999999         0.79079781615777145     
  0.11340000000000001         0.76190064370328503     
  0.11369999999999998         0.71071256915818459     
  0.11400000000000000         0.63860611100400710     
  0.11430000000000000         0.54967621280515666     
  0.11460000000000002         0.44715587045838917     
  0.11489999999999999         0.33668193561145815     
  0.11520000000000001         0.22203524185448459     
  0.11550000000000001         0.10887241265856148     
  0.11580000000000000          1.3811579385488749E-003
  0.11609999999999999         -9.5703379720348689E-002
  0.11640000000000002        -0.17974139146823725     
  0.11670000000000001        -0.24737688215205145     
  0.11700000000000001        -0.29750294628199225     
  0.11730000000000000        -0.32993627570614009     
  0.11760000000000000        -0.34502853429779901     
  0.11789999999999999        -0.34516797911222252     
  0.11820000000000001        -0.33240826650546179     
  0.11850000000000001        -0.31120525578253000     
  0.11880000000000000        -0.28384676230878370     
  0.11910000000000000        -0.25619735131113031     
  0.11940000000000002        -0.22998087355258762     
  0.11970000000000001        -0.21018817830763398     
  0.12000000000000001        -0.19812593500276054     
  0.12030000000000000        -0.19637076856041669     
  0.12060000000000000        -0.20528404196818273     
  0.12089999999999999        -0.22496895469164938     
  0.12119999999999999        -0.25446610024076810     
  0.12150000000000001        -0.29197354843839363     
  0.12180000000000001        -0.33513313973183712     
  0.12210000000000000        -0.38118023609424351     
  0.12239999999999999        -0.42654105569195389     
  0.12270000000000002        -0.46877227698338986     
  0.12300000000000001        -0.50429166701598005     
  0.12330000000000001        -0.53126529904046083     
  0.12360000000000000        -0.54618333684021358     
  0.12390000000000000        -0.54943508069840574     
  0.12419999999999999        -0.53823518617350452     
  0.12450000000000001        -0.51435373327762912     
  0.12480000000000001        -0.47729181155627876     
  0.12509999999999999        -0.42911670374058192     
  0.12540000000000001        -0.37122074028250929     
  0.12570000000000003        -0.30651664401090506     
  0.12600000000000000        -0.23659213462714607     
  0.12630000000000002        -0.16521713261143378     
  0.12659999999999999         -9.3807555177262386E-002
  0.12690000000000001         -2.5130124425528894E-002
  0.12719999999999998          3.9478803775216072E-002
  0.12750000000000000          9.8101968148000346E-002
  0.12780000000000002         0.15061285776166852     
  0.12809999999999999         0.19551535158007244     
  0.12840000000000001         0.23348906810413894     
  0.12869999999999998         0.26435699547792002     
  0.12900000000000000         0.28852236895614203     
  0.12930000000000003         0.30692158648929957     
  0.12959999999999999         0.31927521799445768     
  0.12990000000000002         0.32765264303167979     
  0.13019999999999998         0.33080771238305162     
  0.13050000000000000         0.33194773875466055     
  0.13080000000000003         0.32942260161508780     
  0.13109999999999999         0.32642745997141964     
  0.13140000000000002         0.32206824143285845     
  0.13169999999999998         0.31863685538073450     
  0.13200000000000001         0.31603572396970148     
  0.13229999999999997         0.31630091107140845     
  0.13260000000000000         0.31908797170509029     
  0.13290000000000002         0.32576992760488993     
  0.13319999999999999         0.33594526554135734     
  0.13350000000000001         0.34998631001606267     
  0.13380000000000003         0.36679037629100708     
  0.13410000000000000         0.38652600234050111     
  0.13440000000000002         0.40642830168569188     
  0.13469999999999999         0.42698610820719152     
  0.13500000000000001         0.44485260474818600     
  0.13529999999999998         0.45979480216898222     
  0.13560000000000000         0.46833559918557421     
  0.13590000000000002         0.47075214533500864     
  0.13619999999999999         0.46403273045059862     
  0.13650000000000001         0.44838631847087351     
  0.13680000000000003         0.42275968238357986     
  0.13710000000000000         0.38668720789992833     
  0.13740000000000002         0.34115387465153613     
  0.13769999999999999         0.28684727778123575     
  0.13800000000000001         0.22565909113040145     
  0.13829999999999998         0.15911883478359648     
  0.13860000000000000          9.0014235940767226E-002
  0.13890000000000002          2.0601219783407614E-002
  0.13919999999999999         -4.5868907138666690E-002
  0.13950000000000001        -0.10786143482819327     
  0.13979999999999998        -0.16197911764729417     
  0.14010000000000000        -0.20714188457470931     
  0.14040000000000002        -0.24163939235645848     
  0.14069999999999999        -0.26569741068676322     
  0.14100000000000001        -0.27755807697029472     
  0.14130000000000004        -0.28005852742343484     
  0.14160000000000000        -0.27204904026109117     
  0.14189999999999997        -0.25685712885675027     
  0.14219999999999999        -0.23511132102490048     
  0.14250000000000002        -0.20973590055243721     
  0.14279999999999998        -0.18173465092847940     
  0.14310000000000000        -0.15423547092855422     
  0.14339999999999997        -0.12853833067742357     
  0.14369999999999999        -0.10627003095038083     
  0.14400000000000002         -8.8931784568105021E-002
  0.14429999999999998         -7.7259847360578504E-002
  0.14460000000000001         -7.1596124005857659E-002
  0.14490000000000003         -7.2272645860793391E-002
  0.14520000000000000         -7.8382010146421252E-002
  0.14550000000000002         -8.8973182894936845E-002
  0.14579999999999999        -0.10287766877598764     
  0.14610000000000001        -0.11898735013208989     
  0.14640000000000003        -0.13474160004120106     
  0.14670000000000000        -0.15014741658394287     
  0.14699999999999996        -0.16225122311168799     
  0.14729999999999999        -0.17143019285434380     
  0.14760000000000001        -0.17598236308631282     
  0.14789999999999998        -0.17714335473906281     
  0.14820000000000000        -0.17396729935828920     