  -1.4999999999999999E-002     0.0000000000000000     
  -1.4700000000000000E-002     0.0000000000000000     
  -1.4400000000000000E-002     0.0000000000000000     
  -1.4100000000000000E-002     0.0000000000000000     
  -1.3800000000000000E-002     0.0000000000000000     
  -1.3500000000000000E-002     0.0000000000000000     
  -1.3200000000000000E-002     0.0000000000000000     
  -1.2899999999999998E-002     0.0000000000000000     
  -1.2600000000000000E-002     0.0000000000000000     
  -1.2299999999999998E-002     0.0000000000000000     
  -1.2000000000000000E-002     0.0000000000000000     
  -1.1699999999999999E-002     0.0000000000000000     
  -1.1399999999999999E-002     0.0000000000000000     
  -1.1099999999999999E-002     0.0000000000000000     
  -1.0799999999999999E-002     0.0000000000000000     
  -1.0499999999999999E-002     0.0000000000000000     
  -1.0199999999999999E-002     3.1233308866379891E-067
  -9.8999999999999991E-003     1.5988885088006929E-064
  -9.5999999999999992E-003    -5.5728205055742658E-064
  -9.2999999999999992E-003    -4.3168260557721629E-036
  -8.9999999999999993E-003    -7.7352298734847894E-035
  -8.6999999999999994E-003     3.7881156596931263E-034
  -8.3999999999999995E-003    -5.3189348420452506E-034
  -8.0999999999999996E-003    -4.0899311539226260E-033
  -7.7999999999999988E-003     1.0935629767358515E-032
  -7.4999999999999997E-003     2.4889338717247845E-032
  -7.1999999999999998E-003    -8.5251693736377874E-032
  -6.8999999999999981E-003    -1.7888689976517459E-031
  -6.5999999999999982E-003     5.5214871270443989E-031
  -6.3000000000000000E-003     1.0177816546644612E-030
  -6.0000000000000001E-003    -2.2401368303423435E-030
  -5.6999999999999985E-003    -5.3439991797471927E-030
  -5.3999999999999986E-003     2.4712624802061385E-030
  -5.1000000000000004E-003     2.5784555289862919E-029
  -4.7999999999999987E-003     4.7608294444843884E-029
  -4.5000000000000005E-003    -1.2393197749314778E-028
  -4.1999999999999989E-003    -4.4002862660244806E-028
  -3.8999999999999990E-003     5.3072305919106812E-028
  -3.5999999999999990E-003     2.2146065588037948E-027
  -3.2999999999999991E-003    -1.9259706789316429E-027
  -2.9999999999999992E-003    -5.7432306720274432E-027
  -2.6999999999999993E-003     1.4785781435835506E-027
  -2.3999999999999994E-003     1.3195509085135873E-027
  -2.0999999999999977E-003     2.5317003609528314E-026
  -1.7999999999999995E-003     8.2781994653712014E-026
  -1.4999999999999979E-003    -2.4151141898073087E-025
  -1.1999999999999997E-003    -3.7237607414279987E-025
  -8.9999999999999976E-004     1.2223598415931864E-024
  -5.9999999999999810E-004    -1.0538471329612749E-025
  -2.9999999999999992E-004    -1.9449851419499240E-024
   0.0000000000000000          4.6572018372743342E-024
   3.0000000000000165E-004    -7.3324978340688853E-024
   5.9999999999999984E-004    -1.6135338170809334E-023
   9.0000000000000149E-004     6.0035741329970019E-023
   1.2000000000000031E-003     3.0415637309271224E-024
   1.5000000000000013E-003    -2.0045744458445670E-022
   1.8000000000000030E-003     2.4989510235672727E-022
   2.1000000000000012E-003     1.4539050586378411E-022
   2.3999999999999994E-003    -1.1604816473625435E-021
   2.7000000000000010E-003     1.7726589939024530E-021
   2.9999999999999992E-003     1.8234244611971851E-021
   3.3000000000000008E-003    -9.3065361215882096E-021
   3.6000000000000025E-003     6.8066077945044616E-021
   3.9000000000000007E-003     1.7977199419537021E-020
   4.2000000000000023E-003    -4.7565623180855684E-020
   4.5000000000000005E-003     2.5952740330001724E-020
   4.7999999999999987E-003     1.0782751534051241E-019
   5.1000000000000004E-003    -2.5703414780938398E-019
   5.4000000000000020E-003     5.2204172258742152E-020
   5.7000000000000037E-003     6.5999942066132731E-019
   5.9999999999999984E-003    -1.0934765163491724E-018
   6.3000000000000000E-003    -8.7995707272760668E-020
   6.6000000000000017E-003     3.0333762050243997E-018
   6.9000000000000034E-003    -4.5233044082546915E-018
   7.2000000000000015E-003    -1.1945047567262079E-018
   7.5000000000000032E-003     1.3327667354982352E-017
   7.8000000000000014E-003    -1.6138237721566104E-017
   8.0999999999999996E-003    -8.2676339969938508E-018
   8.4000000000000012E-003     5.0669809803820520E-017
   8.7000000000000029E-003    -5.7876346992713844E-017
   9.0000000000000011E-003    -3.6164945905376859E-017
   9.2999999999999992E-003     1.9984080679529259E-016
   9.6000000000000009E-003    -2.1698936282381677E-016
   9.8999999999999991E-003    -1.5034567837063340E-016
   1.0200000000000001E-002     7.6984424035927904E-016
   1.0500000000000002E-002    -8.7276478770645450E-016
   1.0800000000000004E-002    -5.2945512162777466E-016
   1.1099999999999999E-002     3.0537169551148104E-015
   1.1400000000000000E-002    -3.4814076332719891E-015
   1.1700000000000002E-002    -2.0685090011886840E-015
   1.2000000000000004E-002     1.1564384708407777E-014
   1.2300000000000002E-002    -1.2658086489112821E-014
   1.2600000000000000E-002    -8.2621632122627666E-015
   1.2900000000000002E-002     4.1195907650659999E-014
   1.3200000000000000E-002    -4.0009005306353060E-014
   1.3500000000000002E-002    -3.4133583721434434E-014
   1.3800000000000003E-002     1.3125226943350803E-013
   1.4100000000000001E-002    -1.0540721859205346E-013
   1.4400000000000000E-002    -1.2598294954936685E-013
   1.4700000000000001E-002     3.6977592612652920E-013
   1.4999999999999999E-002    -2.2613630144405194E-013
   1.5300000000000001E-002    -4.0692461181929466E-013
   1.5600000000000003E-002     9.0830346129014653E-013
   1.5899999999999997E-002    -3.8415888500605441E-013
   1.6199999999999999E-002    -1.1213904047714952E-012
   1.6500000000000001E-002     2.0441151298813826E-012
   1.6800000000000002E-002    -5.9345581885197837E-013
   1.7100000000000004E-002    -2.9040929035450942E-012
   1.7400000000000006E-002     5.1503432327321684E-012
   1.7700000000000000E-002    -1.6334850022455743E-012
   1.8000000000000002E-002    -9.5847869649994404E-012
   1.8300000000000004E-002     2.0617719147053271E-011
   1.8600000000000005E-002    -6.4551018255969692E-012
   1.8900000000000000E-002    -5.5235662607532066E-011
   1.9200000000000002E-002     1.1095588566360495E-010
   1.9500000000000003E-002     9.1883220697313031E-012
   1.9799999999999998E-002    -3.8216024729408840E-010
   2.0100000000000000E-002     5.5636049156062092E-010
   2.0400000000000001E-002     4.2733952671386891E-010
   2.0700000000000003E-002    -2.6296759983000102E-009
   2.0999999999999998E-002     2.4281293993702419E-009
   2.1299999999999999E-002     7.1405713319144874E-009
   2.1600000000000001E-002    -1.8543873263284558E-008
   2.1900000000000003E-002    -1.4496156037287573E-008
   2.2200000000000004E-002     8.2043994598473652E-008
   2.2500000000000006E-002     3.0969791758119100E-008
   2.2800000000000001E-002    -3.4965574720435326E-007
   2.3100000000000002E-002    -2.0009241401119860E-007
   2.3400000000000004E-002     2.2499971969875545E-006
   2.3699999999999999E-002     7.8666977728495041E-006
   2.4000000000000000E-002     1.5119081228807862E-005
   2.4300000000000002E-002     2.1579613155823452E-005
   2.4599999999999997E-002     2.7968305778963148E-005
   2.4900000000000005E-002     3.8811415838052345E-005
   2.5200000000000000E-002     5.7700790866820749E-005
   2.5499999999999995E-002     8.6244717604942790E-005
   2.5800000000000003E-002     1.2840398706144589E-004
   2.6099999999999998E-002     1.9001419016838808E-004
   2.6400000000000007E-002     2.7787137673978413E-004
   2.6700000000000002E-002     4.0381299053301474E-004
   2.6999999999999996E-002     5.7891114760939063E-004
   2.7300000000000005E-002     8.0518696486798363E-004
   2.7600000000000000E-002     1.0870151254233273E-003
   2.7900000000000008E-002     1.4385648271317657E-003
   2.8200000000000003E-002     1.8693434196448871E-003
   2.8499999999999998E-002     2.3776026961300559E-003
   2.8800000000000006E-002     2.9525993840876633E-003
   2.9100000000000001E-002     3.5680818284183733E-003
   2.9400000000000003E-002     4.1777169668485688E-003
   2.9700000000000004E-002     4.7068292618635864E-003
   3.0000000000000006E-002     5.0367065184749611E-003
   3.0300000000000001E-002     5.0068427455173840E-003
   3.0600000000000002E-002     4.4185901027605449E-003
   3.0900000000000004E-002     3.0218461066611399E-003
   3.1199999999999999E-002     5.1277905230104239E-004
   3.1500000000000007E-002    -3.4409638175236356E-003
   3.1800000000000002E-002    -9.1781230868387062E-003
   3.2099999999999997E-002    -1.7046423114311423E-002
   3.2400000000000005E-002    -2.7391483294841309E-002
   3.2700000000000000E-002    -4.0495011012267317E-002
   3.3000000000000002E-002    -5.6523184021774787E-002
   3.3300000000000003E-002    -7.5526876759293787E-002
   3.3599999999999998E-002    -9.7408173706108631E-002
   3.3900000000000000E-002   -0.12187848781400341     
   3.4200000000000001E-002   -0.14847060809194262     
   3.4500000000000003E-002   -0.17655223358510036     
   3.4799999999999998E-002   -0.20535789166055754     
   3.5099999999999999E-002   -0.23405576971202854     
   3.5400000000000001E-002   -0.26179918376974026     
   3.5699999999999996E-002   -0.28778895475760080     
   3.6000000000000004E-002   -0.31133609767751386     
   3.6299999999999999E-002   -0.33194672842217821     
   3.6600000000000008E-002   -0.34933557913464097     
   3.6900000000000002E-002   -0.36347037385980829     
   3.7199999999999997E-002   -0.37445160598692157     
   3.7500000000000006E-002   -0.38253271441384862     
   3.7800000000000000E-002   -0.38797393297567645     
   3.8100000000000009E-002   -0.39097776841525039     
   3.8400000000000004E-002   -0.39160686518500082     
   3.8699999999999998E-002   -0.38964193779011058     
   3.9000000000000007E-002   -0.38462057340562267     
   3.9300000000000002E-002   -0.37576418639513465     
   3.9600000000000003E-002   -0.36209335328409403     
   3.9900000000000005E-002   -0.34243407126524933     
   4.0200000000000000E-002   -0.31567995900637508     
   4.0500000000000001E-002   -0.28080531008315746     
   4.0800000000000003E-002   -0.23715007764822740     
   4.1100000000000005E-002   -0.18425997010115194     
   4.1399999999999999E-002   -0.12220051537589594     
   4.1700000000000008E-002    -5.1430654396981863E-002
   4.2000000000000003E-002     2.7292121577560623E-002
   4.2299999999999997E-002    0.11304549957829413     
   4.2600000000000006E-002    0.20498011154955306     
   4.2900000000000001E-002    0.30219999355973265     
   4.3200000000000002E-002    0.40442699310908020     
   4.3500000000000004E-002    0.51153784787193546     
   4.3799999999999999E-002    0.62399464291957107     
   4.4100000000000000E-002    0.74251990582918104     
   4.4400000000000002E-002    0.86790000077183926     
   4.4700000000000004E-002     1.0009697504638693     
   4.4999999999999998E-002     1.1418287543683519     
   4.5300000000000000E-002     1.2900207986037429     
   4.5600000000000002E-002     1.4437887383451093     
   4.5899999999999996E-002     1.6001406589359506     
   4.6200000000000005E-002     1.7545406470171045     
   4.6500000000000000E-002     1.9011175259775197     
   4.6799999999999994E-002     2.0328213777563016     
   4.7100000000000003E-002     2.1416470602668101     
   4.7399999999999998E-002     2.2194416118569924     
   4.7700000000000006E-002     2.2580456335931398     
   4.8000000000000001E-002     2.2504913425331572     
   4.8300000000000010E-002     2.1909842135587594     
   4.8600000000000004E-002     2.0760101951782488     
   4.8899999999999999E-002     1.9041636905869612     
   4.9200000000000008E-002     1.6766311897130255     
   4.9500000000000002E-002     1.3970677684125765     
   4.9800000000000011E-002     1.0712065588643129     
   5.0100000000000006E-002    0.70678936974126116     
   5.0400000000000000E-002    0.31252348579783762     
   5.0700000000000009E-002   -0.10175807023025862     
   5.1000000000000004E-002   -0.52656148553883331     
   5.1299999999999998E-002   -0.95233563746044481     
   5.1600000000000007E-002    -1.3703528414420352     
   5.1900000000000002E-002    -1.7729483573862328     
   5.2200000000000010E-002    -2.1530129604912980     
   5.2500000000000005E-002    -2.5043792388979531     
   5.2800000000000000E-002    -2.8215248221830049     
   5.3099999999999994E-002    -3.0987782091633744     
   5.3400000000000003E-002    -3.3308424541762629     
   5.3699999999999998E-002    -3.5114974549572868     
   5.4000000000000006E-002    -3.6348084962062241     
   5.4300000000000001E-002    -3.6938015961824266     
   5.4599999999999996E-002    -3.6819104688719442     
   5.4900000000000004E-002    -3.5926467912127560     
   5.5199999999999999E-002    -3.4208781265922164     
   5.5499999999999994E-002    -3.1635112324899932     
   5.5800000000000002E-002    -2.8201329296500730     
   5.6099999999999997E-002    -2.3945929628915761     
   5.6400000000000006E-002    -1.8947975307486158     
   5.6700000000000000E-002    -1.3341641154934707     
   5.6999999999999995E-002   -0.73132542694446823     
   5.7300000000000004E-002   -0.10990599676631696     
   5.7599999999999998E-002    0.50231969984196845     
   5.7900000000000007E-002     1.0743761054481338     
   5.8200000000000002E-002     1.5747899935657454     
   5.8499999999999996E-002     1.9722190967040125     
   5.8800000000000005E-002     2.2396833727155077     
   5.9100000000000000E-002     2.3549608991125330     
   5.9400000000000008E-002     2.3047292034663576     
   5.9700000000000003E-002     2.0847399052354008     
   6.0000000000000012E-002     1.7021889538766832     
   6.0300000000000006E-002     1.1756503485507901     
   6.0600000000000001E-002    0.53445475974642909     
   6.0900000000000010E-002   -0.18163261905833672     
   6.1200000000000004E-002   -0.92615323113822390     
   6.1500000000000013E-002    -1.6467341000970739     
   6.1800000000000008E-002    -2.2904746290811944     
   6.2100000000000002E-002    -2.8058104233348997     
   6.2399999999999997E-002    -3.1472980677065343     
   6.2700000000000006E-002    -3.2782246777051167     
   6.3000000000000000E-002    -3.1736776578132511     
   6.3300000000000009E-002    -2.8227231320117210     
   6.3600000000000004E-002    -2.2289714727279866     
   6.3899999999999998E-002    -1.4115799700467353     
   6.4199999999999993E-002   -0.40351493924365445     
   6.4500000000000002E-002    0.74958797972828672     
   6.4800000000000010E-002     1.9925447213040304     
   6.5100000000000005E-002     3.2636110135608174     
   6.5400000000000000E-002     4.4980043570521353     
   6.5700000000000008E-002     5.6321157485121951     
   6.5999999999999989E-002     6.6069034501331991     
   6.6299999999999998E-002     7.3715738146945009     
   6.6600000000000006E-002     7.8858412553341548     
   6.6900000000000001E-002     8.1227082060640470     
   6.7199999999999996E-002     8.0689972721203365     
   6.7500000000000004E-002     7.7263349449357426     
   6.7800000000000013E-002     7.1101602577663723     
   6.8099999999999994E-002     6.2488774460474978     
   6.8400000000000002E-002     5.1819547976555436     
   6.8700000000000011E-002     3.9572808293536244     
   6.8999999999999992E-002     2.6290611964784114     
   6.9300000000000000E-002     1.2546216190977253     
   6.9600000000000009E-002   -0.10836659496548824     
   6.9900000000000004E-002    -1.4037899649671803     
   7.0199999999999999E-002    -2.5812274919450373     
   7.0500000000000007E-002    -3.5961117107362410     
   7.0800000000000016E-002    -4.4130524831610281     
   7.1099999999999997E-002    -5.0068458663043112     
   7.1400000000000005E-002    -5.3632587481071097     
   7.1700000000000000E-002    -5.4808205627803339     
   7.1999999999999995E-002    -5.3691057236677597     
   7.2300000000000003E-002    -5.0504874299422111     
   7.2600000000000012E-002    -4.5566987174098124     
   7.2900000000000006E-002    -3.9293638931786607     
   7.3200000000000001E-002    -3.2158953522385518     
   7.3499999999999996E-002    -2.4680630657925589     
   7.3800000000000004E-002    -1.7382676221187074     
   7.4099999999999999E-002    -1.0753882864092630     
   7.4400000000000008E-002   -0.52387015532785997     
   7.4700000000000003E-002   -0.11779829349933453     
   7.5000000000000011E-002    0.11875781161594079     
   7.5299999999999992E-002    0.17532681637652414     
   7.5600000000000001E-002     5.4881536200560112E-002
   7.5900000000000009E-002   -0.22666190109935402     
   7.6200000000000004E-002   -0.64095068745926209     
   7.6499999999999999E-002    -1.1498200920585291     
   7.6800000000000007E-002    -1.7084819037375574     
   7.7099999999999988E-002    -2.2678537247302244     
   7.7399999999999997E-002    -2.7798824102882609     
   7.7700000000000005E-002    -3.1996929354848471     
   7.8000000000000014E-002    -3.4899673097991610     
   7.8299999999999995E-002    -3.6227459488299307     
   7.8600000000000003E-002    -3.5822891738284688     
   7.8900000000000012E-002    -3.3650743508032894     
   7.9199999999999993E-002    -2.9806706481203311     
   7.9500000000000001E-002    -2.4503152007273648     
   7.9800000000000010E-002    -1.8044032778972263     
   8.0100000000000018E-002    -1.0820377910129590     
   8.0399999999999999E-002   -0.32464286501183776     
   8.0700000000000008E-002    0.42326404359277608     
   8.1000000000000003E-002     1.1207881888321807     
   8.1299999999999997E-002     1.7302296935604369     
   8.1600000000000006E-002     2.2216133529760440     
   8.1900000000000014E-002     2.5717517690790750     
   8.2199999999999995E-002     2.7665848028961988     
   8.2500000000000004E-002     2.7998038993518457     
   8.2799999999999999E-002     2.6723403217917907     
   8.3100000000000007E-002     2.3917936625122795     
   8.3400000000000002E-002     1.9697821781537461     
   8.3700000000000011E-002     1.4232451508808033     
   8.4000000000000005E-002    0.77182707925103899     
   8.4300000000000000E-002     3.9400006743826266E-002
   8.4599999999999995E-002   -0.74548593790471696     
   8.4900000000000003E-002    -1.5493272044038444     
   8.5199999999999998E-002    -2.3308171454875968     
   8.5500000000000007E-002    -3.0419043455451678     
   8.5800000000000001E-002    -3.6259971763648706     
   8.6100000000000010E-002    -4.0215729176117572     
   8.6399999999999991E-002    -4.1631058014332343     
   8.6699999999999999E-002    -3.9883571369412363     
   8.7000000000000008E-002    -3.4437180320929941     
   8.7300000000000003E-002    -2.4924548616281608     
   8.7599999999999997E-002    -1.1246869647416324     
   8.7900000000000006E-002    0.63840288253220501     
   8.8200000000000014E-002     2.7342364800037364     
   8.8499999999999995E-002     5.0612434620916726     
   8.8800000000000004E-002     7.4763081931281095     
   8.9100000000000013E-002     9.8051040200743049     
   8.9399999999999993E-002     11.850110693410755     
   8.9700000000000002E-002     13.407969093202322     
   9.0000000000000011E-002     14.287687824866305     
   9.0299999999999991E-002     14.329192661024859     
   9.0600000000000000E-002     13.424826174099758     
   9.0900000000000009E-002     11.531707355317657     
   9.1200000000000017E-002     8.6859079824325072     
   9.1499999999999998E-002     5.0047299939894261     
   9.1800000000000007E-002    0.68363996279627559     
   9.2100000000000001E-002    -4.0134438981973712     
   9.2399999999999996E-002    -8.7752559514694184     
   9.2700000000000005E-002    -13.263311980771622     
   9.3000000000000013E-002    -17.141978719851537     
   9.3300000000000008E-002    -20.105552062856123     
   9.3600000000000003E-002    -21.902856138915862     
   9.3899999999999997E-002    -22.363732568419746     
   9.4200000000000006E-002    -21.407002690277299     
   9.4500000000000001E-002    -19.055720627498427     
   9.4800000000000009E-002    -15.429665963843439     
   9.5100000000000004E-002    -10.738894044235550     
   9.5399999999999999E-002    -5.2668344822668312     
   9.5699999999999993E-002    0.65510947716819490     
   9.6000000000000002E-002     6.6684163844964450     
   9.6300000000000011E-002     12.420183838671049     
   9.6600000000000005E-002     17.582149044622220     
   9.6900000000000000E-002     21.876899119895683     
   9.7200000000000009E-002     25.091376553235840     
   9.7499999999999989E-002     27.086978138545046     
   9.7799999999999998E-002     27.805476338219979     
   9.8100000000000007E-002     27.262026943869309     
   9.8400000000000015E-002     25.542084893185883     
   9.8699999999999996E-002     22.785878453100914     
   9.9000000000000005E-002     19.175229441067529     
   9.9300000000000013E-002     14.920551783339487     
   9.9599999999999994E-002     10.241120948173149     
   9.9900000000000003E-002     5.3568833136315943     
  0.10020000000000001         0.47362152607411040     
  0.10049999999999999         -4.2242469331891517     
  0.10080000000000000         -8.5800236027226742     
  0.10110000000000001         -12.467890471498105     
  0.10140000000000000         -15.795130370885728     
  0.10170000000000000         -18.499728722614243     
  0.10200000000000001         -20.551522715916914     
  0.10230000000000002         -21.944617690194654     
  0.10260000000000000         -22.700560962288058     
  0.10290000000000001         -22.856387520080141     
  0.10320000000000000         -22.467887309743865     
  0.10350000000000001         -21.599082394344261     
  0.10380000000000000         -20.323062371774483     
  0.10410000000000001         -18.713790405818276     
  0.10440000000000001         -16.845544372480298     
  0.10470000000000000         -14.788412656566257     
  0.10500000000000000         -12.604877136715162     
  0.10530000000000000         -10.351334295496242     
  0.10560000000000000         -8.0715663659101473     
  0.10590000000000001         -5.8034857151245500     
  0.10620000000000000         -3.5716842651359872     
  0.10650000000000001         -1.3974302631613000     
  0.10679999999999999         0.70904145836996113     
  0.10710000000000000          2.7365528837706905     
  0.10740000000000001          4.6805132633719451     
  0.10770000000000000          6.5321338928300223     
  0.10800000000000000          8.2825515615496794     
  0.10830000000000001          9.9174849968700496     
  0.10859999999999999          11.417822565690965     
  0.10890000000000000          12.760427175432762     
  0.10920000000000001          13.915385878027477     
  0.10950000000000001          14.853235859101252     
  0.10979999999999999          15.539623863111707     
  0.11009999999999999          15.945797563202870     
  0.11040000000000001          16.044921518341919     
  0.11070000000000001          15.820779450595193     
  0.11100000000000000          15.266133925761430     
  0.11130000000000000          14.386728924244499     
  0.11160000000000002          13.203111358754038     
  0.11190000000000001          11.748213510346956     
  0.11220000000000001          10.069269913296319     
  0.11250000000000000          8.2232788193966133     
  0.11280000000000000          6.2752097670106224     
  0.11309999999999999          4.2945183782410172     
  0.11340000000000001          2.3494359958972262     
  0.11369999999999998         0.50524424799301904     
  0.11400000000000000         -1.1820183678210694     
  0.11430000000000000         -2.6660913766794092     
  0.11460000000000002         -3.9153486740074674     
  0.11489999999999999         -4.9124177713871786     
  0.11520000000000001         -5.6547840683297652     
  0.11550000000000001         -6.1560529206682286     
  0.11580000000000000         -6.4395903026457200     
  0.11609999999999999         -6.5420597454899694     
  0.11640000000000002         -6.5044320507699327     
  0.11670000000000001         -6.3731416197747830     
  0.11700000000000001         -6.1923016106714055     
  0.11730000000000000         -6.0030425650998938     
  0.11760000000000000         -5.8385142014846547     
  0.11789999999999999         -5.7220815398678129     
  0.11820000000000001         -5.6654275670199672     
  0.11850000000000001         -5.6677073273893575     
  0.11880000000000000         -5.7161673345255419     
  0.11910000000000000         -5.7888320714955528     
  0.11940000000000002         -5.8547624368631297     
  0.11970000000000001         -5.8794454346699894     
  0.12000000000000001         -5.8277210010228799     
  0.12030000000000000         -5.6664041316996627     
  0.12060000000000000         -5.3714660490669770     
  0.12089999999999999         -4.9246424602681236     
  0.12119999999999999         -4.3234433215691643     
  0.12150000000000001         -3.5739268493765803     
  0.12180000000000001         -2.6976200950307851     
  0.12210000000000000         -1.7246450997963083     
  0.12239999999999999        -0.69470517238827556     
  0.12270000000000002         0.34623270542794443     
  0.12300000000000001          1.3524982635613048     
  0.12330000000000001          2.2764343712101889     
  0.12360000000000000          3.0792805457537389     
  0.12390000000000000          3.7266427624542109     
  0.12419999999999999          4.1967877377528637     
  0.12450000000000001          4.4779104145547661     
  0.12480000000000001          4.5701240417516473     
  0.12509999999999999          4.4852146032291547     
  0.12540000000000001          4.2440670893550472     
  0.12570000000000003          3.8758176804123528     
  0.12600000000000000          3.4146284202976704     
  0.12630000000000002          2.8972768046475639     
  0.12659999999999999          2.3618282661133621     
  0.12690000000000001          1.8429935689906878     
  0.12719999999999998          1.3729852082597847     
  0.12750000000000000         0.97726634726951178     
  0.12780000000000002         0.67559401783124595     
  0.12809999999999999         0.48023601772082614     
  0.12840000000000001         0.39576822499684244     
  0.12869999999999998         0.41930154268871100     
  0.12900000000000000         0.54016983878759484     
  0.12930000000000003         0.74130851207997017     
  0.12959999999999999         0.99843561414237414     
  0.12990000000000002          1.2840685759853887     
  0.13019999999999998          1.5653734049340662     
  0.13050000000000000          1.8102040053045041     
  0.13080000000000003          1.9849654122304847     
  0.13109999999999999          2.0622651197667810     
  0.13140000000000002          2.0175437504489961     
  0.13169999999999998          1.8382854022884072     
  0.13200000000000001          1.5188151178216647     
  0.13229999999999997          1.0672062271890204     
  0.13260000000000000         0.50238552963747962     
  0.13290000000000002        -0.14660800935224425     
  0.13319999999999999        -0.83967769058520503     
  0.13350000000000001         -1.5353106081243462     
  0.13380000000000003         -2.1840140468394935     
  0.13410000000000000         -2.7440998037789139     
  0.13440000000000002         -3.1746353444083364     
  0.13469999999999999         -3.4474128907381112     
  0.13500000000000001         -3.5447870846001823     
  0.13529999999999998         -3.4619225593769705     
  0.13560000000000000         -3.2096306439104416     
  0.13590000000000002         -2.8083574002824077     
  0.13619999999999999         -2.2922956281228362     
  0.13650000000000001         -1.6998420428856080     
  0.13680000000000003         -1.0752508271186114     
  0.13710000000000000        -0.46171600544832475     
  0.13740000000000002         0.10124006597861937     
  0.13769999999999999         0.58038001290264674     
  0.13800000000000001         0.95178858260869315     
  0.13829999999999998          1.2017144849065209     
  0.13860000000000000          1.3266558281150185     
  0.13890000000000002          1.3341704215334795     
  0.13919999999999999          1.2393340678542231     
  0.13950000000000001          1.0657434109267674     
  0.13979999999999998         0.83939716185772328     
  0.14010000000000000         0.58974722651349221     
  0.14040000000000002         0.34470306187396471     
  0.14069999999999999         0.12884744072517343     
  0.14100000000000001         -3.6394133512141567E-002
  0.14130000000000004        -0.13899339534417851     
  0.14160000000000000        -0.17093580424130206     
  0.14189999999999997        -0.13392121389202949     
  0.14219999999999999         -3.5148718066162390E-002
  0.14250000000000002         0.11184666071419976     
  0.14279999999999998         0.28928035707089905     
  0.14310000000000000         0.47680097642903568     
  0.14339999999999997         0.65346311922372535     
  0.14369999999999999         0.79931419077259847     
  0.14400000000000002         0.89773498601653301     
  0.14429999999999998         0.93656615783020236     
  0.14460000000000001         0.90913019813714524     
  0.14490000000000003         0.81414077931648365     
  0.14520000000000000         0.65755884263159059     
  0.14550000000000002         0.44984998018096845     
  0.14579999999999999         0.20619303616045828     
  0.14610000000000001         -5.2903112063371949E-002
  0.14640000000000003        -0.30867218804159002     
  0.14670000000000000        -0.53816264174536388     
  0.14699999999999996        -0.72318713680232916     
  0.14729999999999999        -0.84727226120787302     
  0.14760000000000001        -0.89829556310302172     
  0.14789999999999998        -0.87103651022453421     
  0.14820000000000000        -0.76477090639328471     