  -1.4999999999999999E-002     0.0000000000000000     
  -1.4700000000000000E-002     0.0000000000000000     
  -1.4400000000000000E-002     0.0000000000000000     
  -1.4100000000000000E-002     0.0000000000000000     
  -1.3800000000000000E-002     0.0000000000000000     
  -1.3500000000000000E-002     0.0000000000000000     
  -1.3200000000000000E-002     0.0000000000000000     
  -1.2899999999999998E-002     0.0000000000000000     
  -1.2600000000000000E-002     0.0000000000000000     
  -1.2299999999999998E-002     0.0000000000000000     
  -1.2000000000000000E-002     0.0000000000000000     
  -1.1699999999999999E-002     0.0000000000000000     
  -1.1399999999999999E-002     0.0000000000000000     
  -1.1099999999999999E-002     0.0000000000000000     
  -1.0799999999999999E-002     0.0000000000000000     
  -1.0499999999999999E-002     0.0000000000000000     
  -1.0199999999999999E-002     0.0000000000000000     
  -9.8999999999999991E-003     0.0000000000000000     
  -9.5999999999999992E-003     0.0000000000000000     
  -9.2999999999999992E-003     0.0000000000000000     
  -8.9999999999999993E-003     0.0000000000000000     
  -8.6999999999999994E-003     0.0000000000000000     
  -8.3999999999999995E-003     0.0000000000000000     
  -8.0999999999999996E-003     0.0000000000000000     
  -7.7999999999999988E-003     0.0000000000000000     
  -7.4999999999999997E-003     0.0000000000000000     
  -7.1999999999999998E-003     0.0000000000000000     
  -6.8999999999999981E-003     0.0000000000000000     
  -6.5999999999999982E-003     0.0000000000000000     
  -6.3000000000000000E-003     0.0000000000000000     
  -6.0000000000000001E-003     0.0000000000000000     
  -5.6999999999999985E-003     0.0000000000000000     
  -5.3999999999999986E-003     0.0000000000000000     
  -5.1000000000000004E-003     0.0000000000000000     
  -4.7999999999999987E-003     0.0000000000000000     
  -4.5000000000000005E-003     0.0000000000000000     
  -4.1999999999999989E-003     0.0000000000000000     
  -3.8999999999999990E-003     0.0000000000000000     
  -3.5999999999999990E-003     0.0000000000000000     
  -3.2999999999999991E-003     0.0000000000000000     
  -2.9999999999999992E-003     0.0000000000000000     
  -2.6999999999999993E-003     0.0000000000000000     
  -2.3999999999999994E-003     0.0000000000000000     
  -2.0999999999999977E-003     0.0000000000000000     
  -1.7999999999999995E-003     0.0000000000000000     
  -1.4999999999999979E-003     0.0000000000000000     
  -1.1999999999999997E-003     0.0000000000000000     
  -8.9999999999999976E-004     0.0000000000000000     
  -5.9999999999999810E-004     0.0000000000000000     
  -2.9999999999999992E-004     0.0000000000000000     
   0.0000000000000000          0.0000000000000000     
   3.0000000000000165E-004     0.0000000000000000     
   5.9999999999999984E-004     0.0000000000000000     
   9.0000000000000149E-004     0.0000000000000000     
   1.2000000000000031E-003     0.0000000000000000     
   1.5000000000000013E-003     0.0000000000000000     
   1.8000000000000030E-003     0.0000000000000000     
   2.1000000000000012E-003     0.0000000000000000     
   2.3999999999999994E-003     0.0000000000000000     
   2.7000000000000010E-003     0.0000000000000000     
   2.9999999999999992E-003     0.0000000000000000     
   3.3000000000000008E-003     0.0000000000000000     
   3.6000000000000025E-003     0.0000000000000000     
   3.9000000000000007E-003     0.0000000000000000     
   4.2000000000000023E-003     0.0000000000000000     
   4.5000000000000005E-003     0.0000000000000000     
   4.7999999999999987E-003     0.0000000000000000     
   5.1000000000000004E-003     0.0000000000000000     
   5.4000000000000020E-003     0.0000000000000000     
   5.7000000000000037E-003     0.0000000000000000     
   5.9999999999999984E-003     0.0000000000000000     
   6.3000000000000000E-003     0.0000000000000000     
   6.6000000000000017E-003     0.0000000000000000     
   6.9000000000000034E-003     0.0000000000000000     
   7.2000000000000015E-003     0.0000000000000000     
   7.5000000000000032E-003     0.0000000000000000     
   7.8000000000000014E-003     0.0000000000000000     
   8.0999999999999996E-003     0.0000000000000000     
   8.4000000000000012E-003     1.0868699798725705E-037
   8.7000000000000029E-003     1.4612053786625301E-036
   9.0000000000000011E-003    -2.7707147089393935E-036
   9.2999999999999992E-003    -4.2591320538765621E-036
   9.6000000000000009E-003     1.1956364235740215E-035
   9.8999999999999991E-003    -9.8567665015136148E-035
   1.0200000000000001E-002     3.0069070497595409E-034
   1.0500000000000002E-002    -6.2012015393808745E-034
   1.0800000000000004E-002     4.5127825173576094E-034
   1.1099999999999999E-002     3.4899949016980509E-034
   1.1400000000000000E-002    -1.0202333561617850E-033
   1.1700000000000002E-002    -1.1744068699248368E-033
   1.2000000000000004E-002     7.8595072544776754E-033
   1.2300000000000002E-002    -9.5439246060747474E-033
   1.2600000000000000E-002    -1.1787702294008626E-032
   1.2900000000000002E-002     5.3879892720610689E-032
   1.3200000000000000E-002    -4.7902663613872534E-032
   1.3500000000000002E-002    -1.0885518307219319E-031
   1.3800000000000003E-002     3.3431919552714089E-031
   1.4100000000000001E-002    -1.5398967114782465E-031
   1.4400000000000000E-002    -8.7441230087920892E-031
   1.4700000000000001E-002     1.8592383723101402E-030
   1.4999999999999999E-002    -5.0488250521741829E-032
   1.5300000000000001E-002    -5.7648209495199125E-030
   1.5600000000000003E-002     8.8125047451691498E-030
   1.5899999999999997E-002     4.3317982555151753E-030
   1.6199999999999999E-002    -3.2565740196617862E-029
   1.6500000000000001E-002     3.5079940110414165E-029
   1.6800000000000002E-002     4.1839434838040497E-029
   1.7100000000000004E-002    -1.5772079348833434E-028
   1.7400000000000006E-002     1.0992209110225864E-028
   1.7700000000000000E-002     2.6544704631757704E-028
   1.8000000000000002E-002    -6.5335777558505537E-028
   1.8300000000000004E-002     2.1999339588195453E-028
   1.8600000000000005E-002     1.3193908715659677E-027
   1.8900000000000000E-002    -2.2814900394433119E-027
   1.9200000000000002E-002    -1.1584307266243287E-028
   1.9500000000000003E-002     5.3522790849694061E-027
   1.9799999999999998E-002    -6.4776963919846410E-027
   2.0100000000000000E-002    -3.5123306687370692E-027
   2.0400000000000001E-002     1.7669488059260545E-026
   2.0700000000000003E-002    -1.3611307594937633E-026
   2.0999999999999998E-002    -1.8624195720535488E-026
   2.1299999999999999E-002     4.5235314222756486E-026
   2.1600000000000001E-002    -1.3848901678318546E-026
   2.1900000000000003E-002    -6.1489623319789917E-026
   2.2200000000000004E-002     7.3670896455768315E-026
   2.2500000000000006E-002     3.7060826795028725E-026
   2.2800000000000001E-002    -1.2041834858401570E-025
   2.3100000000000002E-002    -3.3713047442179557E-026
   2.3400000000000004E-002     2.5487042453594010E-025
   2.3699999999999999E-002     4.2344073223758645E-026
   2.4000000000000000E-002    -9.5289026278116835E-025
   2.4300000000000002E-002     1.0754589783595764E-024
   2.4599999999999997E-002     2.0307327562877570E-024
   2.4900000000000005E-002    -9.1355677289065290E-024
   2.5200000000000000E-002     1.1204038604353262E-023
   2.5499999999999995E-002     2.8522007942334155E-023
   2.5800000000000003E-002    -1.5731827760366508E-022
   2.6099999999999998E-002     2.0800404894760338E-022
   2.6400000000000007E-002     6.3438766983834500E-022
   2.6700000000000002E-002    -3.0481204312124783E-021
   2.6999999999999996E-002     2.5787233050408174E-021
   2.7300000000000005E-002     1.4922984840312106E-020
   2.7600000000000000E-002    -4.7003021755414887E-020
   2.7900000000000008E-002    -4.8181349678370996E-021
   2.8200000000000003E-002     2.9588172664468798E-019
   2.8499999999999998E-002    -4.5014233063330360E-019
   2.8800000000000006E-002    -1.0978682206750775E-018
   2.9100000000000001E-002     4.3046512089616941E-018
   2.9400000000000003E-002     5.8367489966962181E-019
   2.9700000000000004E-002    -2.6662274513068292E-017
   3.0000000000000006E-002     3.3096641559228346E-017
   3.0300000000000001E-002     1.0783938377366540E-016
   3.0600000000000002E-002    -3.1889729837704353E-016
   3.0900000000000004E-002    -1.9524654916410612E-016
   3.1199999999999999E-002     1.8856831729247086E-015
   3.1500000000000007E-002    -9.6785875551535429E-016
   3.1800000000000002E-002    -8.9290580751894208E-015
   3.2099999999999997E-002     1.4905793739775686E-014
   3.2400000000000005E-002     2.9432987064036515E-014
   3.2700000000000000E-002    -1.1346507600042548E-013
   3.3000000000000002E-002     9.9405289730457770E-015
   3.3300000000000003E-002     5.0125022773230523E-013
   3.3599999999999998E-002    -7.5900194454148665E-013
   3.3900000000000000E-002    -8.4144246761107742E-013
   3.4200000000000001E-002     3.9358469529878183E-012
   3.4500000000000003E-002    -3.1091109942669550E-012
   3.4799999999999998E-002    -7.1347040599395688E-012
   3.5099999999999999E-002     2.0057384155727628E-011
   3.5400000000000001E-002    -1.4271548214298077E-011
   3.5699999999999996E-002    -2.7858699161599297E-011
   3.6000000000000004E-002     9.1553940021938933E-011
   3.6299999999999999E-002    -1.0553511231720004E-010
   3.6600000000000008E-002    -4.9596308676740580E-011
   3.6900000000000002E-002     4.5426275902383034E-010
   3.7199999999999997E-002    -8.7885638097022414E-010
   3.7500000000000006E-002     1.3756692048957812E-010
   3.7800000000000000E-002     3.5906337130891501E-009
   3.8100000000000009E-002    -6.7145973775371031E-009
   3.8400000000000004E-002    -7.9107494038980506E-009
   3.8699999999999998E-002     2.9285352402200804E-008
   3.9000000000000007E-002     1.3426546958085914E-008
   3.9300000000000002E-002    -1.0432717966716619E-007
   3.9600000000000003E-002     4.1972308935401412E-008
   3.9900000000000005E-002     1.8527637211805655E-006
   4.0200000000000000E-002     8.1543340661272224E-006
   4.0500000000000001E-002     2.0227936743744203E-005
   4.0800000000000003E-002     3.3856578932268569E-005
   4.1100000000000005E-002     4.4753200081577950E-005
   4.1399999999999999E-002     5.8413850147535077E-005
   4.1700000000000008E-002     8.6161726509955484E-005
   4.2000000000000003E-002     1.3452363014413978E-004
   4.2299999999999997E-002     2.0748487245773528E-004
   4.2600000000000006E-002     3.1363826611380128E-004
   4.2900000000000001E-002     4.6682098818720693E-004
   4.3200000000000002E-002     6.8524806631860562E-004
   4.3500000000000004E-002     9.8903598169570680E-004
   4.3799999999999999E-002     1.4007906651998846E-003
   4.4100000000000000E-002     1.9543165946451419E-003
   4.4400000000000002E-002     2.6909919984769333E-003
   4.4700000000000004E-002     3.6433334303410028E-003
   4.4999999999999998E-002     4.8378567516865912E-003
   4.5300000000000000E-002     6.3116856031213350E-003
   4.5600000000000002E-002     8.1095810058986542E-003
   4.5899999999999996E-002     1.0259143178256127E-002
   4.6200000000000005E-002     1.2747062950304429E-002
   4.6500000000000000E-002     1.5524893979109576E-002
   4.6799999999999994E-002     1.8533628653766881E-002
   4.7100000000000003E-002     2.1687175776341015E-002
   4.7399999999999998E-002     2.4831731467048986E-002
   4.7700000000000006E-002     2.7762858239812213E-002
   4.8000000000000001E-002     3.0271314857650118E-002
   4.8300000000000010E-002     3.2135478962075983E-002
   4.8600000000000004E-002     3.3106540395469987E-002
   4.8899999999999999E-002     3.2951858250277369E-002
   4.9200000000000008E-002     3.1519811410024967E-002
   4.9500000000000002E-002     2.8764095314140044E-002
   4.9800000000000011E-002     2.4742758690287435E-002
   5.0100000000000006E-002     1.9636498342820233E-002
   5.0400000000000000E-002     1.3752161072253043E-002
   5.0700000000000009E-002     7.4978979874794315E-003
   5.1000000000000004E-002     1.3230090255860027E-003
   5.1299999999999998E-002    -4.3617104985161602E-003
   5.1600000000000007E-002    -9.2764903919811958E-003
   5.1900000000000002E-002    -1.3397934432983063E-002
   5.2200000000000010E-002    -1.7056887078284545E-002
   5.2500000000000005E-002    -2.1059160297562617E-002
   5.2800000000000000E-002    -2.6753137365701302E-002
   5.3099999999999994E-002    -3.5930717546662411E-002
   5.3400000000000003E-002    -5.0743877727915117E-002
   5.3699999999999998E-002    -7.3594900570095975E-002
   5.4000000000000006E-002   -0.10682070348935746     
   5.4300000000000001E-002   -0.15233062836900882     
   5.4599999999999996E-002   -0.21122491920039840     
   5.4900000000000004E-002   -0.28344980570087341     
   5.5199999999999999E-002   -0.36745103262781126     
   5.5499999999999994E-002   -0.45995266069967600     
   5.5800000000000002E-002   -0.55589465936410731     
   5.6099999999999997E-002   -0.64857777700382846     
   5.6400000000000006E-002   -0.73001180773041441     
   5.6700000000000000E-002   -0.79141121732950737     
   5.6999999999999995E-002   -0.82391317543695375     
   5.7300000000000004E-002   -0.81944129253678799     
   5.7599999999999998E-002   -0.77141944999266954     
   5.7900000000000007E-002   -0.67564785203670885     
   5.8200000000000002E-002   -0.53096212967180190     
   5.8499999999999996E-002   -0.33954284645492083     
   5.8800000000000005E-002   -0.10716630892910733     
   5.9100000000000000E-002    0.15700557751819633     
   5.9400000000000008E-002    0.44090805409093614     
   5.9700000000000003E-002    0.73028301904877457     
   6.0000000000000012E-002     1.0096256928621183     
   6.0300000000000006E-002     1.2632220413767148     
   6.0600000000000001E-002     1.4764498800152057     
   6.0900000000000010E-002     1.6365418708741655     
   6.1200000000000004E-002     1.7335687736659335     
   6.1500000000000013E-002     1.7613511243592730     
   6.1800000000000008E-002     1.7174292767870307     
   6.2100000000000002E-002     1.6036907720988685     
   6.2399999999999997E-002     1.4256687038848708     
   6.2700000000000006E-002     1.1926173939252303     
   6.3000000000000000E-002    0.91641087066488547     
   6.3300000000000009E-002    0.61100608156314262     
   6.3600000000000004E-002    0.29143749065669100     
   6.3899999999999998E-002    -2.7191176322018448E-002
   6.4199999999999993E-002   -0.33048984071661769     
   6.4500000000000002E-002   -0.60552759850198279     
   6.4800000000000010E-002   -0.84166513445946967     
   6.5100000000000005E-002    -1.0306940383495768     
   6.5400000000000000E-002    -1.1673077306825079     
   6.5700000000000008E-002    -1.2489478534601506     
   6.5999999999999989E-002    -1.2758284032542604     
   6.6299999999999998E-002    -1.2504421177350948     
   6.6600000000000006E-002    -1.1773762213775181     
   6.6900000000000001E-002    -1.0628131729727810     
   6.7199999999999996E-002   -0.91410136975714273     
   6.7500000000000004E-002   -0.73942680705317065     
   6.7800000000000013E-002   -0.54749267655912037     
   6.8099999999999994E-002   -0.34710937314905166     
   6.8400000000000002E-002   -0.14717404040079832     
   6.8700000000000011E-002     4.3685792994622996E-002
   6.8999999999999992E-002    0.21735905025999380     
   6.9300000000000000E-002    0.36641482533742331     
   6.9600000000000009E-002    0.48457937593590661     
   6.9900000000000004E-002    0.56686673100851936     
   7.0199999999999999E-002    0.61010090312745580     
   7.0500000000000007E-002    0.61333824757929278     
   7.0800000000000016E-002    0.57791336847980423     
   7.1099999999999997E-002    0.50774949044164075     
   7.1400000000000005E-002    0.40921738038089966     
   7.1700000000000000E-002    0.29083297692111998     
   7.1999999999999995E-002    0.16286785818775587     
   7.2300000000000003E-002     3.6586891689052700E-002
   7.2600000000000012E-002    -7.6505588430612462E-002
   7.2900000000000006E-002   -0.16585498654075131     
   7.3200000000000001E-002   -0.22241143888412485     
   7.3499999999999996E-002   -0.23974655329662481     
   7.3800000000000004E-002   -0.21464774183966273     
   7.4099999999999999E-002   -0.14740847602491500     
   7.4400000000000008E-002    -4.2118908332475613E-002
   7.4700000000000003E-002     9.3612799921645451E-002
   7.5000000000000011E-002    0.24902245828212005     
   7.5299999999999992E-002    0.41088697259356677     
   7.5600000000000001E-002    0.56456649554464033     
   7.5900000000000009E-002    0.69484025093431045     
   7.6200000000000004E-002    0.78723119911753270     
   7.6499999999999999E-002    0.82892705020199031     
   7.6800000000000007E-002    0.81003492375445385     
   7.7099999999999988E-002    0.72432063196433993     
   7.7399999999999997E-002    0.57007202282136116     
   7.7700000000000005E-002    0.35040136641562447     
   7.8000000000000014E-002     7.3558860260290349E-002
   7.8299999999999995E-002   -0.24738414497152475     
   7.8600000000000003E-002   -0.59522567043130714     
   7.8900000000000012E-002   -0.94945573657123750     
   7.9199999999999993E-002    -1.2875847149842612     
   7.9500000000000001E-002    -1.5868857898229798     
   7.9800000000000010E-002    -1.8258027903600818     
   8.0100000000000018E-002    -1.9859481933542611     
   8.0399999999999999E-002    -2.0537582589075605     
   8.0700000000000008E-002    -2.0214805970159442     
   8.1000000000000003E-002    -1.8881664822485122     
   8.1299999999999997E-002    -1.6601062876177779     
   8.1600000000000006E-002    -1.3502465510365795     
   8.1900000000000014E-002   -0.97749598593973364     
   8.2199999999999995E-002   -0.56527412564908563     
   8.2500000000000004E-002   -0.13936891978710708     
   8.2799999999999999E-002    0.27369307127805198     
   8.3100000000000007E-002    0.64907022315116547     
   8.3400000000000002E-002    0.96558357426879704     
   8.3700000000000011E-002     1.2071851368892830     
   8.4000000000000005E-002     1.3639809451347675     
   8.4300000000000000E-002     1.4330125923480106     
   8.4599999999999995E-002     1.4178863200678888     
   8.4900000000000003E-002     1.3282861569648063     
   8.5199999999999998E-002     1.1788134613214991     
   8.5500000000000007E-002    0.98752879603234378     
   8.5800000000000001E-002    0.77406781153049486     
   8.6100000000000010E-002    0.55847244780113448     
   8.6399999999999991E-002    0.35905090551521868     
   8.6699999999999999E-002    0.19172588886846842     
   8.7000000000000008E-002     6.8684279694733327E-002
   8.7300000000000003E-002    -1.9787616945489261E-003
   8.7599999999999997E-002    -1.6655868433674764E-002
   8.7900000000000006E-002     2.4147929584017333E-002
   8.8200000000000014E-002    0.11596106056143068     
   8.8499999999999995E-002    0.25110393647348489     
   8.8800000000000004E-002    0.41914410391779489     
   8.9100000000000013E-002    0.60780576965715594     
   8.9399999999999993E-002    0.80356524664589524     
   8.9700000000000002E-002    0.99235923675761040     
   9.0000000000000011E-002     1.1602427167682199     
   9.0299999999999991E-002     1.2942489697498039     
   9.0600000000000000E-002     1.3825651152341827     
   9.0900000000000009E-002     1.4156708778183871     
   9.1200000000000017E-002     1.3864307066033266     
   9.1499999999999998E-002     1.2909229496323618     
   9.1800000000000007E-002     1.1288008547532620     
   9.2100000000000001E-002    0.90345427212966234     
   9.2399999999999996E-002    0.62215765164586245     
   9.2700000000000005E-002    0.29574080574533668     
   9.3000000000000013E-002    -6.1980374196233076E-002
   9.3300000000000008E-002   -0.43488746526321093     
   9.3600000000000003E-002   -0.80594452647957171     
   9.3899999999999997E-002    -1.1581057491187710     
   9.4200000000000006E-002    -1.4759066776971668     
   9.4500000000000001E-002    -1.7464816292392649     
   9.4800000000000009E-002    -1.9605778354094747     
   9.5100000000000004E-002    -2.1129852817578345     
   9.5399999999999999E-002    -2.2024047186965321     
   9.5699999999999993E-002    -2.2314406136341063     
   9.6000000000000002E-002    -2.2051582071193825     
   9.6300000000000011E-002    -2.1301857482565190     
   9.6600000000000005E-002    -2.0136732961241948     
   9.6900000000000000E-002    -1.8612867797050372     
   9.7200000000000009E-002    -1.6772368280957244     
   9.7499999999999989E-002    -1.4633400800736125     
   9.7799999999999998E-002    -1.2191054106717865     
   9.8100000000000007E-002   -0.94313971210515612     
   9.8400000000000015E-002   -0.63379251062602660     
   9.8699999999999996E-002   -0.29122174549263979     
   9.9000000000000005E-002     8.1040732101224061E-002
   9.9300000000000013E-002    0.47456603995512775     
   9.9599999999999994E-002    0.87523326065152007     
   9.9900000000000003E-002     1.2627415823956238     
  0.10020000000000001          1.6114652972891572     
  0.10049999999999999          1.8925017934681438     
  0.10080000000000000          2.0754709129506903     
  0.10110000000000001          2.1320112601866477     
  0.10140000000000000          2.0393179121549525     
  0.10170000000000000          1.7828230396417131     
  0.10200000000000001          1.3598490082797545     
  0.10230000000000002         0.78055850931439208     
  0.10260000000000000          6.9255003902537027E-002
  0.10290000000000001        -0.73637115460718183     
  0.10320000000000000         -1.5870285612708610     
  0.10350000000000001         -2.4253399321418065     
  0.10380000000000000         -3.1892177285909802     
  0.10410000000000001         -3.8171285094709759     
  0.10440000000000001         -4.2525487552401273     
  0.10470000000000000         -4.4481880910335976     
  0.10500000000000000         -4.3705690625404578     
  0.10530000000000000         -4.0021517145354979     
  0.10560000000000000         -3.3435361183789842     
  0.10590000000000001         -2.4134844088001364     
  0.10620000000000000         -1.2485011758662796     
  0.10650000000000001          9.9843404054657581E-002
  0.10679999999999999          1.5675182214593637     
  0.10710000000000000          3.0817919947651204     
  0.10740000000000001          4.5655221319034460     
  0.10770000000000000          5.9408694730812543     
  0.10800000000000000          7.1347639884978005     
  0.10830000000000001          8.0813929422015782     
  0.10859999999999999          8.7264052021690208     
  0.10890000000000000          9.0294665781789938     
  0.10920000000000001          8.9662047549100059     
  0.10950000000000001          8.5301517922407690     
  0.10979999999999999          7.7323640403098750     
  0.11009999999999999          6.6023791539578225     
  0.11040000000000001          5.1857249147579187     
  0.11070000000000001          3.5430236190848214     
  0.11100000000000000          1.7468893790679569     
  0.11130000000000000        -0.12196983315361748     
  0.11160000000000002         -1.9784782754051435     
  0.11190000000000001         -3.7376591055112973     
  0.11220000000000001         -5.3200696986665337     
  0.11250000000000000         -6.6555547035207763     
  0.11280000000000000         -7.6878904248937090     
  0.11309999999999999         -8.3782319946572716     
  0.11340000000000001         -8.7064372489059849     
  0.11369999999999998         -8.6737062607933950     
  0.11400000000000000         -8.2998588178260526     
  0.11430000000000000         -7.6239120964139566     
  0.11460000000000002         -6.6987551708520536     
  0.11489999999999999         -5.5884944820770226     
  0.11520000000000001         -4.3631971572939916     
  0.11550000000000001         -3.0933880156052824     
  0.11580000000000000         -1.8464155503327091     
  0.11609999999999999        -0.68103332357977664     
  0.11640000000000002         0.35558221761539738     
  0.11670000000000001          1.2295781648005200     
  0.11700000000000001          1.9230562161306706     
  0.11730000000000000          2.4317210776770790     
  0.11760000000000000          2.7655121944440175     
  0.11789999999999999          2.9455354439541601     
  0.11820000000000001          3.0008245172029264     
  0.11850000000000001          2.9659201706401559     
  0.11880000000000000          2.8765065407622128     
  0.11910000000000000          2.7662838845941060     
  0.11940000000000002          2.6646791044312446     
  0.11970000000000001          2.5930631749706241     
  0.12000000000000001          2.5653574451975691     
  0.12030000000000000          2.5847272944369966     
  0.12060000000000000          2.6467164621098513     
  0.12089999999999999          2.7384666489174863     
  0.12119999999999999          2.8405688032406355     
  0.12150000000000001          2.9311207993181849     
  0.12180000000000001          2.9864907169483601     
  0.12210000000000000          2.9848433330586541     
  0.12239999999999999          2.9087151872379424     
  0.12270000000000002          2.7459228739230150     
  0.12300000000000001          2.4920446027888681     
  0.12330000000000001          2.1486343162940882     
  0.12360000000000000          1.7250116089900147     
  0.12390000000000000          1.2349939615802619     
  0.12419999999999999         0.69637159451389619     
  0.12450000000000001         0.12888140804047427     
  0.12480000000000001        -0.44884259004405896     
  0.12509999999999999         -1.0194770841790433     
  0.12540000000000001         -1.5689455594689248     
  0.12570000000000003         -2.0875908900128195     
  0.12600000000000000         -2.5681307965505105     
  0.12630000000000002         -3.0073987087161251     
  0.12659999999999999         -3.4036286495697694     
  0.12690000000000001         -3.7554298766058585     
  0.12719999999999998         -4.0617590841565079     
  0.12750000000000000         -4.3198240103409153     
  0.12780000000000002         -4.5247367477785350     
  0.12809999999999999         -4.6708085001923152     
  0.12840000000000001         -4.7505989402956050     
  0.12869999999999998         -4.7569565851107622     
  0.12900000000000000         -4.6840349551505875     
  0.12930000000000003         -4.5281091409357872     
  0.12959999999999999         -4.2896474367844135     
  0.12990000000000002         -3.9730200002920100     
  0.13019999999999998         -3.5873150786655570     
  0.13050000000000000         -3.1461332102870818     
  0.13080000000000003         -2.6661598600517502     
  0.13109999999999999         -2.1665165839590670     
  0.13140000000000002         -1.6666570995771617     
  0.13169999999999998         -1.1853806915134091     
  0.13200000000000001        -0.73841127307941656     
  0.13229999999999997        -0.33815040742076180     
  0.13260000000000000          7.7401924022803548E-003
  0.13290000000000002         0.29720726715780016     
  0.13319999999999999         0.53302795384645874     
  0.13350000000000001         0.72229547985859888     
  0.13380000000000003         0.87634183853845637     
  0.13410000000000000          1.0086801152073117     
  0.13440000000000002          1.1342961603953756     
  0.13469999999999999          1.2685419762653707     
  0.13500000000000001          1.4244385477048067     
  0.13529999999999998          1.6132002206805840     
  0.13560000000000000          1.8424509155689726     
  0.13590000000000002          2.1147268127815000     
  0.13619999999999999          2.4287935081319456     
  0.13650000000000001          2.7775442338692820     
  0.13680000000000003          3.1498464625059359     
  0.13710000000000000          3.5310410427617480     
  0.13740000000000002          3.9023505826847069     
  0.13769999999999999          4.2446395584464200     
  0.13800000000000001          4.5371408440462604     
  0.13829999999999998          4.7617908630092050     
  0.13860000000000000          4.9020290204838526     
  0.13890000000000002          4.9462513830023198     
  0.13919999999999999          4.8879344745872437     
  0.13950000000000001          4.7258772657231312     
  0.13979999999999998          4.4655872388034119     
  0.14010000000000000          4.1178562774159886     
  0.14040000000000002          3.6984442347750104     
  0.14069999999999999          3.2280908348256894     
  0.14100000000000001          2.7282968619246524     
  0.14130000000000004          2.2237904632974468     
  0.14160000000000000          1.7366265251008199     
  0.14189999999999997          1.2877558916815646     
  0.14219999999999999         0.89436948704893693     
  0.14250000000000002         0.56842828516515376     
  0.14279999999999998         0.31735525538080300     
  0.14310000000000000         0.14203239569940695     
  0.14339999999999997          3.7219142432260766E-002
  0.14369999999999999         -6.8947950172744965E-003
  0.14400000000000002         -6.1060261525933690E-003
  0.14429999999999998          2.2653602640554618E-002
  0.14460000000000001          5.7368865736299429E-002
  0.14490000000000003          7.8731632957167216E-002
  0.14520000000000000          6.6508777156090881E-002
  0.14550000000000002          4.7968250516005131E-003
  0.14579999999999999        -0.11811210687574372     
  0.14610000000000001        -0.30986800268180298     
  0.14640000000000003        -0.57061037350808108     
  0.14670000000000000        -0.89667848277982443     
  0.14699999999999996         -1.2789193047925931     
  0.14729999999999999         -1.7045912559831509     
  0.14760000000000001         -2.1603896015924806     
  0.14789999999999998         -2.6313337507749228     
  0.14820000000000000         -3.1053193094624270     