  -1.4999999999999999E-002     0.0000000000000000     
  -1.4700000000000000E-002     0.0000000000000000     
  -1.4400000000000000E-002     0.0000000000000000     
  -1.4100000000000000E-002     0.0000000000000000     
  -1.3800000000000000E-002     0.0000000000000000     
  -1.3500000000000000E-002     0.0000000000000000     
  -1.3200000000000000E-002     0.0000000000000000     
  -1.2899999999999998E-002     0.0000000000000000     
  -1.2600000000000000E-002     0.0000000000000000     
  -1.2299999999999998E-002     0.0000000000000000     
  -1.2000000000000000E-002     0.0000000000000000     
  -1.1699999999999999E-002     0.0000000000000000     
  -1.1399999999999999E-002     0.0000000000000000     
  -1.1099999999999999E-002     0.0000000000000000     
  -1.0799999999999999E-002     0.0000000000000000     
  -1.0499999999999999E-002     0.0000000000000000     
  -1.0199999999999999E-002     0.0000000000000000     
  -9.8999999999999991E-003     0.0000000000000000     
  -9.5999999999999992E-003     0.0000000000000000     
  -9.2999999999999992E-003     0.0000000000000000     
  -8.9999999999999993E-003     0.0000000000000000     
  -8.6999999999999994E-003     0.0000000000000000     
  -8.3999999999999995E-003     0.0000000000000000     
  -8.0999999999999996E-003     0.0000000000000000     
  -7.7999999999999988E-003     0.0000000000000000     
  -7.4999999999999997E-003     0.0000000000000000     
  -7.1999999999999998E-003     0.0000000000000000     
  -6.8999999999999981E-003     0.0000000000000000     
  -6.5999999999999982E-003     0.0000000000000000     
  -6.3000000000000000E-003     0.0000000000000000     
  -6.0000000000000001E-003     0.0000000000000000     
  -5.6999999999999985E-003     0.0000000000000000     
  -5.3999999999999986E-003     0.0000000000000000     
  -5.1000000000000004E-003     0.0000000000000000     
  -4.7999999999999987E-003     0.0000000000000000     
  -4.5000000000000005E-003     0.0000000000000000     
  -4.1999999999999989E-003     0.0000000000000000     
  -3.8999999999999990E-003     0.0000000000000000     
  -3.5999999999999990E-003     0.0000000000000000     
  -3.2999999999999991E-003     0.0000000000000000     
  -2.9999999999999992E-003     0.0000000000000000     
  -2.6999999999999993E-003     0.0000000000000000     
  -2.3999999999999994E-003     0.0000000000000000     
  -2.0999999999999977E-003     0.0000000000000000     
  -1.7999999999999995E-003     0.0000000000000000     
  -1.4999999999999979E-003     0.0000000000000000     
  -1.1999999999999997E-003     0.0000000000000000     
  -8.9999999999999976E-004     0.0000000000000000     
  -5.9999999999999810E-004     0.0000000000000000     
  -2.9999999999999992E-004     0.0000000000000000     
   0.0000000000000000          0.0000000000000000     
   3.0000000000000165E-004     0.0000000000000000     
   5.9999999999999984E-004     0.0000000000000000     
   9.0000000000000149E-004     0.0000000000000000     
   1.2000000000000031E-003     0.0000000000000000     
   1.5000000000000013E-003     0.0000000000000000     
   1.8000000000000030E-003     0.0000000000000000     
   2.1000000000000012E-003     0.0000000000000000     
   2.3999999999999994E-003     0.0000000000000000     
   2.7000000000000010E-003     0.0000000000000000     
   2.9999999999999992E-003     0.0000000000000000     
   3.3000000000000008E-003     0.0000000000000000     
   3.6000000000000025E-003     0.0000000000000000     
   3.9000000000000007E-003     0.0000000000000000     
   4.2000000000000023E-003     0.0000000000000000     
   4.5000000000000005E-003     0.0000000000000000     
   4.7999999999999987E-003     0.0000000000000000     
   5.1000000000000004E-003     0.0000000000000000     
   5.4000000000000020E-003     0.0000000000000000     
   5.7000000000000037E-003     0.0000000000000000     
   5.9999999999999984E-003     0.0000000000000000     
   6.3000000000000000E-003     0.0000000000000000     
   6.6000000000000017E-003     0.0000000000000000     
   6.9000000000000034E-003     0.0000000000000000     
   7.2000000000000015E-003     0.0000000000000000     
   7.5000000000000032E-003     0.0000000000000000     
   7.8000000000000014E-003     0.0000000000000000     
   8.0999999999999996E-003     0.0000000000000000     
   8.4000000000000012E-003     0.0000000000000000     
   8.7000000000000029E-003     0.0000000000000000     
   9.0000000000000011E-003     0.0000000000000000     
   9.2999999999999992E-003     0.0000000000000000     
   9.6000000000000009E-003     0.0000000000000000     
   9.8999999999999991E-003     0.0000000000000000     
   1.0200000000000001E-002     0.0000000000000000     
   1.0500000000000002E-002     0.0000000000000000     
   1.0800000000000004E-002     0.0000000000000000     
   1.1099999999999999E-002     0.0000000000000000     
   1.1400000000000000E-002     0.0000000000000000     
   1.1700000000000002E-002     0.0000000000000000     
   1.2000000000000004E-002     0.0000000000000000     
   1.2300000000000002E-002     0.0000000000000000     
   1.2600000000000000E-002     0.0000000000000000     
   1.2900000000000002E-002     0.0000000000000000     
   1.3200000000000000E-002     0.0000000000000000     
   1.3500000000000002E-002     0.0000000000000000     
   1.3800000000000003E-002     0.0000000000000000     
   1.4100000000000001E-002     0.0000000000000000     
   1.4400000000000000E-002     0.0000000000000000     
   1.4700000000000001E-002     0.0000000000000000     
   1.4999999999999999E-002     0.0000000000000000     
   1.5300000000000001E-002     0.0000000000000000     
   1.5600000000000003E-002     0.0000000000000000     
   1.5899999999999997E-002     0.0000000000000000     
   1.6199999999999999E-002     0.0000000000000000     
   1.6500000000000001E-002     0.0000000000000000     
   1.6800000000000002E-002     0.0000000000000000     
   1.7100000000000004E-002     0.0000000000000000     
   1.7400000000000006E-002     0.0000000000000000     
   1.7700000000000000E-002     0.0000000000000000     
   1.8000000000000002E-002     0.0000000000000000     
   1.8300000000000004E-002     0.0000000000000000     
   1.8600000000000005E-002     0.0000000000000000     
   1.8900000000000000E-002     0.0000000000000000     
   1.9200000000000002E-002     0.0000000000000000     
   1.9500000000000003E-002     0.0000000000000000     
   1.9799999999999998E-002     0.0000000000000000     
   2.0100000000000000E-002     0.0000000000000000     
   2.0400000000000001E-002     0.0000000000000000     
   2.0700000000000003E-002     0.0000000000000000     
   2.0999999999999998E-002     0.0000000000000000     
   2.1299999999999999E-002     0.0000000000000000     
   2.1600000000000001E-002     0.0000000000000000     
   2.1900000000000003E-002     0.0000000000000000     
   2.2200000000000004E-002     0.0000000000000000     
   2.2500000000000006E-002     0.0000000000000000     
   2.2800000000000001E-002    -4.4832992118653808E-042
   2.3100000000000002E-002    -1.6412360428824622E-041
   2.3400000000000004E-002     9.2961489658154931E-040
   2.3699999999999999E-002     2.4304958379080702E-037
   2.4000000000000000E-002     1.0832627176556286E-036
   2.4300000000000002E-002    -2.9277967351486860E-035
   2.4599999999999997E-002    -6.3272349228496394E-035
   2.4900000000000005E-002     5.8807661326082882E-034
   2.5200000000000000E-002    -3.6158959134582875E-033
   2.5499999999999995E-002     9.0219553696500914E-033
   2.5800000000000003E-002    -2.3936915727143321E-032
   2.6099999999999998E-002     6.9108273300914620E-032
   2.6400000000000007E-002    -2.0452507082672248E-031
   2.6700000000000002E-002     5.6752542978921564E-031
   2.6999999999999996E-002    -1.4306224350286740E-030
   2.7300000000000005E-002     3.1831668529370065E-030
   2.7600000000000000E-002    -5.8381072015177787E-030
   2.7900000000000008E-002     6.8036940736636335E-030
   2.8200000000000003E-002     6.3172804044177116E-030
   2.8499999999999998E-002    -7.4295762499554633E-029
   2.8800000000000006E-002     3.0415235630169204E-028
   2.9100000000000001E-002    -9.2126943392100511E-028
   2.9400000000000003E-002     2.2663629223771420E-027
   2.9700000000000004E-002    -4.4791029673506230E-027
   3.0000000000000006E-002     6.2191005380581694E-027
   3.0300000000000001E-002    -1.2981680494653372E-027
   3.0600000000000002E-002    -2.7581685911093528E-026
   3.0900000000000004E-002     1.1501442205895157E-025
   3.1199999999999999E-002    -3.0386724112808824E-025
   3.1500000000000007E-002     5.8182550782774091E-025
   3.1800000000000002E-002    -7.0142208319616406E-025
   3.2099999999999997E-002    -1.3798652833397079E-025
   3.2400000000000005E-002     3.5253567136661503E-024
   3.2700000000000000E-002    -1.1186423411829639E-023
   3.3000000000000002E-002     2.1957351714008901E-023
   3.3300000000000003E-002    -2.5501322887666283E-023
   3.3599999999999998E-002    -3.2179907505150503E-024
   3.3900000000000000E-002     9.3426662707529619E-023
   3.4200000000000001E-002    -2.2775505310946492E-022
   3.4500000000000003E-002     2.5628698163145925E-022
   3.4799999999999998E-002     8.8042692404854133E-023
   3.5099999999999999E-002    -6.9305400819056283E-022
   3.5400000000000001E-002    -3.4818882439014954E-022
   3.5699999999999996E-002     8.3954263088468526E-021
   3.6000000000000004E-002    -2.9525554539270488E-020
   3.6299999999999999E-002     5.1571294934903901E-020
   3.6600000000000008E-002     5.7492557984991204E-021
   3.6900000000000002E-002    -3.5635323275345329E-019
   3.7199999999999997E-002     1.2942665735672574E-018
   3.7500000000000006E-002    -2.6446859808910484E-018
   3.7800000000000000E-002     2.1977253078427015E-018
   3.8100000000000009E-002     6.5470232226364033E-018
   3.8400000000000004E-002    -3.3583695196473724E-017
   3.8699999999999998E-002     7.9040146811685133E-017
   3.9000000000000007E-002    -9.7848169313447032E-017
   3.9300000000000002E-002    -4.2524941190043610E-017
   3.9600000000000003E-002     5.4440605399577112E-016
   3.9900000000000005E-002    -1.5227427749226674E-015
   4.0200000000000000E-002     2.7352258424570667E-015
   4.0500000000000001E-002    -3.1275518772866302E-015
   4.0800000000000003E-002    -1.2099416362576208E-015
   4.1100000000000005E-002     2.3793894518407114E-014
   4.1399999999999999E-002    -9.3497826661154188E-014
   4.1700000000000008E-002     2.1155035548133206E-013
   4.2000000000000003E-002    -1.5380179419158069E-013
   4.2299999999999997E-002    -8.6055624444599188E-013
   4.2600000000000006E-002     3.8393783859521230E-012
   4.2900000000000001E-002    -6.7708314555821926E-012
   4.3200000000000002E-002    -3.0008692686607337E-012
   4.3500000000000004E-002     4.9551909002665424E-011
   4.3799999999999999E-002    -1.1839035565870943E-010
   4.4100000000000000E-002     1.2543881944401270E-011
   4.4400000000000002E-002     6.7084667069582595E-010
   4.4700000000000004E-002    -1.5783026810664238E-009
   4.4999999999999998E-002    -6.5845800071372804E-010
   4.5300000000000000E-002     1.0205846431083779E-008
   4.5600000000000002E-002    -1.2761118868390951E-008
   4.5899999999999996E-002    -4.0594557829376898E-008
   4.6200000000000005E-002     1.0645905889596030E-007
   4.6500000000000000E-002     1.0661810621259897E-007
   4.6799999999999994E-002    -6.2661675435227249E-007
   4.7100000000000003E-002     1.8600006014973089E-007
   4.7399999999999998E-002     8.2786174418707176E-006
   4.7700000000000006E-002     2.5482239687597638E-005
   4.8000000000000001E-002     4.5259277861130448E-005
   4.8300000000000010E-002     6.2026270847824900E-005
   4.8600000000000004E-002     8.0941296116693309E-005
   4.8899999999999999E-002     1.1425785995320343E-004
   4.9200000000000008E-002     1.7399303984287767E-004
   4.9500000000000002E-002     2.6983684308369007E-004
   4.9800000000000011E-002     4.0946084558573923E-004
   5.0100000000000006E-002     6.0382560163443303E-004
   5.0400000000000000E-002     8.7479521067536825E-004
   5.0700000000000009E-002     1.2518980646086986E-003
   5.1000000000000004E-002     1.7643171494321301E-003
   5.1299999999999998E-002     2.4447559598518116E-003
   5.1600000000000007E-002     3.3340145600170411E-003
   5.1900000000000002E-002     4.4685830966729560E-003
   5.2200000000000010E-002     5.8686731220953595E-003
   5.2500000000000005E-002     7.5419831482304647E-003
   5.2800000000000000E-002     9.4802413741030666E-003
   5.3099999999999994E-002     1.1634821325770605E-002
   5.3400000000000003E-002     1.3896399148405018E-002
   5.3699999999999998E-002     1.6085432305056324E-002
   5.4000000000000006E-002     1.7940189649421678E-002
   5.4300000000000001E-002     1.9095669042345477E-002
   5.4599999999999996E-002     1.9074230100926230E-002
   5.4900000000000004E-002     1.7300121766086564E-002
   5.5199999999999999E-002     1.3123595707845517E-002
   5.5499999999999994E-002     5.8406336920295340E-003
   5.5800000000000002E-002    -5.2530070486824709E-003
   5.6099999999999997E-002    -2.0762138740946443E-002
   5.6400000000000006E-002    -4.1085798433620695E-002
   5.6700000000000000E-002    -6.6301865325423759E-002
   5.6999999999999995E-002    -9.6050294357018673E-002
   5.7300000000000004E-002   -0.12941512151402057     
   5.7599999999999998E-002   -0.16480210968478198     
   5.7900000000000007E-002   -0.19985110478125573     
   5.8200000000000002E-002   -0.23150967509680506     
   5.8499999999999996E-002   -0.25617255550401308     
   5.8800000000000005E-002   -0.26976723961565069     
   5.9100000000000000E-002   -0.26799288094213136     
   5.9400000000000008E-002   -0.24678941057538129     
   5.9700000000000003E-002   -0.20280739129692055     
   6.0000000000000012E-002   -0.13383465707194964     
   6.0300000000000006E-002    -3.9206938703152339E-002
   6.0600000000000001E-002     7.9727632641133958E-002
   6.0900000000000010E-002    0.21932835930096567     
   6.1200000000000004E-002    0.37360823448382713     
   6.1500000000000013E-002    0.53433029753538985     
   6.1800000000000008E-002    0.69139418937905739     
   6.2100000000000002E-002    0.83345963930511113     
   6.2399999999999997E-002    0.94871136150649438     
   6.2700000000000006E-002     1.0258428370984296     
   6.3000000000000000E-002     1.0550778680696726     
   6.3300000000000009E-002     1.0291853756540035     
   6.3600000000000004E-002    0.94434595066388249     
   6.3899999999999998E-002    0.80069553462111198     
   6.4199999999999993E-002    0.60277036742388956     
   6.4500000000000002E-002    0.35939150453609392     
   6.4800000000000010E-002     8.3138852034344540E-002
   6.5100000000000005E-002   -0.21031850924550219     
   6.5400000000000000E-002   -0.50343709164181238     
   6.5700000000000008E-002   -0.77793475879845009     
   6.5999999999999989E-002    -1.0163598152302229     
   6.6299999999999998E-002    -1.2034326040282350     
   6.6600000000000006E-002    -1.3270134962829123     
   6.6900000000000001E-002    -1.3793436478175793     
   6.7199999999999996E-002    -1.3574202176569965     
   6.7500000000000004E-002    -1.2632044391333430     
   6.7800000000000013E-002    -1.1035366021855493     
   6.8099999999999994E-002   -0.88937757837031750     
   6.8400000000000002E-002   -0.63506121885910072     
   6.8700000000000011E-002   -0.35728338871554749     
   6.8999999999999992E-002    -7.3777713155909502E-002
   6.9300000000000000E-002    0.19790004281603762     
   6.9600000000000009E-002    0.44131237668859552     
   6.9900000000000004E-002    0.64240534596783516     
   7.0199999999999999E-002    0.78996779633683101     
   7.0500000000000007E-002    0.87629601968206539     
   7.0800000000000016E-002    0.89763399973178315     
   7.1099999999999997E-002    0.85385289564178568     
   7.1400000000000005E-002    0.74867972529741711     
   7.1700000000000000E-002    0.58910607801303450     
   7.1999999999999995E-002    0.38494199320711969     
   7.2300000000000003E-002    0.14850329165078757     
   7.2600000000000012E-002   -0.10651844619836437     
   7.2900000000000006E-002   -0.36544181228745914     
   7.3200000000000001E-002   -0.61341627271178545     
   7.3499999999999996E-002   -0.83639687940439755     
   7.3800000000000004E-002    -1.0215238488367673     
   7.4099999999999999E-002    -1.1582396140476847     
   7.4400000000000008E-002    -1.2387314435924113     
   7.4700000000000003E-002    -1.2583472013863601     
   7.5000000000000011E-002    -1.2162122927061136     
   7.5299999999999992E-002    -1.1149512119091045     
   7.5600000000000001E-002   -0.96074644006679444     
   7.5900000000000009E-002   -0.76305696993154215     
   7.6200000000000004E-002   -0.53345948965759282     
   7.6499999999999999E-002   -0.28520713858075486     
   7.6800000000000007E-002    -3.1978894386606338E-002
   7.7099999999999988E-002    0.21332719583904597     
   7.7399999999999997E-002    0.43929793833604763     
   7.7700000000000005E-002    0.63742508280406485     
   7.8000000000000014E-002    0.80216838920327782     
   7.8299999999999995E-002    0.93146528308587850     
   7.8600000000000003E-002     1.0267488059166907     
   7.8900000000000012E-002     1.0920916323409666     
   7.9199999999999993E-002     1.1336196895809523     
   7.9500000000000001E-002     1.1583227656784589     
   7.9800000000000010E-002     1.1729679539118205     
   8.0100000000000018E-002     1.1829981447507059     
   8.0399999999999999E-002     1.1914548974487573     
   8.0700000000000008E-002     1.1986546325680560     
   8.1000000000000003E-002     1.2018736146768920     
   8.1299999999999997E-002     1.1955696482859131     
   8.1600000000000006E-002     1.1723618659175734     
   8.1900000000000014E-002     1.1238874614979022     
   8.2199999999999995E-002     1.0420788084359325     
   8.2500000000000004E-002    0.92064096489745872     
   8.2799999999999999E-002    0.75595205849428582     
   8.3100000000000007E-002    0.54837874056639113     
   8.3400000000000002E-002    0.30252336381413103     
   8.3700000000000011E-002     2.7136402146397273E-002
   8.4000000000000005E-002   -0.26513903340116407     
   8.4300000000000000E-002   -0.55897827267282563     
   8.4599999999999995E-002   -0.83766670428394274     
   8.4900000000000003E-002    -1.0845103361880266     
   8.5199999999999998E-002    -1.2847532271336413     
   8.5500000000000007E-002    -1.4265199349846016     
   8.5800000000000001E-002    -1.5022685164863894     
   8.6100000000000010E-002    -1.5095539827719004     
   8.6399999999999991E-002    -1.4506418059995361     
   8.6699999999999999E-002    -1.3326735081554268     
   8.7000000000000008E-002    -1.1666598313968914     
   8.7300000000000003E-002   -0.96606036942111739     
   8.7599999999999997E-002   -0.74589583809921189     
   8.7900000000000006E-002   -0.52069281591648142     
   8.8200000000000014E-002   -0.30361127561004703     
   8.8499999999999995E-002   -0.10534337003115068     
   8.8800000000000004E-002     6.7042445216690394E-002
   8.9100000000000013E-002    0.20964334452371319     
   8.9399999999999993E-002    0.32223003943976891     
   8.9700000000000002E-002    0.40759635905552849     
   9.0000000000000011E-002    0.47014471552054049     
   9.0299999999999991E-002    0.51599791784946547     
   9.0600000000000000E-002    0.55104142264054246     
   9.0900000000000009E-002    0.58032734032100519     
   9.1200000000000017E-002    0.60768084273375245     
   9.1499999999999998E-002    0.63421156501024589     
   9.1800000000000007E-002    0.65924576797256107     
   9.2100000000000001E-002    0.67997532882345291     
   9.2399999999999996E-002    0.69154304767541286     
   9.2700000000000005E-002    0.68836545961680806     
   9.3000000000000013E-002    0.66415622905671468     
   9.3300000000000008E-002    0.61344300365454818     
   9.3600000000000003E-002    0.53192094060235329     
   9.3899999999999997E-002    0.41684166110905019     
   9.4200000000000006E-002    0.26815180659505444     
   9.4500000000000001E-002     8.7993466427281286E-002
   9.4800000000000009E-002   -0.11909721906901360     
   9.5100000000000004E-002   -0.34613579982248699     
   9.5399999999999999E-002   -0.58490394753028319     
   9.5699999999999993E-002   -0.82580692842294523     
   9.6000000000000002E-002    -1.0587386244919359     
   9.6300000000000011E-002    -1.2741201120432468     
   9.6600000000000005E-002    -1.4627962727759780     
   9.6900000000000000E-002    -1.6169772322823526     
   9.7200000000000009E-002    -1.7304213305011051     
   9.7499999999999989E-002    -1.7983963784456298     
   9.7799999999999998E-002    -1.8181784283820086     
   9.8100000000000007E-002    -1.7885377793065813     
   9.8400000000000015E-002    -1.7096087643635678     
   9.8699999999999996E-002    -1.5831649885776977     
   9.9000000000000005E-002    -1.4119183847159464     
   9.9300000000000013E-002    -1.1995704427143852     
   9.9599999999999994E-002   -0.95067132073130400     
   9.9900000000000003E-002   -0.67047802240465371     
  0.10020000000000001        -0.36517780543983636     
  0.10049999999999999         -4.1504597747131833E-002
  0.10080000000000000         0.29323035443170897     
  0.10110000000000001         0.63111686847492332     
  0.10140000000000000         0.96359995984455837     
  0.10170000000000000          1.2820096861414203     
  0.10200000000000001          1.5777524078224965     
  0.10230000000000002          1.8424375917125837     
  0.10260000000000000          2.0683810287200250     
  0.10290000000000001          2.2486722107140475     
  0.10320000000000000          2.3779563789416756     
  0.10350000000000001          2.4525937634938431     
  0.10380000000000000          2.4703939792833469     
  0.10410000000000001          2.4314548965181295     
  0.10440000000000001          2.3377793622469820     
  0.10470000000000000          2.1932599909404349     
  0.10500000000000000          2.0036632996457877     
  0.10530000000000000          1.7761383086571370     
  0.10560000000000000          1.5191487104318646     
  0.10590000000000001          1.2419289818093695     
  0.10620000000000000         0.95414615324646102     
  0.10650000000000001         0.66556232661603387     
  0.10679999999999999         0.38550846981548159     
  0.10710000000000000         0.12243749736452433     
  0.10740000000000001        -0.11601589163206713     
  0.10770000000000000        -0.32385789801250309     
  0.10800000000000000        -0.49668095567189674     
  0.10830000000000001        -0.63178271777254702     
  0.10859999999999999        -0.72843439152417766     
  0.10890000000000000        -0.78753991117483257     
  0.10920000000000001        -0.81219557702355782     
  0.10950000000000001        -0.80651192483421108     
  0.10979999999999999        -0.77638130785156723     
  0.11009999999999999        -0.72869177758654136     
  0.11040000000000001        -0.67031905980263262     
  0.11070000000000001        -0.60913947650173328     
  0.11100000000000000        -0.55253606389888921     
  0.11130000000000000        -0.50715431572939351     
  0.11160000000000002        -0.47926166070545373     
  0.11190000000000001        -0.47348941888425278     
  0.11220000000000001        -0.49354200299615658     
  0.11250000000000000        -0.54165160541496793     
  0.11280000000000000        -0.61821357850329606     
  0.11309999999999999        -0.72225048100984235     
  0.11340000000000001        -0.85097088861468939     
  0.11369999999999998        -0.99990534753586813     
  0.11400000000000000         -1.1627463178272335     
  0.11430000000000000         -1.3313505751503441     
  0.11460000000000002         -1.4962509716954058     
  0.11489999999999999         -1.6462826129111288     
  0.11520000000000001         -1.7694507528591816     
  0.11550000000000001         -1.8536373290919161     
  0.11580000000000000         -1.8869610111435957     
  0.11609999999999999         -1.8592172403760268     
  0.11640000000000002         -1.7628253244850534     
  0.11670000000000001         -1.5938139962680820     
  0.11700000000000001         -1.3527058130502376     
  0.11730000000000000         -1.0450626057047641     
  0.11760000000000000        -0.68200262505644149     
  0.11789999999999999        -0.27917346469056781     
  0.11820000000000001         0.14365136902567954     
  0.11850000000000001         0.56356040951604303     
  0.11880000000000000         0.95730796642274707     
  0.11910000000000000          1.3022371496751670     
  0.11940000000000002          1.5785805840594820     
  0.11970000000000001          1.7713643772654100     
  0.12000000000000001          1.8711816744796752     
  0.12030000000000000          1.8757183362490863     
  0.12060000000000000          1.7890121816658127     
  0.12089999999999999          1.6212350476701995     
  0.12119999999999999          1.3881788029805622     
  0.12150000000000001          1.1084562546001440     
  0.12180000000000001         0.80299457411424302     
  0.12210000000000000         0.49268639695531369     
  0.12239999999999999         0.19651610702824213     
  0.12270000000000002         -6.8483509154420752E-002
  0.12300000000000001        -0.28963318853047249     
  0.12330000000000001        -0.45788671603090503     
  0.12360000000000000        -0.56760322202894464     
  0.12390000000000000        -0.61737790792060332     
  0.12419999999999999        -0.60782801687792065     
  0.12450000000000001        -0.54216996833409259     
  0.12480000000000001        -0.42553097627653563     
  0.12509999999999999        -0.26337561962812484     
  0.12540000000000001         -6.3103752732613067E-002
  0.12570000000000003         0.16722687655637780     
  0.12600000000000000         0.41893694428284101     
  0.12630000000000002         0.68110226699827414     
  0.12659999999999999         0.94226475076225213     
  0.12690000000000001          1.1894962108872027     
  0.12719999999999998          1.4083972908423297     
  0.12750000000000000          1.5850775809439130     
  0.12780000000000002          1.7054704603691420     
  0.12809999999999999          1.7571638743981481     
  0.12840000000000001          1.7309648157954485     
  0.12869999999999998          1.6208806483277662     
  0.12900000000000000          1.4259792743976274     
  0.12930000000000003          1.1510179803672660     
  0.12959999999999999         0.80569032587296741     
  0.12990000000000002         0.40552079253065715     
  0.13019999999999998         -2.9607530320975836E-002
  0.13050000000000000        -0.47650156032458968     
  0.13080000000000003        -0.91035404434349743     
  0.13109999999999999         -1.3064784753665803     
  0.13140000000000002         -1.6421164935231509     
  0.13169999999999998         -1.8983282330892024     
  0.13200000000000001         -2.0614988828216099     
  0.13229999999999997         -2.1243383159785494     
  0.13260000000000000         -2.0865457860299048     
  0.13290000000000002         -1.9548071749828440     
  0.13319999999999999         -1.7423155468823390     
  0.13350000000000001         -1.4677460459109508     
  0.13380000000000003         -1.1539096210295707     
  0.13410000000000000        -0.82583816900697105     
  0.13440000000000002        -0.50901533189309078     
  0.13469999999999999        -0.22762936110210996     
  0.13500000000000001         -2.6348879605927120E-003
  0.13529999999999998         0.14952852752348378     
  0.13560000000000000         0.21838290622204307     
  0.13590000000000002         0.19999580453785407     
  0.13619999999999999          9.6880299067201858E-002
  0.13650000000000001         -8.1184149246161824E-002
  0.13680000000000003        -0.31868982841769888     
  0.13710000000000000        -0.59480849493577903     
  0.13740000000000002        -0.88429241010657855     
  0.13769999999999999         -1.1601373528753323     
  0.13800000000000001         -1.3935986752388936     
  0.13829999999999998         -1.5572930768200997     
  0.13860000000000000         -1.6263935357923276     
  0.13890000000000002         -1.5798112062388525     
  0.13919999999999999         -1.4034925571510257     
  0.13950000000000001         -1.0895345798072871     
  0.13979999999999998        -0.63876918646661984     
  0.14010000000000000         -6.1622027905163801E-002
  0.14040000000000002         0.62345023789481135     
  0.14069999999999999          1.3882643272241884     
  0.14100000000000001          2.1968030567321377     
  0.14130000000000004          3.0073560846207323     
  0.14160000000000000          3.7728875674832985     
  0.14189999999999997          4.4458266808073041     
  0.14219999999999999          4.9793989260189084     
  0.14250000000000002          5.3309965353929005     
  0.14279999999999998          5.4667067370799431     
  0.14310000000000000          5.3622577071952815     
  0.14339999999999997          5.0064202279318550     
  0.14369999999999999          4.4030745012059986     
  0.14400000000000002          3.5703029321158821     
  0.14429999999999998          2.5417125544589751     
  0.14460000000000001          1.3638696859706905     
  0.14490000000000003          9.3659615237704497E-002
  0.14520000000000000         -1.2040804502037936     
  0.14550000000000002         -2.4618066655485227     
  0.14579999999999999         -3.6133490338905330     
  0.14610000000000001         -4.5978755739527717     
  0.14640000000000003         -5.3646895162775996     
  0.14670000000000000         -5.8759850272870020     
  0.14699999999999996         -6.1098138913796332     
  0.14729999999999999         -6.0611023828316384     
  0.14760000000000001         -5.7413336018619860     
  0.14789999999999998         -5.1783631022750445     
  0.14820000000000000         -4.4129198936526555     