  -1.4999999999999999E-002     0.0000000000000000     
  -1.4700000000000000E-002     0.0000000000000000     
  -1.4400000000000000E-002     3.7776314858889957E-029
  -1.4100000000000000E-002     1.9545492065726175E-025
  -1.3800000000000000E-002     2.1017100872057416E-024
  -1.3500000000000000E-002    -1.6717576067563651E-021
  -1.3200000000000000E-002     3.2794224046071500E-021
  -1.2899999999999998E-002     2.7948632229333496E-019
  -1.2600000000000000E-002    -1.1944014329107924E-018
  -1.2299999999999998E-002    -6.0574874609009269E-018
  -1.2000000000000000E-002     3.1221152456110184E-017
  -1.1699999999999999E-002     3.8230248432327432E-017
  -1.1399999999999999E-002    -2.3393618710596606E-016
  -1.1099999999999999E-002    -3.8112887261078156E-016
  -1.0799999999999999E-002     1.2761249037365162E-015
  -1.0499999999999999E-002     2.5949096914814692E-015
  -1.0199999999999999E-002    -4.2974884942109677E-015
  -9.8999999999999991E-003    -1.0148405303353550E-014
  -9.5999999999999992E-003    -3.2725584186003781E-015
  -9.2999999999999992E-003     3.4066194814898286E-014
  -8.9999999999999993E-003     8.1425020395583338E-014
  -8.6999999999999994E-003    -4.5326455286055121E-014
  -8.3999999999999995E-003    -4.5968199708084030E-013
  -8.0999999999999996E-003     3.7105604903386660E-014
  -7.7999999999999988E-003     1.1023906190413975E-012
  -7.4999999999999997E-003     1.1185424293052764E-013
  -7.1999999999999998E-003    -2.7976344390430757E-014
  -6.8999999999999981E-003    -9.7385338318002671E-013
  -6.5999999999999982E-003    -8.9888914938655697E-012
  -6.3000000000000000E-003     3.7895105150921259E-012
  -6.0000000000000001E-003     3.3578683046811267E-011
  -5.6999999999999985E-003    -1.7653647308801803E-011
  -5.3999999999999986E-003    -4.1306621209979849E-011
  -5.1000000000000004E-003     4.1665489241020530E-011
  -4.7999999999999987E-003    -7.5183931208206097E-011
  -4.5000000000000005E-003    -5.2907977172612997E-011
  -4.1999999999999989E-003     4.7122969469273706E-010
  -3.8999999999999990E-003    -7.8980522004111190E-011
  -3.5999999999999990E-003    -1.0301316024705508E-009
  -3.2999999999999991E-003     8.3639793817706221E-010
  -2.9999999999999992E-003     2.8977580966817216E-010
  -2.6999999999999993E-003    -2.0999666038638821E-009
  -2.3999999999999994E-003     4.0746858315363204E-009
  -2.0999999999999977E-003     1.0238270153860890E-009
  -1.7999999999999995E-003    -9.6065055126564796E-009
  -1.4999999999999979E-003     5.7129834365016591E-009
  -1.1999999999999997E-003     4.5507016766465081E-009
  -8.9999999999999976E-004    -1.2517856929597074E-008
  -5.9999999999999810E-004     1.8901142489199184E-008
  -2.9999999999999992E-004     2.2633316189252745E-009
   0.0000000000000000         -3.5470092402411015E-008
   3.0000000000000165E-004     2.8330710264376110E-008
   5.9999999999999984E-004    -8.3084280413834902E-009
   9.0000000000000149E-004    -3.5684317821859580E-008
   1.2000000000000031E-003     1.1531879813818712E-007
   1.5000000000000013E-003    -4.1269777516683451E-008
   1.8000000000000030E-003    -1.7559856823568973E-007
   2.1000000000000012E-003     1.9266077834121602E-007
   2.3999999999999994E-003     6.1054651912994134E-008
   2.7000000000000010E-003    -3.1234586019370397E-007
   2.9999999999999992E-003     1.8045945737886103E-007
   3.3000000000000008E-003     3.0752125645555199E-007
   3.6000000000000025E-003    -2.9320583348153631E-007
   3.9000000000000007E-003    -2.4519422894951353E-007
   4.2000000000000023E-003     8.8092829869646009E-008
   4.5000000000000005E-003     3.1572008044013049E-007
   4.7999999999999987E-003     2.8056035101458746E-007
   5.1000000000000004E-003    -5.5716447076663788E-007
   5.4000000000000020E-003    -4.7390866501661065E-007
   5.7000000000000037E-003     6.9541778858731135E-007
   5.9999999999999984E-003     3.3997195348729936E-007
   6.3000000000000000E-003    -3.9060116582275985E-007
   6.6000000000000017E-003     8.2959985431140017E-009
   6.9000000000000034E-003    -3.1664323284429982E-007
   7.2000000000000015E-003    -3.1894575229885517E-007
   7.5000000000000032E-003     8.6447189700436948E-007
   7.8000000000000014E-003     3.1938924874635475E-007
   8.0999999999999996E-003    -4.9168091881921418E-007
   8.4000000000000012E-003     1.8990003833759960E-006
   8.7000000000000029E-003     4.8549214354483852E-006
   9.0000000000000011E-003     5.5005442819263314E-006
   9.2999999999999992E-003     6.8461560742970870E-006
   9.6000000000000009E-003     1.2151466422469018E-005
   9.8999999999999991E-003     2.0975897642611393E-005
   1.0200000000000001E-002     3.3262454127273087E-005
   1.0500000000000002E-002     4.6971784481175151E-005
   1.0800000000000004E-002     5.4882689489279738E-005
   1.1099999999999999E-002     5.6602852800327979E-005
   1.1400000000000000E-002     6.1806872515711100E-005
   1.1700000000000002E-002     6.7894470884281733E-005
   1.2000000000000004E-002     5.3505017640151015E-005
   1.2300000000000002E-002     3.4133738452091978E-006
   1.2600000000000000E-002    -8.9565011525620411E-005
   1.2900000000000002E-002    -2.5451866317972134E-004
   1.3200000000000000E-002    -5.5312741810632391E-004
   1.3500000000000002E-002    -1.0658659418466834E-003
   1.3800000000000003E-002    -1.8980857605981982E-003
   1.4100000000000001E-002    -3.2168078740235305E-003
   1.4400000000000000E-002    -5.2527066775214975E-003
   1.4700000000000001E-002    -8.2838020921967136E-003
   1.4999999999999999E-002    -1.2694900529736462E-002
   1.5300000000000001E-002    -1.9015833257013792E-002
   1.5600000000000003E-002    -2.7847807169123051E-002
   1.5899999999999997E-002    -3.9846225608821839E-002
   1.6199999999999999E-002    -5.5786567342213815E-002
   1.6500000000000001E-002    -7.6533055000940320E-002
   1.6800000000000002E-002   -0.10292717576843920     
   1.7100000000000004E-002   -0.13570195128024948     
   1.7400000000000006E-002   -0.17542616630051294     
   1.7700000000000000E-002   -0.22237099216798614     
   1.8000000000000002E-002   -0.27621909377057285     
   1.8300000000000004E-002   -0.33583994983038784     
   1.8600000000000005E-002   -0.39924111123989481     
   1.8900000000000000E-002   -0.46337043283827345     
   1.9200000000000002E-002   -0.52385966910355208     
   1.9500000000000003E-002   -0.57498996309940076     
   1.9799999999999998E-002   -0.60966341505024102     
   2.0100000000000000E-002   -0.61964135190130709     
   2.0400000000000001E-002   -0.59612410164791385     
   2.0700000000000003E-002   -0.53000365751366518     
   2.0999999999999998E-002   -0.41265510826169383     
   2.1299999999999999E-002   -0.23696021398554057     
   2.1600000000000001E-002     1.7223635383166668E-003
   2.1900000000000003E-002    0.30453243188727841     
   2.2200000000000004E-002    0.66800497670314096     
   2.2500000000000006E-002     1.0835181276266872     
   2.2800000000000001E-002     1.5367246595396271     
   2.3100000000000002E-002     2.0074226513875129     
   2.3400000000000004E-002     2.4703843184402263     
   2.3699999999999999E-002     2.8963121901182851     
   2.4000000000000000E-002     3.2536508526772825     
   2.4300000000000002E-002     3.5106188714543265     
   2.4599999999999997E-002     3.6379718239129737     
   2.4900000000000005E-002     3.6116077376117368     
   2.5200000000000000E-002     3.4147371763135816     
   2.5499999999999995E-002     3.0406198082482514     
   2.5800000000000003E-002     2.4932038448736131     
   2.6099999999999998E-002     1.7881916526308723     
   2.6400000000000007E-002    0.95212213941716228     
   2.6700000000000002E-002     2.0855444819157045E-002
   2.6999999999999996E-002   -0.96243839344776827     
   2.7300000000000005E-002    -1.9516711011304653     
   2.7600000000000000E-002    -2.9006595284380201     
   2.7900000000000008E-002    -3.7664410653241878     
   2.8200000000000003E-002    -4.5138082015459275     
   2.8499999999999998E-002    -5.1160668780815763     
   2.8800000000000006E-002    -5.5571383844903437     
   2.9100000000000001E-002    -5.8328456265907569     
   2.9400000000000003E-002    -5.9474028915085819     
   2.9700000000000004E-002    -5.9137853945677730     
   3.0000000000000006E-002    -5.7496399249282621     
   3.0300000000000001E-002    -5.4738420817193898     
   3.0600000000000002E-002    -5.1053084711516856     
   3.0900000000000004E-002    -4.6591781963977779     
   3.1199999999999999E-002    -4.1461452845537856     
   3.1500000000000007E-002    -3.5724217314131690     
   3.1800000000000002E-002    -2.9403430860154294     
   3.2099999999999997E-002    -2.2515754173240943     
   3.2400000000000005E-002    -1.5094189155000342     
   3.2700000000000000E-002   -0.72247822659110339     
   3.3000000000000002E-002     9.1780104492074077E-002
   3.3300000000000003E-002    0.90450427069507744     
   3.3599999999999998E-002     1.6753953928719474     
   3.3900000000000000E-002     2.3518579160011228     
   3.4200000000000001E-002     2.8733239246659541     
   3.4500000000000003E-002     3.1754727359917796     
   3.4799999999999998E-002     3.1978940893907430     
   3.5099999999999999E-002     2.8929242962995079     
   3.5400000000000001E-002     2.2345650029569111     
   3.5699999999999996E-002     1.2272324369191638     
   3.6000000000000004E-002    -8.5730640815448358E-002
   3.6299999999999999E-002    -1.6194428427817527     
   3.6600000000000008E-002    -3.2459604973837992     
   3.6900000000000002E-002    -4.7977347630109923     
   3.7199999999999997E-002    -6.0784292515932830     
   3.7500000000000006E-002    -6.8773179411615830     
   3.7800000000000000E-002    -6.9877276873798602     
   3.8100000000000009E-002    -6.2283969507527486     
   3.8400000000000004E-002    -4.4668932703712931     
   3.8699999999999998E-002    -1.6397797808091656     
   3.9000000000000007E-002     2.2290703096986588     
   3.9300000000000002E-002     7.0204270888456071     
   3.9600000000000003E-002     12.514789420314710     
   3.9900000000000005E-002     18.401862916273583     
   4.0200000000000000E-002     24.298042097497444     
   4.0500000000000001E-002     29.770967270486057     
   4.0800000000000003E-002     34.374599236785834     
   4.1100000000000005E-002     37.686668176051306     
   4.1399999999999999E-002     39.344516542084826     
   4.1700000000000008E-002     39.081271929529642     
   4.2000000000000003E-002     36.754958935018074     
   4.2299999999999997E-002     32.362563947448336     
   4.2600000000000006E-002     26.049314398539874     
   4.2900000000000001E-002     18.099607411792967     
   4.3200000000000002E-002     8.9185142440667349     
   4.3500000000000004E-002   -0.99999334078715563     
   4.3799999999999999E-002    -11.108761693020776     
   4.4100000000000000E-002    -20.849914407302670     
   4.4400000000000002E-002    -29.699466515540337     
   4.4700000000000004E-002    -37.201179274340973     
   4.4999999999999998E-002    -43.003429149414842     
   4.5300000000000000E-002    -46.875575730195891     
   4.5600000000000002E-002    -48.719382935088525     
   4.5899999999999996E-002    -48.571777032100009     
   4.6200000000000005E-002    -46.586764980532848     
   4.6500000000000000E-002    -43.017810524957000     
   4.6799999999999994E-002    -38.192046842136378     
   4.7100000000000003E-002    -32.474166620019311     
   4.7399999999999998E-002    -26.242353221180768     
   4.7700000000000006E-002    -19.854188736045295     
   4.8000000000000001E-002    -13.624123427808431     
   4.8300000000000010E-002    -7.8094090331892261     
   4.8600000000000004E-002    -2.5937399141792330     
   4.8899999999999999E-002     1.9104173566578804     
   4.9200000000000008E-002     5.6600556456243165     
   4.9500000000000002E-002     8.6749000362869477     
   4.9800000000000011E-002     11.019491154135908     
   5.0100000000000006E-002     12.792283950858918     
   5.0400000000000000E-002     14.108457488262768     
   5.0700000000000009E-002     15.083470253961902     
   5.1000000000000004E-002     15.823144810741635     
   5.1299999999999998E-002     16.411548502921452     
   5.1600000000000007E-002     16.907171128875408     
   5.1900000000000002E-002     17.337390771633789     
   5.2200000000000010E-002     17.703359469020729     
   5.2500000000000005E-002     17.980464794366370     
   5.2800000000000000E-002     18.123926017431248     
   5.3099999999999994E-002     18.080997318231404     
   5.3400000000000003E-002     17.793445437700605     
   5.3699999999999998E-002     17.210834354817813     
   5.4000000000000006E-002     16.294181679056894     
   5.4300000000000001E-002     15.022004944390853     
   5.4599999999999996E-002     13.401336542071641     
   5.4900000000000004E-002     11.455290679838134     
   5.5199999999999999E-002     9.2370394676454790     
   5.5499999999999994E-002     6.8226865899343343     
   5.5800000000000002E-002     4.2940005641509380     
   5.6099999999999997E-002     1.7563490449166785     
   5.6400000000000006E-002   -0.68923129922992887     
   5.6700000000000000E-002    -2.9494919788179321     
   5.6999999999999995E-002    -4.9299683419209197     
   5.7300000000000004E-002    -6.5671696348321413     
   5.7599999999999998E-002    -7.8119859231846922     
   5.7900000000000007E-002    -8.6350268773426908     
   5.8200000000000002E-002    -9.0452699029732564     
   5.8499999999999996E-002    -9.0620135588524029     
   5.8800000000000005E-002    -8.7302483847413512     
   5.9100000000000000E-002    -8.1182774832675140     
   5.9400000000000008E-002    -7.2947387077216801     
   5.9700000000000003E-002    -6.3431415006027283     
   6.0000000000000012E-002    -5.3464340662769345     
   6.0300000000000006E-002    -4.3771171150309094     
   6.0600000000000001E-002    -3.5041851649902513     
   6.0900000000000010E-002    -2.7801789938955701     
   6.1200000000000004E-002    -2.2374753715901088     
   6.1500000000000013E-002    -1.8968146840399223     
   6.1800000000000008E-002    -1.7568218519852288     
   6.2100000000000002E-002    -1.7943880391738822     
   6.2399999999999997E-002    -1.9812464537519248     
   6.2700000000000006E-002    -2.2705437937199124     
   6.3000000000000000E-002    -2.6062683853385047     
   6.3300000000000009E-002    -2.9398684258074197     
   6.3600000000000004E-002    -3.2135717600582066     
   6.3899999999999998E-002    -3.3794500553910707     
   6.4199999999999993E-002    -3.4072808917587039     
   6.4500000000000002E-002    -3.2668411438153346     
   6.4800000000000010E-002    -2.9518353661339822     
   6.5100000000000005E-002    -2.4691257212451605     
   6.5400000000000000E-002    -1.8333941482441101     
   6.5700000000000008E-002    -1.0812269280078113     
   6.5999999999999989E-002   -0.25067703749409703     
   6.6299999999999998E-002    0.61400545072004808     
   6.6600000000000006E-002     1.4605816583959563     
   6.6900000000000001E-002     2.2451395902732436     
   6.7199999999999996E-002     2.9243686049140081     
   6.7500000000000004E-002     3.4626581465525690     
   6.7800000000000013E-002     3.8359038582920557     
   6.8099999999999994E-002     4.0285916049553885     
   6.8400000000000002E-002     4.0380229650078130     
   6.8700000000000011E-002     3.8723931013648629     
   6.8999999999999992E-002     3.5519516172508552     
   6.9300000000000000E-002     3.1027147493702176     
   6.9600000000000009E-002     2.5600645303390972     
   6.9900000000000004E-002     1.9666707302458599     
   7.0199999999999999E-002     1.3591964079351841     
   7.0500000000000007E-002    0.78086458428082939     
   7.0800000000000016E-002    0.26861356785066309     
   7.1099999999999997E-002   -0.15184900582893088     
   7.1400000000000005E-002   -0.45439735206061194     
   7.1700000000000000E-002   -0.63040405477790651     
   7.1999999999999995E-002   -0.67972600155299556     
   7.2300000000000003E-002   -0.60788488125704965     
   7.2600000000000012E-002   -0.43664166047920816     
   7.2900000000000006E-002   -0.18813396771942389     
   7.3200000000000001E-002    0.10824719795483002     
   7.3499999999999996E-002    0.42045858324141688     
   7.3800000000000004E-002    0.72165321869990740     
   7.4099999999999999E-002    0.98286502844459511     
   7.4400000000000008E-002     1.1844663528480412     
   7.4700000000000003E-002     1.3131019956091277     
   7.5000000000000011E-002     1.3590109222250626     
   7.5299999999999992E-002     1.3236595257520687     
   7.5600000000000001E-002     1.2098841535001326     
   7.5900000000000009E-002     1.0266964313660190     
   7.6200000000000004E-002    0.78736941930851034     
   7.6499999999999999E-002    0.50332491815328417     
   7.6800000000000007E-002    0.18973786651997152     
   7.7099999999999988E-002   -0.14112353477821396     
   7.7399999999999997E-002   -0.47750815452547973     
   7.7700000000000005E-002   -0.80541663760038318     
   7.8000000000000014E-002    -1.1160083912773420     
   7.8299999999999995E-002    -1.3971792328776234     
   7.8600000000000003E-002    -1.6357104632491533     
   7.8900000000000012E-002    -1.8222315147470205     
   7.9199999999999993E-002    -1.9431168859869898     
   7.9500000000000001E-002    -1.9865718919527704     
   7.9800000000000010E-002    -1.9464046800128794     
   8.0100000000000018E-002    -1.8144693239599494     
   8.0399999999999999E-002    -1.5903450149456329     
   8.0700000000000008E-002    -1.2818752447383075     
   8.1000000000000003E-002   -0.89879369303256007     
   8.1299999999999997E-002   -0.46201679058850859     
   8.1600000000000006E-002     1.8055088696425088E-003
   8.1900000000000014E-002    0.46556138490047871     
   8.2199999999999995E-002    0.89394520993474713     
   8.2500000000000004E-002     1.2554199615706754     
   8.2799999999999999E-002     1.5243353746421291     
   8.3100000000000007E-002     1.6760158444367590     
   8.3400000000000002E-002     1.6997306262360923     
   8.3700000000000011E-002     1.5946648040034215     
   8.4000000000000005E-002     1.3664042892977413     
   8.4300000000000000E-002     1.0372208321729497     
   8.4599999999999995E-002    0.63435280168918140     
   8.4900000000000003E-002    0.18955129547644592     
   8.5199999999999998E-002   -0.25838461130272750     
   8.5500000000000007E-002   -0.67661052337474747     
   8.5800000000000001E-002    -1.0341110143962071     
   8.6100000000000010E-002    -1.3052114151510190     
   8.6399999999999991E-002    -1.4772243391536464     
   8.6699999999999999E-002    -1.5435370093684289     
   8.7000000000000008E-002    -1.5073609242776969     
   8.7300000000000003E-002    -1.3827025787776475     
   8.7599999999999997E-002    -1.1856949241506258     
   8.7900000000000006E-002   -0.93932830588028782     
   8.8200000000000014E-002   -0.66830867010106543     
   8.8499999999999995E-002   -0.39356726151474219     
   8.8800000000000004E-002   -0.13722404751990483     
   8.9100000000000013E-002     8.5848859231108854E-002
   8.9399999999999993E-002    0.26431393301189454     
   8.9700000000000002E-002    0.39000650887457355     
   9.0000000000000011E-002    0.46505391087806663     
   9.0299999999999991E-002    0.48959633206083902     
   9.0600000000000000E-002    0.46938314630388578     
   9.0900000000000009E-002    0.41732155810031807     
   9.1200000000000017E-002    0.33916833736142554     
   9.1499999999999998E-002    0.24939972009956476     
   9.1800000000000007E-002    0.16046641632529207     
   9.2100000000000001E-002     7.8183577715003352E-002
   9.2399999999999996E-002     1.7783078710750147E-002
   9.2700000000000005E-002    -1.6967030451102736E-002
   9.3000000000000013E-002    -2.3186270574744827E-002
   9.3300000000000008E-002     5.8660581130027221E-003
   9.3600000000000003E-002     6.3196899621567201E-002
   9.3899999999999997E-002    0.14587670743266754     
   9.4200000000000006E-002    0.24892543234372988     
   9.4500000000000001E-002    0.35828980746223354     
   9.4800000000000009E-002    0.46732511902407126     
   9.5100000000000004E-002    0.56454217056779876     
   9.5399999999999999E-002    0.63841789494672307     
   9.5699999999999993E-002    0.68342881802398903     
   9.6000000000000002E-002    0.69294267206980109     
   9.6300000000000011E-002    0.66519319269069899     
   9.6600000000000005E-002    0.60065399869098501     
   9.6900000000000000E-002    0.50414454192346891     
   9.7200000000000009E-002    0.38101961514770982     
   9.7499999999999989E-002    0.23842057056696914     
   9.7799999999999998E-002     8.8928388970929070E-002
   9.8100000000000007E-002    -6.2417845509561393E-002
   9.8400000000000015E-002   -0.20553365458864445     
   9.8699999999999996E-002   -0.33039170573946253     
   9.9000000000000005E-002   -0.43538862262685774     
   9.9300000000000013E-002   -0.51256555014294225     
   9.9599999999999994E-002   -0.56055026904733818     
   9.9900000000000003E-002   -0.58136754670379687     
  0.10020000000000001        -0.57118504709759144     
  0.10049999999999999        -0.53595965569601534     
  0.10080000000000000        -0.47984399768231395     
  0.10110000000000001        -0.40398823710870702     
  0.10140000000000000        -0.31667935400684366     
  0.10170000000000000        -0.22362875487029973     
  0.10200000000000001        -0.12702926708153511     
  0.10230000000000002         -3.4494118792991253E-002
  0.10260000000000000          4.9126015912592629E-002
  0.10290000000000001         0.12326211454365966     
  0.10320000000000000         0.18297897168704816     
  0.10350000000000001         0.22757950347549807     
  0.10380000000000000         0.26119035138424757     
  0.10410000000000001         0.27880179588057002     
  0.10440000000000001         0.28596672119127897     
  0.10470000000000000         0.28811609207884226     
  0.10500000000000000         0.28057783495166144     
  0.10530000000000000         0.27331494856034372     
  0.10560000000000000         0.26574730322275525     
  0.10590000000000001         0.25569256850238353     
  0.10620000000000000         0.25267514128177815     
  0.10650000000000001         0.24925538501485764     
  0.10679999999999999         0.24683275625626108     
  0.10710000000000000         0.25018554543882204     
  0.10740000000000001         0.25021454509826574     
  0.10770000000000000         0.25153565276185802     
  0.10800000000000000         0.25351601595865747     
  0.10830000000000001         0.24996226985673109     
  0.10859999999999999         0.24745041019098646     
  0.10890000000000000         0.24081107844087316     
  0.10920000000000001         0.22924397865862536     
  0.10950000000000001         0.21608498577936755     
  0.10979999999999999         0.19673347384658352     
  0.11009999999999999         0.17234167398890105     
  0.11040000000000001         0.14320054529677770     
  0.11070000000000001         0.10718104165914910     
  0.11100000000000000          6.5413049549700258E-002
  0.11130000000000000          1.8665232723724879E-002
  0.11160000000000002         -3.2816645250201323E-002
  0.11190000000000001         -8.6688019619560103E-002
  0.11220000000000001        -0.13997337234006144     
  0.11250000000000000        -0.19141247825746416     
  0.11280000000000000        -0.23684984361959649     
  0.11309999999999999        -0.27255716816341286     
  0.11340000000000001        -0.29829612186080517     
  0.11369999999999998        -0.31044673730468525     
  0.11400000000000000        -0.30868240955913945     
  0.11430000000000000        -0.29531529258476114     
  0.11460000000000002        -0.26934969180538848     
  0.11489999999999999        -0.23574439879124329     
  0.11520000000000001        -0.19676071124390776     
  0.11550000000000001        -0.15616205099894445     
  0.11580000000000000        -0.12050819126498900     
  0.11609999999999999         -9.0206419846279334E-002
  0.11640000000000002         -7.0369234306909487E-002
  0.11670000000000001         -6.2969503653471134E-002
  0.11700000000000001         -6.8001119695967935E-002
  0.11730000000000000         -8.7522795364013514E-002
  0.11760000000000000        -0.11882975477645916     
  0.11789999999999999        -0.15966775793300042     
  0.11820000000000001        -0.20794492685387883     
  0.11850000000000001        -0.25912683881594906     
  0.11880000000000000        -0.30917495130888301     
  0.11910000000000000        -0.35437973970246955     
  0.11940000000000002        -0.39063748261179732     
  0.11970000000000001        -0.41325968096167986     
  0.12000000000000001        -0.42072012603613756     
  0.12030000000000000        -0.41215496780884148     
  0.12060000000000000        -0.38470407990495897     
  0.12089999999999999        -0.34385284404058841     
  0.12119999999999999        -0.28954499615075613     
  0.12150000000000001        -0.22416059500321983     
  0.12180000000000001        -0.15791173011594836     
  0.12210000000000000         -9.0545772056889087E-002
  0.12239999999999999         -2.9542464391296454E-002
  0.12270000000000002          1.8377402458646282E-002
  0.12300000000000001          5.5346943238663078E-002
  0.12330000000000001          7.4560955100045373E-002
  0.12360000000000000          7.6119274676535925E-002
  0.12390000000000000          6.5135627286538614E-002
  0.12419999999999999          3.8474858228592090E-002
  0.12450000000000001          3.0355394617936106E-003
  0.12480000000000001         -3.6490906055702960E-002
  0.12509999999999999         -7.9208805039916369E-002
  0.12540000000000001        -0.11786653737280835     
  0.12570000000000003        -0.15014116384210610     
  0.12600000000000000        -0.17393988219829470     
  0.12630000000000002        -0.18557111791246622     
  0.12659999999999999        -0.18397450354554429     
  0.12690000000000001        -0.16947553952649447     
  0.12719999999999998        -0.14096487998805257     
  0.12750000000000000         -9.8502189124599043E-002
  0.12780000000000002         -4.5080628647893063E-002
  0.12809999999999999          1.9081595322437819E-002
  0.12840000000000001          9.2116174915310822E-002
  0.12869999999999998         0.16888740439563163     
  0.12900000000000000         0.24840685433939483     
  0.12930000000000003         0.32645856925811428     
  0.12959999999999999         0.39742928364438335     
  0.12990000000000002         0.46055799259939945     
  0.13019999999999998         0.51110791620844909     
  0.13050000000000000         0.54529135932169503     
  0.13080000000000003         0.56422739669483202     
  0.13109999999999999         0.56577872631946591     
  0.13140000000000002         0.54899864897587036     
  0.13169999999999998         0.51767509619458074     
  0.13200000000000001         0.47236820520081041     
  0.13229999999999997         0.41487660613466060     
  0.13260000000000000         0.35137438316942893     
  0.13290000000000002         0.28149917372682531     
  0.13319999999999999         0.20964647610805168     
  0.13350000000000001         0.14166331021264369     
  0.13380000000000003          7.6583555588592103E-002
  0.13410000000000000          1.9900990291587459E-002
  0.13440000000000002         -2.5096933372128073E-002
  0.13469999999999999         -5.9697590270206817E-002
  0.13500000000000001         -7.9306140014816631E-002
  0.13529999999999998         -8.3649814140114145E-002
  0.13560000000000000         -7.5334868477535094E-002
  0.13590000000000002         -5.2895892080615819E-002
  0.13619999999999999         -1.9817888999769006E-002
  0.13650000000000001          1.8542172386580416E-002
  0.13680000000000003          6.0572009109603440E-002
  0.13710000000000000         0.10172393032219697     
  0.13740000000000002         0.13473609005593140     
  0.13769999999999999         0.15774983039415491     
  0.13800000000000001         0.16819581168683784     
  0.13829999999999998         0.16035863672601292     
  0.13860000000000000         0.13858352446900946     
  0.13890000000000002         0.10114455802067061     
  0.13919999999999999          4.8133999333005113E-002
  0.13950000000000001         -1.1513937983892181E-002
  0.13979999999999998         -7.8588269386910353E-002
  0.14010000000000000        -0.14773031865584815     
  0.14040000000000002        -0.20989556527681760     
  0.14069999999999999        -0.26764994582195650     
  0.14100000000000001        -0.31256130000158361     
  0.14130000000000004        -0.34080955147119635     
  0.14160000000000000        -0.35607024605935222     
  0.14189999999999997        -0.35087427152436218     
  0.14219999999999999        -0.32825472664332855     
  0.14250000000000002        -0.29113766189688489     
  0.14279999999999998        -0.23737451214804001     
  0.14310000000000000        -0.17354398791411840     
  0.14339999999999997        -0.10246550884944136     
  0.14369999999999999         -2.7192977931525610E-002
  0.14400000000000002          4.6018030211345616E-002
  0.14429999999999998         0.11251051657650391     
  0.14460000000000001         0.16889192021418339     
  0.14490000000000003         0.21105290762268489     
  0.14520000000000000         0.23577439615559814     
  0.14550000000000002         0.24270275029497035     
  0.14579999999999999         0.23090004716015311     
  0.14610000000000001         0.20081613837923679     
  0.14640000000000003         0.15729151521234203     
  0.14670000000000000         0.10169682588040714     
  0.14699999999999996          3.8707040476344191E-002
  0.14729999999999999         -2.6900462605305108E-002
  0.14760000000000001         -9.2430411300282220E-002
  0.14789999999999998        -0.15169904947996077     
  0.14820000000000000        -0.20483597890996733     