  -1.4999999999999999E-002     0.0000000000000000     
  -1.4700000000000000E-002     0.0000000000000000     
  -1.4400000000000000E-002     0.0000000000000000     
  -1.4100000000000000E-002     0.0000000000000000     
  -1.3800000000000000E-002     0.0000000000000000     
  -1.3500000000000000E-002     0.0000000000000000     
  -1.3200000000000000E-002     0.0000000000000000     
  -1.2899999999999998E-002     0.0000000000000000     
  -1.2600000000000000E-002     0.0000000000000000     
  -1.2299999999999998E-002     0.0000000000000000     
  -1.2000000000000000E-002     0.0000000000000000     
  -1.1699999999999999E-002     0.0000000000000000     
  -1.1399999999999999E-002     0.0000000000000000     
  -1.1099999999999999E-002     0.0000000000000000     
  -1.0799999999999999E-002     0.0000000000000000     
  -1.0499999999999999E-002     0.0000000000000000     
  -1.0199999999999999E-002     0.0000000000000000     
  -9.8999999999999991E-003     0.0000000000000000     
  -9.5999999999999992E-003     0.0000000000000000     
  -9.2999999999999992E-003     0.0000000000000000     
  -8.9999999999999993E-003     0.0000000000000000     
  -8.6999999999999994E-003     0.0000000000000000     
  -8.3999999999999995E-003     0.0000000000000000     
  -8.0999999999999996E-003     0.0000000000000000     
  -7.7999999999999988E-003     0.0000000000000000     
  -7.4999999999999997E-003     0.0000000000000000     
  -7.1999999999999998E-003     0.0000000000000000     
  -6.8999999999999981E-003     0.0000000000000000     
  -6.5999999999999982E-003     0.0000000000000000     
  -6.3000000000000000E-003     0.0000000000000000     
  -6.0000000000000001E-003     0.0000000000000000     
  -5.6999999999999985E-003     0.0000000000000000     
  -5.3999999999999986E-003     0.0000000000000000     
  -5.1000000000000004E-003     0.0000000000000000     
  -4.7999999999999987E-003     0.0000000000000000     
  -4.5000000000000005E-003     0.0000000000000000     
  -4.1999999999999989E-003     0.0000000000000000     
  -3.8999999999999990E-003     0.0000000000000000     
  -3.5999999999999990E-003     0.0000000000000000     
  -3.2999999999999991E-003     0.0000000000000000     
  -2.9999999999999992E-003     0.0000000000000000     
  -2.6999999999999993E-003     0.0000000000000000     
  -2.3999999999999994E-003     0.0000000000000000     
  -2.0999999999999977E-003     0.0000000000000000     
  -1.7999999999999995E-003     0.0000000000000000     
  -1.4999999999999979E-003     0.0000000000000000     
  -1.1999999999999997E-003     0.0000000000000000     
  -8.9999999999999976E-004     0.0000000000000000     
  -5.9999999999999810E-004     0.0000000000000000     
  -2.9999999999999992E-004     0.0000000000000000     
   0.0000000000000000          0.0000000000000000     
   3.0000000000000165E-004     3.1913286471811928E-037
   5.9999999999999984E-004    -1.0327640662489834E-035
   9.0000000000000149E-004     6.9883000183936233E-035
   1.2000000000000031E-003    -4.0765394210746623E-034
   1.5000000000000013E-003     1.3469237733740232E-033
   1.8000000000000030E-003    -1.8747052960744536E-033
   2.1000000000000012E-003    -2.7557365002305233E-033
   2.3999999999999994E-003     1.6524125691364156E-032
   2.7000000000000010E-003    -2.8452070124772979E-032
   2.9999999999999992E-003    -5.8367011067032384E-033
   3.3000000000000008E-003     1.3562923399282296E-031
   3.6000000000000025E-003    -2.5934316259194817E-031
   3.9000000000000007E-003    -5.1499568234774915E-032
   4.2000000000000023E-003     1.2270315743739286E-030
   4.5000000000000005E-003    -2.4919768588397043E-030
   4.7999999999999987E-003     4.3470150083681055E-031
   5.1000000000000004E-003     1.0003006284275470E-029
   5.4000000000000020E-003    -2.5588948469597411E-029
   5.7000000000000037E-003     1.3856675211660034E-029
   5.9999999999999984E-003     8.4540874040756490E-029
   6.3000000000000000E-003    -2.5276134487185727E-028
   6.6000000000000017E-003     1.9075104884717604E-028
   6.9000000000000034E-003     6.7656247416883761E-028
   7.2000000000000015E-003    -2.2669366051648025E-027
   7.5000000000000032E-003     1.9379339621581372E-027
   7.8000000000000014E-003     5.2687111924632995E-027
   8.0999999999999996E-003    -1.8273947291421361E-026
   8.4000000000000012E-003     1.5441582835064916E-026
   8.7000000000000029E-003     3.9760442572363774E-026
   9.0000000000000011E-003    -1.3288298713412010E-025
   9.2999999999999992E-003     9.9905955296007577E-026
   9.6000000000000009E-003     3.0000068441866844E-025
   9.8999999999999991E-003    -8.8668487798467249E-025
   1.0200000000000001E-002     4.7749760515426629E-025
   1.0500000000000002E-002     2.2750266687917974E-024
   1.0800000000000004E-002    -5.4323335010799631E-024
   1.1099999999999999E-002     1.1543523956003730E-024
   1.1400000000000000E-002     1.6474075728684733E-023
   1.1700000000000002E-002    -3.0297368027930787E-023
   1.2000000000000004E-002    -6.0571238177792254E-024
   1.2300000000000002E-002     1.0793263785429319E-022
   1.2600000000000000E-002    -1.5037435046303308E-022
   1.2900000000000002E-002    -1.0281737502785402E-022
   1.3200000000000000E-002     6.2076676437276459E-022
   1.3500000000000002E-002    -6.4894250798659477E-022
   1.3800000000000003E-002    -8.2607097581752239E-022
   1.4100000000000001E-002     3.1077551168160445E-021
   1.4400000000000000E-002    -2.3617662160307816E-021
   1.4700000000000001E-002    -4.9368468773350794E-021
   1.4999999999999999E-002     1.3505929170075969E-020
   1.5300000000000001E-002    -6.8882737840814905E-021
   1.5600000000000003E-002    -2.4019362974093127E-020
   1.5899999999999997E-002     5.0906117577874050E-020
   1.6199999999999999E-002    -1.4235384577472184E-020
   1.6500000000000001E-002    -9.8058764486326504E-020
   1.6800000000000002E-002     1.6640613506628106E-019
   1.7100000000000004E-002    -1.1080228969360657E-020
   1.7400000000000006E-002    -3.3926811519363490E-019
   1.7700000000000000E-002     4.7550586994170130E-019
   1.8000000000000002E-002     5.1987046699232047E-020
   1.8300000000000004E-002    -1.0004759675018115E-018
   1.8600000000000005E-002     1.2273390402882121E-018
   1.8900000000000000E-002     2.2974651173375442E-019
   1.9200000000000002E-002    -2.5620747058184645E-018
   1.9500000000000003E-002     3.1141207851733477E-018
   1.9799999999999998E-002     2.5281991800341752E-019
   2.0100000000000000E-002    -6.1013190346155447E-018
   2.0400000000000001E-002     8.6455837218068703E-018
   2.0700000000000003E-002    -1.2681333920567893E-018
   2.0999999999999998E-002    -1.5527952871840982E-017
   2.1299999999999999E-002     2.6308415677127619E-017
   2.1600000000000001E-002    -6.2945738388056818E-018
   2.1900000000000003E-002    -4.8084370464058853E-017
   2.2200000000000004E-002     8.2693944407110446E-017
   2.2500000000000006E-002    -2.7034490448550954E-018
   2.2800000000000001E-002    -2.0554553410122456E-016
   2.3100000000000002E-002     3.0660780300684261E-016
   2.3400000000000004E-002     1.3143991027109120E-016
   2.3699999999999999E-002    -1.1934259818057001E-015
   2.4000000000000000E-002     1.9626995517419471E-015
   2.4300000000000002E-002    -1.4767761887944441E-016
   2.4599999999999997E-002    -9.0664524431974639E-015
   2.4900000000000005E-002     2.6529779581057269E-014
   2.5200000000000000E-002    -8.1125475193638895E-015
   2.5499999999999995E-002    -1.4675686678522691E-013
   2.5800000000000003E-002     2.8713820376478427E-013
   2.6099999999999998E-002     4.1082273362766652E-013
   2.6400000000000007E-002    -1.9745585987094306E-012
   2.6700000000000002E-002     6.3497656683919029E-014
   2.6999999999999996E-002     9.1869363829078151E-012
   2.7300000000000005E-002    -8.9923608105517666E-012
   2.7600000000000000E-002    -2.8951679991895528E-011
   2.7900000000000008E-002     5.8325888592992532E-011
   2.8200000000000003E-002     4.4888413222128821E-011
   2.8499999999999998E-002    -1.9421170718754904E-010
   2.8800000000000006E-002     4.2997330667911681E-011
   2.9100000000000001E-002     2.2242796563798169E-010
   2.9400000000000003E-002    -1.5726788095691222E-010
   2.9700000000000004E-002     1.1836581326163669E-009
   3.0000000000000006E-002    -2.1128341748111258E-009
   3.0300000000000001E-002    -8.2155335515297133E-009
   3.0600000000000002E-002     1.8687440937128499E-008
   3.0900000000000004E-002     3.0186847049676919E-008
   3.1199999999999999E-002    -9.4226019688913312E-008
   3.1500000000000007E-002    -1.1830294785233204E-007
   3.1800000000000002E-002     4.1019929592400859E-007
   3.2099999999999997E-002     1.4740709663912324E-006
   3.2400000000000005E-002     3.6381752278325963E-006
   3.2700000000000000E-002     8.8502653438174918E-006
   3.3000000000000002E-002     1.6904805229243380E-005
   3.3300000000000003E-002     2.4542573588680435E-005
   3.3599999999999998E-002     3.3162991577390183E-005
   3.3900000000000000E-002     5.0707155217273687E-005
   3.4200000000000001E-002     8.1504687484610375E-005
   3.4500000000000003E-002     1.2495196254935662E-004
   3.4799999999999998E-002     1.8581159048888346E-004
   3.5099999999999999E-002     2.7542373138989771E-004
   3.5400000000000001E-002     4.0644986696402539E-004
   3.5699999999999996E-002     5.9198549776565135E-004
   3.6000000000000004E-002     8.4673823805832553E-004
   3.6299999999999999E-002     1.1943844622927891E-003
   3.6600000000000008E-002     1.6692205360797311E-003
   3.6900000000000002E-002     2.2995312472417857E-003
   3.7199999999999997E-002     3.1064181483712225E-003
   3.7500000000000006E-002     4.1239120018307139E-003
   3.7800000000000000E-002     5.3961316597126623E-003
   3.8100000000000009E-002     6.9573327945710332E-003
   3.8400000000000004E-002     8.8285185898917713E-003
   3.8699999999999998E-002     1.1020362942765292E-002
   3.9000000000000007E-002     1.3533978327656432E-002
   3.9300000000000002E-002     1.6345562002990404E-002
   3.9600000000000003E-002     1.9388306482009149E-002
   3.9900000000000005E-002     2.2570751244544676E-002
   4.0200000000000000E-002     2.5792833137226551E-002
   4.0500000000000001E-002     2.8923142549952024E-002
   4.0800000000000003E-002     3.1799599559315259E-002
   4.1100000000000005E-002     3.4265306111506501E-002
   4.1399999999999999E-002     3.6174957249384659E-002
   4.1700000000000008E-002     3.7406605580977213E-002
   4.2000000000000003E-002     3.7892204930404363E-002
   4.2299999999999997E-002     3.7629285396785075E-002
   4.2600000000000006E-002     3.6679891647224371E-002
   4.2900000000000001E-002     3.5171894219320252E-002
   4.3200000000000002E-002     3.3279182161856567E-002
   4.3500000000000004E-002     3.1179984490125934E-002
   4.3799999999999999E-002     2.8993121157259393E-002
   4.4100000000000000E-002     2.6697819918624952E-002
   4.4400000000000002E-002     2.4067970553774288E-002
   4.4700000000000004E-002     2.0573620754114959E-002
   4.4999999999999998E-002     1.5321637817029995E-002
   4.5300000000000000E-002     6.9895889589230735E-003
   4.5600000000000002E-002    -6.1563586635595309E-003
   4.5899999999999996E-002    -2.6167617934953480E-002
   4.6200000000000005E-002    -5.5288634162291857E-002
   4.6500000000000000E-002    -9.5744165884976654E-002
   4.6799999999999994E-002   -0.14945256233667523     
   4.7100000000000003E-002   -0.21768035874957306     
   4.7399999999999998E-002   -0.30070934345314532     
   4.7700000000000006E-002   -0.39754477451499698     
   4.8000000000000001E-002   -0.50560819979354810     
   4.8300000000000010E-002   -0.62062042320436150     
   4.8600000000000004E-002   -0.73662154676800407     
   4.8899999999999999E-002   -0.84613738678631578     
   4.9200000000000008E-002   -0.94057557648232626     
   4.9500000000000002E-002    -1.0108158307323794     
   4.9800000000000011E-002    -1.0478731073619745     
   5.0100000000000006E-002    -1.0437469136719519     
   5.0400000000000000E-002   -0.99229034208122091     
   5.0700000000000009E-002   -0.88986625771624583     
   5.1000000000000004E-002   -0.73605748767195367     
   5.1299999999999998E-002   -0.53401521017973552     
   5.1600000000000007E-002   -0.29050061828336182     
   5.1900000000000002E-002    -1.5746195571075122E-002
   5.2200000000000010E-002    0.27727861103225832     
   5.2500000000000005E-002    0.57353031796964893     
   5.2800000000000000E-002    0.85715645014350972     
   5.3099999999999994E-002     1.1127568366283669     
   5.3400000000000003E-002     1.3264390059905429     
   5.3699999999999998E-002     1.4872141864710999     
   5.4000000000000006E-002     1.5877113101689244     
   5.4300000000000001E-002     1.6249372701876927     
   5.4599999999999996E-002     1.6003997062418056     
   5.4900000000000004E-002     1.5198564268139889     
   5.5199999999999999E-002     1.3929426415918398     
   5.5499999999999994E-002     1.2319665902552592     
   5.5800000000000002E-002     1.0510799648625118     
   5.6099999999999997E-002    0.86470518189143653     
   5.6400000000000006E-002    0.68651828849236263     
   5.6700000000000000E-002    0.52828053270762809     
   5.6999999999999995E-002    0.39897200996777105     
   5.7300000000000004E-002    0.30434045587234998     
   5.7599999999999998E-002    0.24659532541560425     
   5.7900000000000007E-002    0.22466406303851319     
   5.8200000000000002E-002    0.23445926560614880     
   5.8499999999999996E-002    0.26968461158108481     
   5.8800000000000005E-002    0.32223003999493194     
   5.9100000000000000E-002    0.38342398404157685     
   5.9400000000000008E-002    0.44412523718626218     
   5.9700000000000003E-002    0.49590957688850484     
   6.0000000000000012E-002    0.53086827150551419     
   6.0300000000000006E-002    0.54255072735274934     
   6.0600000000000001E-002    0.52574556118677973     
   6.0900000000000010E-002    0.47671708156523018     
   6.1200000000000004E-002    0.39352232577684837     
   6.1500000000000013E-002    0.27565462439001803     
   6.1800000000000008E-002    0.12468005190191346     
   6.2100000000000002E-002    -5.6110481531527714E-002
   6.2399999999999997E-002   -0.26131111427454295     
   6.2700000000000006E-002   -0.48363407968957889     
   6.3000000000000000E-002   -0.71386816179340584     
   6.3300000000000009E-002   -0.94115276861219710     
   6.3600000000000004E-002    -1.1535849122829311     
   6.3899999999999998E-002    -1.3388224379078142     
   6.4199999999999993E-002    -1.4848602548563026     
   6.4500000000000002E-002    -1.5810855177158372     
   6.4800000000000010E-002    -1.6192702821140277     
   6.5100000000000005E-002    -1.5944342223290624     
   6.5400000000000000E-002    -1.5056424990219750     
   6.5700000000000008E-002    -1.3564848614149543     
   6.5999999999999989E-002    -1.1553156155553583     
   6.6299999999999998E-002   -0.91483704755744288     
   6.6600000000000006E-002   -0.65157984967389415     
   6.6900000000000001E-002   -0.38447317539607123     
   6.7199999999999996E-002   -0.13410038574488573     
   6.7500000000000004E-002     7.9432196500243107E-002
   6.7800000000000013E-002    0.23806185344374198     
   6.8099999999999994E-002    0.32710123364697863     
   6.8400000000000002E-002    0.33706688817386832     
   6.8700000000000011E-002    0.26416674004265139     
   6.8999999999999992E-002    0.11113066733005007     
   6.9300000000000000E-002   -0.11263538912050380     
   6.9600000000000009E-002   -0.39193328794151949     
   6.9900000000000004E-002   -0.70659555928220696     
   7.0199999999999999E-002    -1.0328817479414243     
   7.0500000000000007E-002    -1.3454802054850681     
   7.0800000000000016E-002    -1.6193749822221404     
   7.1099999999999997E-002    -1.8316778952368125     
   7.1400000000000005E-002    -1.9637342410534213     
   7.1700000000000000E-002    -2.0021824471440941     
   7.1999999999999995E-002    -1.9402609631803929     
   7.2300000000000003E-002    -1.7782402755009854     
   7.2600000000000012E-002    -1.5231672032069439     
   7.2900000000000006E-002    -1.1883859150787568     
   7.3200000000000001E-002   -0.79229094088733898     
   7.3499999999999996E-002   -0.35666426144961394     
   7.3800000000000004E-002     9.4936997110780824E-002
   7.4099999999999999E-002    0.53936799404167168     
   7.4400000000000008E-002    0.95537019693052927     
   7.4700000000000003E-002     1.3251956676451382     
   7.5000000000000011E-002     1.6354354479569266     
   7.5299999999999992E-002     1.8780883299894655     
   7.5600000000000001E-002     2.0499972946152183     
   7.5900000000000009E-002     2.1525396864950461     
   7.6200000000000004E-002     2.1910404655328346     
   7.6499999999999999E-002     2.1727091716035916     
   7.6800000000000007E-002     2.1065513513337750     
   7.7099999999999988E-002     2.0013105294731361     
   7.7399999999999997E-002     1.8650155709938616     
   7.7700000000000005E-002     1.7047402357236598     
   7.8000000000000014E-002     1.5257595347753987     
   7.8299999999999995E-002     1.3330280442319593     
   7.8600000000000003E-002     1.1310434111168164     
   7.8900000000000012E-002    0.92535667494808538     
   7.9199999999999993E-002    0.72268587471359413     
   7.9500000000000001E-002    0.53215570587280436     
   7.9800000000000010E-002    0.36490219280764796     
   8.0100000000000018E-002    0.23389384516453482     
   8.0399999999999999E-002    0.15297522664028679     
   8.0700000000000008E-002    0.13487993034976017     
   8.1000000000000003E-002    0.19023035274114827     
   8.1299999999999997E-002    0.32438708216506701     
   8.1600000000000006E-002    0.53662237574696015     
   8.1900000000000014E-002    0.81830425928773043     
   8.2199999999999995E-002     1.1518529694818125     
   8.2500000000000004E-002     1.5119128102878032     
   8.2799999999999999E-002     1.8651797473384777     
   8.3100000000000007E-002     2.1738938815606588     
   8.3400000000000002E-002     2.3977524608424798     
   8.3700000000000011E-002     2.4980308254050168     
   8.4000000000000005E-002     2.4406890021505090     
   8.4300000000000000E-002     2.2006467877984077     
   8.4599999999999995E-002     1.7642815413895263     
   8.4900000000000003E-002     1.1319492221098468     
   8.5199999999999998E-002    0.31924571289641729     
   8.5500000000000007E-002   -0.64338463274101343     
   8.5800000000000001E-002    -1.7112959995468611     
   8.6100000000000010E-002    -2.8288889074616868     
   8.6399999999999991E-002    -3.9322781458285263     
   8.6699999999999999E-002    -4.9540557501205651     
   8.7000000000000008E-002    -5.8275598868394995     
   8.7300000000000003E-002    -6.4911407580096387     
   8.7599999999999997E-002    -6.8934778116273856     
   8.7900000000000006E-002    -6.9958499643593060     
   8.8200000000000014E-002    -6.7763069717740905     
   8.8499999999999995E-002    -6.2302506938360578     
   8.8800000000000004E-002    -5.3718255514232496     
   8.9100000000000013E-002    -4.2333229568879212     
   8.9399999999999993E-002    -2.8628181094694569     
   8.9700000000000002E-002    -1.3227646361148737     
   9.0000000000000011E-002    0.31516901728014440     
   9.0299999999999991E-002     1.9725111313993364     
   9.0600000000000000E-002     3.5695906219948896     
   9.0900000000000009E-002     5.0296006466488210     
   9.1200000000000017E-002     6.2825255376596001     
   9.1499999999999998E-002     7.2702688868926666     
   9.1800000000000007E-002     7.9478477857273973     
   9.2100000000000001E-002     8.2882174615932129     
   9.2399999999999996E-002     8.2809122939508732     
   9.2700000000000005E-002     7.9343775463111665     
   9.3000000000000013E-002     7.2739141989982974     
   9.3300000000000008E-002     6.3397763686517985     
   9.3600000000000003E-002     5.1846769726452386     
   9.3899999999999997E-002     3.8695708202207797     
   9.4200000000000006E-002     2.4601298317175968     
   9.4500000000000001E-002     1.0223181094191662     
   9.4800000000000009E-002   -0.38121214699451045     
   9.5100000000000004E-002    -1.6948957301709970     
   9.5399999999999999E-002    -2.8727537073312184     
   9.5699999999999993E-002    -3.8797853678148737     
   9.6000000000000002E-002    -4.6933680077103208     
   9.6300000000000011E-002    -5.3022942855110280     
   9.6600000000000005E-002    -5.7058448929516672     
   9.6900000000000000E-002    -5.9130077337065412     
   9.7200000000000009E-002    -5.9390911883796811     
   9.7499999999999989E-002    -5.8050827675420065     
   9.7799999999999998E-002    -5.5348290976352708     
   9.8100000000000007E-002    -5.1534270721253161     
   9.8400000000000015E-002    -4.6866211290207751     
   9.8699999999999996E-002    -4.1586412721165074     
   9.9000000000000005E-002    -3.5934428463415351     
   9.9300000000000013E-002    -3.0127400625738590     
   9.9599999999999994E-002    -2.4369715917692778     
   9.9900000000000003E-002    -1.8844411858021453     
  0.10020000000000001         -1.3711973951359853     
  0.10049999999999999        -0.91105961563676185     
  0.10080000000000000        -0.51419300187225603     
  0.10110000000000001        -0.18776486240945855     
  0.10140000000000000          6.5345012535814095E-002
  0.10170000000000000         0.24704967187286450     
  0.10200000000000001         0.36276821463331049     
  0.10230000000000002         0.42386145733319647     
  0.10260000000000000         0.44351227923134073     
  0.10290000000000001         0.43894844864004362     
  0.10320000000000000         0.42831621190108704     
  0.10350000000000001         0.42977674589182313     
  0.10380000000000000         0.46096646743622105     
  0.10410000000000001         0.53541086169842855     
  0.10440000000000001         0.66426901898897550     
  0.10470000000000000         0.85238926970892914     
  0.10500000000000000          1.1002197200627770     
  0.10530000000000000          1.4014125942605673     
  0.10560000000000000          1.7448394067015971     
  0.10590000000000001          2.1142831641707436     
  0.10620000000000000          2.4888530357426020     
  0.10650000000000001          2.8459611268229827     
  0.10679999999999999          3.1606841147975224     
  0.10710000000000000          3.4095837857837097     
  0.10740000000000001          3.5707737929548555     
  0.10770000000000000          3.6262976429353726     
  0.10800000000000000          3.5646895487803620     
  0.10830000000000001          3.3797947362875447     
  0.10859999999999999          3.0736080540437656     
  0.10890000000000000          2.6561662086604585     
  0.10920000000000001          2.1437784614051956     
  0.10950000000000001          1.5606544291944104     
  0.10979999999999999         0.93415812678417220     
  0.11009999999999999         0.29611282964811403     
  0.11040000000000001        -0.32205521241997448     
  0.11070000000000001        -0.88958863339902972     
  0.11100000000000000         -1.3797773412562675     
  0.11130000000000000         -1.7714148979078534     
  0.11160000000000002         -2.0491028016548252     
  0.11190000000000001         -2.2064094720508183     
  0.11220000000000001         -2.2425213057981463     
  0.11250000000000000         -2.1651876206824454     
  0.11280000000000000         -1.9870599788886074     
  0.11309999999999999         -1.7261852354343772     
  0.11340000000000001         -1.4035228862189113     
  0.11369999999999998         -1.0417071988866087     
  0.11400000000000000        -0.66433279110662324     
  0.11430000000000000        -0.29343469594260130     
  0.11460000000000002          5.0211753173731694E-002
  0.11489999999999999         0.34860546104499784     
  0.11520000000000001         0.58657843067485294     
  0.11550000000000001         0.75180583672888157     
  0.11580000000000000         0.83516894331401914     
  0.11609999999999999         0.83074120127014772     
  0.11640000000000002         0.73507472149102360     
  0.11670000000000001         0.54853452421575732     
  0.11700000000000001         0.27366188585205131     
  0.11730000000000000         -8.3021385141862247E-002
  0.11760000000000000        -0.51201449869332016     
  0.11789999999999999        -0.99865499250619527     
  0.11820000000000001         -1.5234748694994564     
  0.11850000000000001         -2.0608115269859431     
  0.11880000000000000         -2.5781499756023822     
  0.11910000000000000         -3.0365336938687610     
  0.11940000000000002         -3.3897631260699037     
  0.11970000000000001         -3.5883125401631699     
  0.12000000000000001         -3.5791099695433033     
  0.12030000000000000         -3.3128743038191835     
  0.12060000000000000         -2.7475036942915581     
  0.12089999999999999         -1.8550397590528327     
  0.12119999999999999        -0.62937642863267529     
  0.12150000000000001         0.91023690983696937     
  0.12180000000000001          2.7108634029774459     
  0.12210000000000000          4.6883688912130825     
  0.12239999999999999          6.7238625024508600     
  0.12270000000000002          8.6725049642655918     
  0.12300000000000001          10.370524667359605     
  0.12330000000000001          11.647728917543112     
  0.12360000000000000          12.344587100244061     
  0.12390000000000000          12.325064276273604     
  0.12419999999999999          11.498023534534592     
  0.12450000000000001          9.8260274531594280     
  0.12480000000000001          7.3386132413346878     
  0.12509999999999999          4.1355605037525223     
  0.12540000000000001         0.38374679757429447     
  0.12570000000000003         -3.6887053666891125     
  0.12600000000000000         -7.8123914275774906     
  0.12630000000000002         -11.692643283361726     
  0.12659999999999999         -15.036334628217993     
  0.12690000000000001         -17.576297932366657     
  0.12719999999999998         -19.093486638654781     
  0.12750000000000000         -19.439317362606033     
  0.12780000000000002         -18.547416297944601     
  0.12809999999999999         -16.441432668026533     
  0.12840000000000001         -13.235325780238263     
  0.12869999999999998         -9.1213401494052473     
  0.12900000000000000         -4.3592594936259736     
  0.12930000000000003         0.74906488758306544     
  0.12959999999999999          5.8794077857255411     
  0.12990000000000002          10.711661601750556     
  0.13019999999999998          14.952808091741908     
  0.13050000000000000          18.353910637098377     
  0.13080000000000003          20.729682742053228     
  0.13109999999999999          21.961900282467017     
  0.13140000000000002          22.007659367644205     
  0.13169999999999998          20.893874595578588     
  0.13200000000000001          18.711593246349018     
  0.13229999999999997          15.605713720246278     
  0.13260000000000000          11.760655629975252     
  0.13290000000000002          7.3884026324924665     
  0.13319999999999999          2.7125114598949152     
  0.13350000000000001         -2.0429631005718112     
  0.13380000000000003         -6.6661637547652255     
  0.13410000000000000         -10.966786722116911     
  0.13440000000000002         -14.781775410081838     
  0.13469999999999999         -17.982391906882629     
  0.13500000000000001         -20.475038810985911     
  0.13529999999999998         -22.201635455715646     
  0.13560000000000000         -23.141220080419295     
  0.13590000000000002         -23.302505452159590     
  0.13619999999999999         -22.724737169854645     
  0.13650000000000001         -21.469141116236102     
  0.13680000000000003         -19.614916118091536     
  0.13710000000000000         -17.254356856385279     
  0.13740000000000002         -14.485445726262544     
  0.13769999999999999         -11.409790038548406     
  0.13800000000000001         -8.1258270927844336     
  0.13829999999999998         -4.7294860252815285     
  0.13860000000000000         -1.3082542892573881     
  0.13890000000000002          2.0554947406541269     
  0.13919999999999999          5.2890293342011239     
  0.13950000000000001          8.3255534295880746     
  0.13979999999999998          11.106378864161160     
  0.14010000000000000          13.579602390700146     
  0.14040000000000002          15.700016986220723     
  0.14069999999999999          17.430865181827865     
  0.14100000000000001          18.743122854109359     
  0.14130000000000004          19.617747034905449     
  0.14160000000000000          20.045384087996116     
  0.14189999999999997          20.029453889740545     
  0.14219999999999999          19.582934041884769     
  0.14250000000000002          18.733082463368493     
  0.14279999999999998          17.515976654102232     
  0.14310000000000000          15.978850194365846     
  0.14339999999999997          14.176304751425953     
  0.14369999999999999          12.166167319388185     
  0.14400000000000002          10.011960232409551     
  0.14429999999999998          7.7731069340702312     
  0.14460000000000001          5.5078664295208020     
  0.14490000000000003          3.2681712871426565     
  0.14520000000000000          1.0974407444172709     
  0.14550000000000002        -0.96806990376855218     
  0.14579999999999999         -2.9035923678303335     
  0.14610000000000001         -4.6912795309688651     
  0.14640000000000003         -6.3225131000847279     
  0.14670000000000000         -7.7947648860560479     
  0.14699999999999996         -9.1090376784985345     
  0.14729999999999999         -10.270239084730420     
  0.14760000000000001         -11.281398927913250     
  0.14789999999999998         -12.144295809194231     
  0.14820000000000000         -12.857479188416397     