  -1.4999999999999999E-002     0.0000000000000000     
  -1.4700000000000000E-002     0.0000000000000000     
  -1.4400000000000000E-002     0.0000000000000000     
  -1.4100000000000000E-002     0.0000000000000000     
  -1.3800000000000000E-002     0.0000000000000000     
  -1.3500000000000000E-002     0.0000000000000000     
  -1.3200000000000000E-002     0.0000000000000000     
  -1.2899999999999998E-002     0.0000000000000000     
  -1.2600000000000000E-002     0.0000000000000000     
  -1.2299999999999998E-002     0.0000000000000000     
  -1.2000000000000000E-002     0.0000000000000000     
  -1.1699999999999999E-002     0.0000000000000000     
  -1.1399999999999999E-002     0.0000000000000000     
  -1.1099999999999999E-002     0.0000000000000000     
  -1.0799999999999999E-002     0.0000000000000000     
  -1.0499999999999999E-002     0.0000000000000000     
  -1.0199999999999999E-002     0.0000000000000000     
  -9.8999999999999991E-003     0.0000000000000000     
  -9.5999999999999992E-003     0.0000000000000000     
  -9.2999999999999992E-003     0.0000000000000000     
  -8.9999999999999993E-003     0.0000000000000000     
  -8.6999999999999994E-003     0.0000000000000000     
  -8.3999999999999995E-003     0.0000000000000000     
  -8.0999999999999996E-003     0.0000000000000000     
  -7.7999999999999988E-003     0.0000000000000000     
  -7.4999999999999997E-003     0.0000000000000000     
  -7.1999999999999998E-003     0.0000000000000000     
  -6.8999999999999981E-003     0.0000000000000000     
  -6.5999999999999982E-003     0.0000000000000000     
  -6.3000000000000000E-003     0.0000000000000000     
  -6.0000000000000001E-003     0.0000000000000000     
  -5.6999999999999985E-003     0.0000000000000000     
  -5.3999999999999986E-003     0.0000000000000000     
  -5.1000000000000004E-003     0.0000000000000000     
  -4.7999999999999987E-003     0.0000000000000000     
  -4.5000000000000005E-003     0.0000000000000000     
  -4.1999999999999989E-003     0.0000000000000000     
  -3.8999999999999990E-003     0.0000000000000000     
  -3.5999999999999990E-003     0.0000000000000000     
  -3.2999999999999991E-003     0.0000000000000000     
  -2.9999999999999992E-003     0.0000000000000000     
  -2.6999999999999993E-003     0.0000000000000000     
  -2.3999999999999994E-003     0.0000000000000000     
  -2.0999999999999977E-003     0.0000000000000000     
  -1.7999999999999995E-003     0.0000000000000000     
  -1.4999999999999979E-003     0.0000000000000000     
  -1.1999999999999997E-003     0.0000000000000000     
  -8.9999999999999976E-004     0.0000000000000000     
  -5.9999999999999810E-004     0.0000000000000000     
  -2.9999999999999992E-004     0.0000000000000000     
   0.0000000000000000          0.0000000000000000     
   3.0000000000000165E-004     0.0000000000000000     
   5.9999999999999984E-004     0.0000000000000000     
   9.0000000000000149E-004     0.0000000000000000     
   1.2000000000000031E-003     0.0000000000000000     
   1.5000000000000013E-003     0.0000000000000000     
   1.8000000000000030E-003     0.0000000000000000     
   2.1000000000000012E-003     0.0000000000000000     
   2.3999999999999994E-003     0.0000000000000000     
   2.7000000000000010E-003     0.0000000000000000     
   2.9999999999999992E-003     0.0000000000000000     
   3.3000000000000008E-003     0.0000000000000000     
   3.6000000000000025E-003     0.0000000000000000     
   3.9000000000000007E-003     0.0000000000000000     
   4.2000000000000023E-003     0.0000000000000000     
   4.5000000000000005E-003     0.0000000000000000     
   4.7999999999999987E-003     0.0000000000000000     
   5.1000000000000004E-003     0.0000000000000000     
   5.4000000000000020E-003     0.0000000000000000     
   5.7000000000000037E-003     0.0000000000000000     
   5.9999999999999984E-003     0.0000000000000000     
   6.3000000000000000E-003     0.0000000000000000     
   6.6000000000000017E-003     0.0000000000000000     
   6.9000000000000034E-003     0.0000000000000000     
   7.2000000000000015E-003     0.0000000000000000     
   7.5000000000000032E-003     0.0000000000000000     
   7.8000000000000014E-003     0.0000000000000000     
   8.0999999999999996E-003     0.0000000000000000     
   8.4000000000000012E-003     0.0000000000000000     
   8.7000000000000029E-003     0.0000000000000000     
   9.0000000000000011E-003     0.0000000000000000     
   9.2999999999999992E-003     0.0000000000000000     
   9.6000000000000009E-003     0.0000000000000000     
   9.8999999999999991E-003     0.0000000000000000     
   1.0200000000000001E-002     0.0000000000000000     
   1.0500000000000002E-002     0.0000000000000000     
   1.0800000000000004E-002     0.0000000000000000     
   1.1099999999999999E-002     0.0000000000000000     
   1.1400000000000000E-002     0.0000000000000000     
   1.1700000000000002E-002     0.0000000000000000     
   1.2000000000000004E-002     0.0000000000000000     
   1.2300000000000002E-002     0.0000000000000000     
   1.2600000000000000E-002     0.0000000000000000     
   1.2900000000000002E-002     0.0000000000000000     
   1.3200000000000000E-002     0.0000000000000000     
   1.3500000000000002E-002     0.0000000000000000     
   1.3800000000000003E-002     0.0000000000000000     
   1.4100000000000001E-002     0.0000000000000000     
   1.4400000000000000E-002     0.0000000000000000     
   1.4700000000000001E-002     0.0000000000000000     
   1.4999999999999999E-002     0.0000000000000000     
   1.5300000000000001E-002     0.0000000000000000     
   1.5600000000000003E-002     0.0000000000000000     
   1.5899999999999997E-002     0.0000000000000000     
   1.6199999999999999E-002     0.0000000000000000     
   1.6500000000000001E-002     0.0000000000000000     
   1.6800000000000002E-002     0.0000000000000000     
   1.7100000000000004E-002     0.0000000000000000     
   1.7400000000000006E-002     0.0000000000000000     
   1.7700000000000000E-002     0.0000000000000000     
   1.8000000000000002E-002     0.0000000000000000     
   1.8300000000000004E-002     0.0000000000000000     
   1.8600000000000005E-002     0.0000000000000000     
   1.8900000000000000E-002     0.0000000000000000     
   1.9200000000000002E-002     0.0000000000000000     
   1.9500000000000003E-002     0.0000000000000000     
   1.9799999999999998E-002     0.0000000000000000     
   2.0100000000000000E-002     0.0000000000000000     
   2.0400000000000001E-002     0.0000000000000000     
   2.0700000000000003E-002     0.0000000000000000     
   2.0999999999999998E-002     0.0000000000000000     
   2.1299999999999999E-002     0.0000000000000000     
   2.1600000000000001E-002     0.0000000000000000     
   2.1900000000000003E-002     0.0000000000000000     
   2.2200000000000004E-002     0.0000000000000000     
   2.2500000000000006E-002     0.0000000000000000     
   2.2800000000000001E-002     0.0000000000000000     
   2.3100000000000002E-002     0.0000000000000000     
   2.3400000000000004E-002     0.0000000000000000     
   2.3699999999999999E-002     0.0000000000000000     
   2.4000000000000000E-002     0.0000000000000000     
   2.4300000000000002E-002     0.0000000000000000     
   2.4599999999999997E-002     0.0000000000000000     
   2.4900000000000005E-002     0.0000000000000000     
   2.5200000000000000E-002     0.0000000000000000     
   2.5499999999999995E-002     0.0000000000000000     
   2.5800000000000003E-002     0.0000000000000000     
   2.6099999999999998E-002     0.0000000000000000     
   2.6400000000000007E-002     0.0000000000000000     
   2.6700000000000002E-002     0.0000000000000000     
   2.6999999999999996E-002     0.0000000000000000     
   2.7300000000000005E-002     0.0000000000000000     
   2.7600000000000000E-002    -1.2623656565839997E-073
   2.7900000000000008E-002     1.2289084242288927E-072
   2.8200000000000003E-002     3.6654687063227665E-072
   2.8499999999999998E-002     1.3062246408323678E-044
   2.8800000000000006E-002    -9.7413335976589543E-044
   2.9100000000000001E-002     1.7618415976082663E-037
   2.9400000000000003E-002    -3.0171930108462635E-036
   2.9700000000000004E-002     4.4944773748878021E-035
   3.0000000000000006E-002    -2.2582093757705461E-034
   3.0300000000000001E-002     1.1300178605956822E-035
   3.0600000000000002E-002     2.9966885049669517E-033
   3.0900000000000004E-002    -1.1674833060275851E-032
   3.1199999999999999E-002     2.1811018307427515E-032
   3.1500000000000007E-002    -2.7611062824369182E-032
   3.1800000000000002E-002    -6.3000144835049575E-033
   3.2099999999999997E-002     2.1675266380378035E-031
   3.2400000000000005E-002    -1.0141734933900663E-030
   3.2700000000000000E-002     3.4402310541839846E-030
   3.3000000000000002E-002    -9.6286755382346384E-030
   3.3300000000000003E-002     2.2644650255978510E-029
   3.3599999999999998E-002    -4.2826425485939060E-029
   3.3900000000000000E-002     5.2820826853877408E-029
   3.4200000000000001E-002     2.4299713071169355E-029
   3.4500000000000003E-002    -4.1194703579580782E-028
   3.4799999999999998E-002     1.5941169694305311E-027
   3.5099999999999999E-002    -4.2809953166554823E-027
   3.5400000000000001E-002     8.6389853528080655E-027
   3.5699999999999996E-002    -1.1506908713560055E-026
   3.6000000000000004E-002    -1.4002232769178160E-029
   3.6299999999999999E-002     5.7720720576328725E-026
   3.6600000000000008E-002    -2.1266832743107798E-025
   3.6900000000000002E-002     4.9060400716921561E-025
   3.7199999999999997E-002    -7.3620965527446594E-025
   3.7500000000000006E-002     3.0106259588188818E-025
   3.7800000000000000E-002     2.2531458272479244E-024
   3.8100000000000009E-002    -8.6719374056350360E-024
   3.8400000000000004E-002     1.8145072864377687E-023
   3.8699999999999998E-002    -2.0642409613374394E-023
   3.9000000000000007E-002    -1.0624284026857691E-023
   3.9300000000000002E-002     1.1273884720076765E-022
   3.9600000000000003E-002    -2.8256251839546049E-022
   3.9900000000000005E-002     3.6098245260327938E-022
   4.0200000000000000E-002     8.0693215444306797E-023
   4.0500000000000001E-002    -1.5839049425031974E-021
   4.0800000000000003E-002     3.9374703307885402E-021
   4.1100000000000005E-002    -4.5181478702808513E-021
   4.1399999999999999E-002    -2.7310436163775828E-021
   4.1700000000000008E-002     2.3894471493365743E-020
   4.2000000000000003E-002    -5.3285539142076591E-020
   4.2299999999999997E-002     5.6786763937944945E-020
   4.2600000000000006E-002     2.8990234479480316E-020
   4.2900000000000001E-002    -2.4397644167552090E-019
   4.3200000000000002E-002     4.5719030468932031E-019
   4.3500000000000004E-002    -8.2970471198927242E-020
   4.3799999999999999E-002    -2.3489607935829841E-018
   4.4100000000000000E-002     9.2328314219876853E-018
   4.4400000000000002E-002    -2.0479629841869566E-017
   4.4700000000000004E-002     1.8670827862456576E-017
   4.4999999999999998E-002     6.2105473828422821E-017
   4.5300000000000000E-002    -3.4283032004923787E-016
   4.5600000000000002E-002     8.3064526011391779E-016
   4.5899999999999996E-002    -9.4196106855525177E-016
   4.6200000000000005E-002    -6.2078732267221964E-016
   4.6500000000000000E-002     3.3389295298891048E-015
   4.6799999999999994E-002    -3.1870168311833311E-016
   4.7100000000000003E-002    -5.3620446208687155E-015
   4.7399999999999998E-002    -9.0058564104452116E-014
   4.7700000000000006E-002     5.7351007643772037E-013
   4.8000000000000001E-002    -1.2218748707270482E-012
   4.8300000000000010E-002    -1.5554206459508334E-012
   4.8600000000000004E-002     1.6436240945127464E-011
   4.8899999999999999E-002    -3.6504032540632425E-011
   4.9200000000000008E-002    -2.8501066698817339E-011
   4.9500000000000002E-002     3.4450187736385004E-010
   4.9800000000000011E-002    -5.9439928978119188E-010
   5.0100000000000006E-002    -1.0992081692860435E-009
   5.0400000000000000E-002     5.9521715799440054E-009
   5.0700000000000009E-002    -2.8322432591061339E-009
   5.1000000000000004E-002    -3.2911422497672843E-008
   5.1299999999999998E-002     5.1966886397667246E-008
   5.1600000000000007E-002     1.3399249647503288E-007
   5.1900000000000002E-002    -3.9684627679121946E-007
   5.2200000000000010E-002    -5.2381410429539182E-007
   5.2500000000000005E-002     3.8009453404833391E-006
   5.2800000000000000E-002     1.4265929023031433E-005
   5.3099999999999994E-002     2.5613473401535319E-005
   5.3400000000000003E-002     3.3511747107433886E-005
   5.3699999999999998E-002     4.2355480606484694E-005
   5.4000000000000006E-002     5.8883702314235019E-005
   5.4300000000000001E-002     8.7186955251893268E-005
   5.4599999999999996E-002     1.3375538258283360E-004
   5.4900000000000004E-002     2.0686669227529850E-004
   5.5199999999999999E-002     3.1102870387042552E-004
   5.5499999999999994E-002     4.4935362079861899E-004
   5.5800000000000002E-002     6.3169240540379159E-004
   5.6099999999999997E-002     8.7927857195831680E-004
   5.6400000000000006E-002     1.2155743190679360E-003
   5.6700000000000000E-002     1.6530022089039432E-003
   5.6999999999999995E-002     2.1989110164739680E-003
   5.7300000000000004E-002     2.8607931159309310E-003
   5.7599999999999998E-002     3.6320963037335986E-003
   5.7900000000000007E-002     4.4904597573994127E-003
   5.8200000000000002E-002     5.4003646972967658E-003
   5.8499999999999996E-002     6.2917428375527714E-003
   5.8800000000000005E-002     7.0466337930394710E-003
   5.9100000000000000E-002     7.4989357190308236E-003
   5.9400000000000008E-002     7.4271898880958207E-003
   5.9700000000000003E-002     6.5559217952776598E-003
   6.0000000000000012E-002     4.5627261955540612E-003
   6.0300000000000006E-002     1.0781119207162672E-003
   6.0600000000000001E-002    -4.2855217653937376E-003
   6.0900000000000010E-002    -1.1885010521504437E-002
   6.1200000000000004E-002    -2.2006066299004642E-002
   6.1500000000000013E-002    -3.4812029106112370E-002
   6.1800000000000008E-002    -5.0274539239190133E-002
   6.2100000000000002E-002    -6.8095631219889402E-002
   6.2399999999999997E-002    -8.7637617312183697E-002
   6.2700000000000006E-002   -0.10787875843044341     
   6.3000000000000000E-002   -0.12739571802356012     
   6.3300000000000009E-002   -0.14437943553596269     
   6.3600000000000004E-002   -0.15669223510808106     
   6.3899999999999998E-002   -0.16197937566648724     
   6.4199999999999993E-002   -0.15783420049269739     
   6.4500000000000002E-002   -0.14201982179575132     
   6.4800000000000010E-002   -0.11271314957677195     
   6.5100000000000005E-002    -6.8762696616112409E-002
   6.5400000000000000E-002    -9.9426600295710963E-003
   6.5700000000000008E-002     6.2860018862117714E-002
   6.5999999999999989E-002    0.14750479013918422     
   6.6299999999999998E-002    0.24056961893303910     
   6.6600000000000006E-002    0.33744430208002091     
   6.6900000000000001E-002    0.43251755407393450     
   6.7199999999999996E-002    0.51957565035890840     
   6.7500000000000004E-002    0.59220498220967666     
   6.7800000000000013E-002    0.64427118865987099     
   6.8099999999999994E-002    0.67046593969761537     
   6.8400000000000002E-002    0.66680073095061820     
   6.8700000000000011E-002    0.63099413506186319     
   6.8999999999999992E-002    0.56280975999749250     
   6.9300000000000000E-002    0.46410408181500129     
   6.9600000000000009E-002    0.33881908345563794     
   6.9900000000000004E-002    0.19274581802771357     
   7.0199999999999999E-002     3.3127773447332039E-002
   7.0500000000000007E-002   -0.13184818476640461     
   7.0800000000000016E-002   -0.29361974890495490     
   7.1099999999999997E-002   -0.44385379109277723     
   7.1400000000000005E-002   -0.57496046455408489     
   7.1700000000000000E-002   -0.68065541323908318     
   7.1999999999999995E-002   -0.75630813113906903     
   7.2300000000000003E-002   -0.79906385381902079     
   7.2600000000000012E-002   -0.80805336674588779     
   7.2900000000000006E-002   -0.78429054490853656     
   7.3200000000000001E-002   -0.73042451671519470     
   7.3499999999999996E-002   -0.65056019439282364     
   7.3800000000000004E-002   -0.54988526815351357     
   7.4099999999999999E-002   -0.43434336409307223     
   7.4400000000000008E-002   -0.31021949392129000     
   7.4700000000000003E-002   -0.18380683518826205     
   7.5000000000000011E-002    -6.1172827742178984E-002
   7.5299999999999992E-002     5.2220299203085942E-002
   7.5600000000000001E-002    0.15168517681125826     
   7.5900000000000009E-002    0.23336361137141903     
   7.6200000000000004E-002    0.29450687508257339     
   7.6499999999999999E-002    0.33341154171417259     
   7.6800000000000007E-002    0.34935059852847861     
   7.7099999999999988E-002    0.34270751197144633     
   7.7399999999999997E-002    0.31477293121333794     
   7.7700000000000005E-002    0.26755696328954587     
   7.8000000000000014E-002    0.20382377354588332     
   7.8299999999999995E-002    0.12679321978922706     
   7.8600000000000003E-002     4.0038775540473123E-002
   7.8900000000000012E-002    -5.2581324523029126E-002
   7.9199999999999993E-002   -0.14719579970093014     
   7.9500000000000001E-002   -0.23984381334912566     
   7.9800000000000010E-002   -0.32656094138158787     
   8.0100000000000018E-002   -0.40366562840589065     
   8.0399999999999999E-002   -0.46755978048246449     
   8.0700000000000008E-002   -0.51486956613552282     
   8.1000000000000003E-002   -0.54272311436961784     
   8.1299999999999997E-002   -0.54867070414001751     
   8.1600000000000006E-002   -0.53094851481285477     
   8.1900000000000014E-002   -0.48867728846532449     
   8.2199999999999995E-002   -0.42191198061748869     
   8.2500000000000004E-002   -0.33190929558029103     
   8.2799999999999999E-002   -0.22115884483377746     
   8.3100000000000007E-002    -9.3317544702985061E-002
   8.3400000000000002E-002     4.6698685723206554E-002
   8.3700000000000011E-002    0.19310560686954636     
   8.4000000000000005E-002    0.33955767476476234     
   8.4300000000000000E-002    0.47931626030483987     
   8.4599999999999995E-002    0.60594808521125720     
   8.4900000000000003E-002    0.71369402955660510     
   8.5199999999999998E-002    0.79782413701685384     
   8.5500000000000007E-002    0.85502552184899716     
   8.5800000000000001E-002    0.88361453168135873     
   8.6100000000000010E-002    0.88365917542700512     
   8.6399999999999991E-002    0.85693686357198340     
   8.6699999999999999E-002    0.80654560711587764     
   8.7000000000000008E-002    0.73676519832801257     
   8.7300000000000003E-002    0.65263217004305218     
   8.7599999999999997E-002    0.55945956104067496     
   8.7900000000000006E-002    0.46242579300446068     
   8.8200000000000014E-002    0.36617490218710902     
   8.8499999999999995E-002    0.27461355578553331     
   8.8800000000000004E-002    0.19075013429155246     
   8.9100000000000013E-002    0.11650929404303766     
   8.9399999999999993E-002     5.2935014089099564E-002
   8.9700000000000002E-002     1.0132899074849647E-004
   9.0000000000000011E-002    -4.2537402638653139E-002
   9.0299999999999991E-002    -7.5994714955071679E-002
   9.0600000000000000E-002   -0.10181692936043468     
   9.0900000000000009E-002   -0.12151652488798551     
   9.1200000000000017E-002   -0.13673938693878671     
   9.1499999999999998E-002   -0.14932255298111602     
   9.1800000000000007E-002   -0.16079644680269051     
   9.2100000000000001E-002   -0.17279217927928689     
   9.2399999999999996E-002   -0.18685206528247530     
   9.2700000000000005E-002   -0.20423167669691675     
   9.3000000000000013E-002   -0.22624359715042977     
   9.3300000000000008E-002   -0.25364282381593001     
   9.3600000000000003E-002   -0.28691231822778546     
   9.3899999999999997E-002   -0.32628303344737725     
   9.4200000000000006E-002   -0.37104618091083624     
   9.4500000000000001E-002   -0.42007609705322957     
   9.4800000000000009E-002   -0.47173973383175682     
   9.5100000000000004E-002   -0.52360891729334802     
   9.5399999999999999E-002   -0.57298600076251804     
   9.5699999999999993E-002   -0.61673771713070691     
   9.6000000000000002E-002   -0.65161024888158003     
   9.6300000000000011E-002   -0.67458217692125344     
   9.6600000000000005E-002   -0.68273537712599075     
   9.6900000000000000E-002   -0.67378436900063321     
   9.7200000000000009E-002   -0.64607011683643267     
   9.7499999999999989E-002   -0.59864609893519782     
   9.7799999999999998E-002   -0.53165137290662834     
   9.8100000000000007E-002   -0.44594269590522145     
   9.8400000000000015E-002   -0.34326749731799278     
   9.8699999999999996E-002   -0.22643144223745681     
   9.9000000000000005E-002    -9.8922311338381655E-002
   9.9300000000000013E-002     3.5162973861921083E-002
   9.9599999999999994E-002    0.17105801251791672     
   9.9900000000000003E-002    0.30368083442170507     
  0.10020000000000001         0.42781474795254443     
  0.10049999999999999         0.53820096949206409     
  0.10080000000000000         0.62995683558337023     
  0.10110000000000001         0.69870602423092132     
  0.10140000000000000         0.74077629332586492     
  0.10170000000000000         0.75358199340511745     
  0.10200000000000001         0.73573761450609121     
  0.10230000000000002         0.68702977203764382     
  0.10260000000000000         0.60869365302967904     
  0.10290000000000001         0.50316762387884784     
  0.10320000000000000         0.37395703373737055     
  0.10350000000000001         0.22567049877109216     
  0.10380000000000000          6.3526040525999597E-002
  0.10410000000000001        -0.10689967833551511     
  0.10440000000000001        -0.27980783374641838     
  0.10470000000000000        -0.44946410875391490     
  0.10500000000000000        -0.61044638807792417     
  0.10530000000000000        -0.75763916275717136     
  0.10560000000000000        -0.88629954223516338     
  0.10590000000000001        -0.99198471554209566     
  0.10620000000000000         -1.0705357686477583     
  0.10650000000000001         -1.1180374512826274     
  0.10679999999999999         -1.1306146271227313     
  0.10710000000000000         -1.1047285684356847     
  0.10740000000000001         -1.0373128547093899     
  0.10770000000000000        -0.92594759698795215     
  0.10800000000000000        -0.76923113248007902     
  0.10830000000000001        -0.56737487884417448     
  0.10859999999999999        -0.32249781098825253     
  0.10890000000000000         -3.9093545407830159E-002
  0.10920000000000001         0.27580538200275728     
  0.10950000000000001         0.61260896398897013     
  0.10979999999999999         0.95934568968399003     
  0.11009999999999999          1.3019801257329604     
  0.11040000000000001          1.6254911269284114     
  0.11070000000000001          1.9146802242368388     
  0.11100000000000000          2.1550242693252653     
  0.11130000000000000          2.3340220225027037     
  0.11160000000000002          2.4420828581036749     
  0.11190000000000001          2.4733462091438621     
  0.11220000000000001          2.4260749578270682     
  0.11250000000000000          2.3027319680607636     
  0.11280000000000000          2.1100985794702272     
  0.11309999999999999          1.8584303670484326     
  0.11340000000000001          1.5602251134450968     
  0.11369999999999998          1.2300901287829120     
  0.11400000000000000         0.88295882018339322     
  0.11430000000000000         0.53281896719274946     
  0.11460000000000002         0.19257214398754874     
  0.11489999999999999        -0.12736156551090436     
  0.11520000000000001        -0.41933181575844802     
  0.11550000000000001        -0.67825006892241657     
  0.11580000000000000        -0.90206866701426769     
  0.11609999999999999         -1.0907988454682478     
  0.11640000000000002         -1.2461604963057591     
  0.11670000000000001         -1.3713607665870460     
  0.11700000000000001         -1.4696897134298921     
  0.11730000000000000         -1.5441949223448492     
  0.11760000000000000         -1.5978820170714771     
  0.11789999999999999         -1.6321556406891324     
  0.11820000000000001         -1.6474240850743189     
  0.11850000000000001         -1.6435042447296333     
  0.11880000000000000         -1.6186407629592938     
  0.11910000000000000         -1.5707412783990207     
  0.11940000000000002         -1.4981144496202758     
  0.11970000000000001         -1.3987934426984432     
  0.12000000000000001         -1.2721816151241450     
  0.12030000000000000         -1.1191292867235707     
  0.12060000000000000        -0.94175283968240575     
  0.12089999999999999        -0.74454199373328689     
  0.12119999999999999        -0.53357493244803478     
  0.12150000000000001        -0.31650524980277789     
  0.12180000000000001        -0.10253687873458350     
  0.12210000000000000          9.8964167726078980E-002
  0.12239999999999999         0.27852743433948773     
  0.12270000000000002         0.42725926013634175     
  0.12300000000000001         0.53832524244715907     
  0.12330000000000001         0.60673808192113587     
  0.12360000000000000         0.63014864040601593     
  0.12390000000000000         0.60951947319099431     
  0.12419999999999999         0.54816227398201833     
  0.12450000000000001         0.45247750864655256     
  0.12480000000000001         0.33114063305327385     
  0.12509999999999999         0.19407079881376577     
  0.12540000000000001          5.2449319256562231E-002
  0.12570000000000003         -8.2616729825078727E-002
  0.12600000000000000        -0.20087459337619851     
  0.12630000000000002        -0.29317372555700438     
  0.12659999999999999        -0.35260691668437000     
  0.12690000000000001        -0.37451698767645447     
  0.12719999999999998        -0.35680841812754749     
  0.12750000000000000        -0.30023553457804225     
  0.12780000000000002        -0.20783626649197548     
  0.12809999999999999         -8.4988778202445922E-002
  0.12840000000000001          6.0803037217865299E-002
  0.12869999999999998         0.22083319509826496     
  0.12900000000000000         0.38562827857429383     
  0.12930000000000003         0.54520957995757569     
  0.12959999999999999         0.68978499501012902     
  0.12990000000000002         0.81059222380336426     
  0.13019999999999998         0.89999901094134727     
  0.13050000000000000         0.95192180841940288     
  0.13080000000000003         0.96235655501887440     
  0.13109999999999999         0.92931948905249662     
  0.13140000000000002         0.85319118611878664     
  0.13169999999999998         0.73663478168535501     
  0.13200000000000001         0.58431475644170727     
  0.13229999999999997         0.40283613933256568     
  0.13260000000000000         0.20040006742927757     
  0.13290000000000002         -1.3472842946582311E-002
  0.13319999999999999        -0.22841031467922654     
  0.13350000000000001        -0.43377503101455667     
  0.13380000000000003        -0.61901139317775888     
  0.13410000000000000        -0.77419852118767596     
  0.13440000000000002        -0.89075576021113179     
  0.13469999999999999        -0.96150766480837568     
  0.13500000000000001        -0.98154162025563529     
  0.13529999999999998        -0.94848035484512505     
  0.13560000000000000        -0.86247484718338496     
  0.13590000000000002        -0.72690325006253365     
  0.13619999999999999        -0.54785286650484399     
  0.13650000000000001        -0.33390032798582292     
  0.13680000000000003         -9.6324382840846656E-002
  0.13710000000000000         0.15202785849525963     
  0.13740000000000002         0.39737298594977383     
  0.13769999999999999         0.62542461577032016     
  0.13800000000000001         0.82297514857294629     
  0.13829999999999998         0.97817503208724543     
  0.13860000000000000          1.0814742910481450     
  0.13890000000000002          1.1268629891524216     
  0.13919999999999999          1.1116146907611919     
  0.13950000000000001          1.0368208761125006     
  0.13979999999999998         0.90755825150528580     
  0.14010000000000000         0.73206572848473683     
  0.14040000000000002         0.52152215801443380     
  0.14069999999999999         0.28900718319800833     
  0.14100000000000001          4.8523853448449616E-002
  0.14130000000000004        -0.18595193172725180     
  0.14160000000000000        -0.40136682604182006     
  0.14189999999999997        -0.58655285261273660     
  0.14219999999999999        -0.73281728501462762     
  0.14250000000000002        -0.83446275373299017     
  0.14279999999999998        -0.88878600932568075     
  0.14310000000000000        -0.89595460041713026     
  0.14339999999999997        -0.85891955292227373     
  0.14369999999999999        -0.78273540026673838     
  0.14400000000000002        -0.67408745888918609     
  0.14429999999999998        -0.54055642626689626     
  0.14460000000000001        -0.39027186919275175     
  0.14490000000000003        -0.23139273954509418     
  0.14520000000000000         -7.1475475758939977E-002
  0.14550000000000002          8.2376650529599318E-002
  0.14579999999999999         0.22410815760157282     
  0.14610000000000001         0.34843036258445226     
  0.14640000000000003         0.45095401676333224     
  0.14670000000000000         0.52844178320948210     
  0.14699999999999996         0.57841568821415545     
  0.14729999999999999         0.59956520444374384     
  0.14760000000000001         0.59176474483255936     
  0.14789999999999998         0.55587410635237589     
  0.14820000000000000         0.49415507662796826     