  -1.4999999999999999E-002     0.0000000000000000     
  -1.4700000000000000E-002     0.0000000000000000     
  -1.4400000000000000E-002     0.0000000000000000     
  -1.4100000000000000E-002     0.0000000000000000     
  -1.3800000000000000E-002     0.0000000000000000     
  -1.3500000000000000E-002     0.0000000000000000     
  -1.3200000000000000E-002     0.0000000000000000     
  -1.2899999999999998E-002     0.0000000000000000     
  -1.2600000000000000E-002     0.0000000000000000     
  -1.2299999999999998E-002     0.0000000000000000     
  -1.2000000000000000E-002     0.0000000000000000     
  -1.1699999999999999E-002     0.0000000000000000     
  -1.1399999999999999E-002     0.0000000000000000     
  -1.1099999999999999E-002     0.0000000000000000     
  -1.0799999999999999E-002     0.0000000000000000     
  -1.0499999999999999E-002     0.0000000000000000     
  -1.0199999999999999E-002     0.0000000000000000     
  -9.8999999999999991E-003     0.0000000000000000     
  -9.5999999999999992E-003     0.0000000000000000     
  -9.2999999999999992E-003     0.0000000000000000     
  -8.9999999999999993E-003     0.0000000000000000     
  -8.6999999999999994E-003     0.0000000000000000     
  -8.3999999999999995E-003     0.0000000000000000     
  -8.0999999999999996E-003     0.0000000000000000     
  -7.7999999999999988E-003     0.0000000000000000     
  -7.4999999999999997E-003     0.0000000000000000     
  -7.1999999999999998E-003     0.0000000000000000     
  -6.8999999999999981E-003     0.0000000000000000     
  -6.5999999999999982E-003     0.0000000000000000     
  -6.3000000000000000E-003     0.0000000000000000     
  -6.0000000000000001E-003     0.0000000000000000     
  -5.6999999999999985E-003     0.0000000000000000     
  -5.3999999999999986E-003     0.0000000000000000     
  -5.1000000000000004E-003     0.0000000000000000     
  -4.7999999999999987E-003     0.0000000000000000     
  -4.5000000000000005E-003     0.0000000000000000     
  -4.1999999999999989E-003     0.0000000000000000     
  -3.8999999999999990E-003     0.0000000000000000     
  -3.5999999999999990E-003     0.0000000000000000     
  -3.2999999999999991E-003     0.0000000000000000     
  -2.9999999999999992E-003    -3.1468388506771435E-037
  -2.6999999999999993E-003    -5.0451180205071882E-036
  -2.3999999999999994E-003    -1.0185386162674506E-035
  -2.0999999999999977E-003     6.2074210195127201E-035
  -1.7999999999999995E-003    -4.0778826179224042E-034
  -1.4999999999999979E-003     7.1352124760695674E-034
  -1.1999999999999997E-003    -9.6746870338427410E-034
  -8.9999999999999976E-004    -1.1925421166444703E-033
  -5.9999999999999810E-004     9.2153595868543174E-033
  -2.9999999999999992E-004    -2.7904005557259557E-032
   0.0000000000000000          4.6029571093884026E-032
   3.0000000000000165E-004    -5.2516042725743618E-032
   5.9999999999999984E-004     1.2695883796867017E-031
   9.0000000000000149E-004    -3.3429948165592872E-031
   1.2000000000000031E-003     1.0286734986330448E-031
   1.5000000000000013E-003     1.9828777157851900E-030
   1.8000000000000030E-003    -6.2922592137231177E-030
   2.1000000000000012E-003     7.6672275885184342E-030
   2.3999999999999994E-003     8.8174447729420562E-030
   2.7000000000000010E-003    -5.3642772295872155E-029
   2.9999999999999992E-003     7.6247178207831048E-029
   3.3000000000000008E-003     6.7869738931607708E-029
   3.6000000000000025E-003    -4.4314181189701833E-028
   3.9000000000000007E-003     6.2752750189100947E-028
   4.2000000000000023E-003     4.8516861189118306E-028
   4.5000000000000005E-003    -3.6373697201453976E-027
   4.7999999999999987E-003     5.8680958379119634E-027
   5.1000000000000004E-003     2.2502665564643223E-027
   5.4000000000000020E-003    -2.8103774172023630E-026
   5.7000000000000037E-003     5.0236801589629900E-026
   5.9999999999999984E-003     2.4368217335826974E-027
   6.3000000000000000E-003    -1.9597942594226757E-025
   6.6000000000000017E-003     3.9738825607314817E-025
   6.9000000000000034E-003    -8.1598151669143130E-026
   7.2000000000000015E-003    -1.2979358027012144E-024
   7.5000000000000032E-003     2.8730215352479401E-024
   7.8000000000000014E-003    -1.0116583418736015E-024
   8.0999999999999996E-003    -8.1206534997501673E-024
   8.4000000000000012E-003     1.8885802376186597E-023
   8.7000000000000029E-003    -7.0957901803058813E-024
   9.0000000000000011E-003    -5.1467157601145841E-023
   9.2999999999999992E-003     1.1465719429109912E-022
   9.6000000000000009E-003    -2.4492143013333219E-023
   9.8999999999999991E-003    -3.4297198078462659E-022
   1.0200000000000001E-002     6.5396651069253496E-022
   1.0500000000000002E-002     6.6088148688969754E-023
   1.0800000000000004E-002    -2.2833166770305763E-021
   1.1099999999999999E-002     3.5074803598481869E-021
   1.1400000000000000E-002     1.7381458775580022E-021
   1.1700000000000002E-002    -1.4062069588331189E-020
   1.2000000000000004E-002     1.7212251098187160E-020
   1.2300000000000002E-002     1.5696553815829967E-020
   1.2600000000000000E-002    -7.6808410585017800E-020
   1.2900000000000002E-002     7.5282195237348273E-020
   1.3200000000000000E-002     1.0194029189084009E-019
   1.3500000000000002E-002    -3.6755275894902413E-019
   1.3800000000000003E-002     2.8622346658907788E-019
   1.4100000000000001E-002     5.3691591420165947E-019
   1.4400000000000000E-002    -1.5374978182673131E-018
   1.4700000000000001E-002     9.2776999563587991E-019
   1.4999999999999999E-002     2.3874154940791204E-018
   1.5300000000000001E-002    -5.6361885360644768E-018
   1.5600000000000003E-002     2.5215715731142547E-018
   1.5899999999999997E-002     9.1014208239497274E-018
   1.6199999999999999E-002    -1.8206536958274831E-017
   1.6500000000000001E-002     5.7664758848258551E-018
   1.6800000000000002E-002     2.9944928286920443E-017
   1.7100000000000004E-002    -5.2591275714151630E-017
   1.7400000000000006E-002     1.2128578558976937E-017
   1.7700000000000000E-002     8.5838980607914719E-017
   1.8000000000000002E-002    -1.4035802858785313E-016
   1.8300000000000004E-002     3.0591272117118373E-017
   1.8600000000000005E-002     2.2055213673285014E-016
   1.8900000000000000E-002    -3.6542477950609927E-016
   1.9200000000000002E-002     1.0282763644235326E-016
   1.9500000000000003E-002     5.4150263074976135E-016
   1.9799999999999998E-002    -9.6699619613965121E-016
   2.0100000000000000E-002     3.4813855986465601E-016
   2.0400000000000001E-002     1.3510812567173021E-015
   2.0700000000000003E-002    -2.5983942489729031E-015
   2.0999999999999998E-002     1.1333769289801039E-015
   2.1299999999999999E-002     3.5639265090853909E-015
   2.1600000000000001E-002    -7.9326936699712035E-015
   2.1900000000000003E-002     3.7465472532458587E-015
   2.2200000000000004E-002     1.5397618394111676E-014
   2.2500000000000006E-002    -3.0460215556757273E-014
   2.2800000000000001E-002    -1.2236804047599332E-014
   2.3100000000000002E-002     9.6221623600797738E-014
   2.3400000000000004E-002    -1.3390101117530043E-014
   2.3699999999999999E-002    -2.5717303200113729E-013
   2.4000000000000000E-002    -1.5432928281189198E-014
   2.4300000000000002E-002     7.7570004453822289E-013
   2.4599999999999997E-002     9.0236492897516993E-013
   2.4900000000000005E-002    -3.3416917415516779E-012
   2.5200000000000000E-002    -7.6982717609224618E-012
   2.5499999999999995E-002     2.0929829129033387E-011
   2.5800000000000003E-002     3.8964060793300269E-011
   2.6099999999999998E-002    -1.3560752359274887E-010
   2.6400000000000007E-002    -9.4969717132034409E-011
   2.6700000000000002E-002     6.8569245024271701E-010
   2.6999999999999996E-002    -2.1888137237703400E-010
   2.7300000000000005E-002    -2.4235541668300178E-009
   2.7600000000000000E-002     3.2595185350170653E-009
   2.7900000000000008E-002     5.2731805517056853E-009
   2.8200000000000003E-002    -1.7669474099869992E-008
   2.8499999999999998E-002    -2.5373965114857772E-009
   2.8800000000000006E-002     6.8855780761424056E-008
   2.9100000000000001E-002    -3.9307183800051025E-008
   2.9400000000000003E-002    -2.5749270551803442E-007
   2.9700000000000004E-002     2.9045044608896174E-007
   3.0000000000000006E-002     2.0416164404410064E-006
   3.0300000000000001E-002     4.4104170654275430E-006
   3.0600000000000002E-002     8.2739953855505549E-006
   3.0900000000000004E-002     1.5735255081528993E-005
   3.1199999999999999E-002     2.4927590499016116E-005
   3.1500000000000007E-002     3.2678286750756970E-005
   3.1800000000000002E-002     4.5323645762910674E-005
   3.2099999999999997E-002     7.3785710056174271E-005
   3.2400000000000005E-002     1.1819418332573847E-004
   3.2700000000000000E-002     1.7605633558912320E-004
   3.3000000000000002E-002     2.5827942485504913E-004
   3.3300000000000003E-002     3.7955035541291197E-004
   3.3599999999999998E-002     5.4886921829883756E-004
   3.3900000000000000E-002     7.7901400661902864E-004
   3.4200000000000001E-002     1.0917710010058738E-003
   3.4500000000000003E-002     1.5159348154819131E-003
   3.4799999999999998E-002     2.0788261763333075E-003
   3.5099999999999999E-002     2.7961593718661059E-003
   3.5400000000000001E-002     3.6868102337410656E-003
   3.5699999999999996E-002     4.7870484112314633E-003
   3.6000000000000004E-002     6.1289585699151432E-003
   3.6299999999999999E-002     7.7213869923031982E-003
   3.6600000000000008E-002     9.5568307624186027E-003
   3.6900000000000002E-002     1.1623096566585583E-002
   3.7199999999999997E-002     1.3898824105390555E-002
   3.7500000000000006E-002     1.6320825069043782E-002
   3.7800000000000000E-002     1.8785188079135158E-002
   3.8100000000000009E-002     2.1190933874926564E-002
   3.8400000000000004E-002     2.3431183242462211E-002
   3.8699999999999998E-002     2.5363537231463992E-002
   3.9000000000000007E-002     2.6856061118376167E-002
   3.9300000000000002E-002     2.7811118049670795E-002
   3.9600000000000003E-002     2.8148480603776161E-002
   3.9900000000000005E-002     2.7841023605509302E-002
   4.0200000000000000E-002     2.6930125016050285E-002
   4.0500000000000001E-002     2.5521207359271190E-002
   4.0800000000000003E-002     2.3781281870848534E-002
   4.1100000000000005E-002     2.1901444696239336E-002
   4.1399999999999999E-002     2.0051104770760050E-002
   4.1700000000000008E-002     1.8337580611366183E-002
   4.2000000000000003E-002     1.6726136307816143E-002
   4.2299999999999997E-002     1.4934917825892343E-002
   4.2600000000000006E-002     1.2394445673382151E-002
   4.2900000000000001E-002     8.1745983970803043E-003
   4.3200000000000002E-002     9.3855362128910866E-004
   4.3500000000000004E-002    -1.1035278130583066E-002
   4.3799999999999999E-002    -2.9780447893656296E-002
   4.4100000000000000E-002    -5.7471025408142522E-002
   4.4400000000000002E-002    -9.6235198898748764E-002
   4.4700000000000004E-002   -0.14790598222912676     
   4.4999999999999998E-002   -0.21370034338366695     
   4.5300000000000000E-002   -0.29390703907799187     
   4.5600000000000002E-002   -0.38761924963972433     
   4.5899999999999996E-002   -0.49250405322566837     
   4.6200000000000005E-002   -0.60464931459378413     
   4.6500000000000000E-002   -0.71864520576933688     
   4.6799999999999994E-002   -0.82776789126881467     
   4.7100000000000003E-002   -0.92427398115202719     
   4.7399999999999998E-002   -0.99997748388920304     
   4.7700000000000006E-002    -1.0468119066144848     
   4.8000000000000001E-002    -1.0575979346931488     
   4.8300000000000010E-002    -1.0266497283966420     
   4.8600000000000004E-002   -0.95047889768343330     
   4.8899999999999999E-002   -0.82823511372257841     
   4.9200000000000008E-002   -0.66199486694783749     
   4.9500000000000002E-002   -0.45680303778930298     
   4.9800000000000011E-002   -0.22037409246988421     
   5.0100000000000006E-002     3.7316906831662555E-002
   5.0400000000000000E-002    0.30490019485723979     
   5.0700000000000009E-002    0.57030327300698547     
   5.1000000000000004E-002    0.82178774211039773     
   5.1299999999999998E-002     1.0489499277511845     
   5.1600000000000007E-002     1.2432302177345995     
   5.1900000000000002E-002     1.3988038510179197     
   5.2200000000000010E-002     1.5125593309009715     
   5.2500000000000005E-002     1.5844511274411375     
   5.2800000000000000E-002     1.6169571725154877     
   5.3099999999999994E-002     1.6148347862669725     
   5.3400000000000003E-002     1.5841920746672060     
   5.3699999999999998E-002     1.5320211608982406     
   5.4000000000000006E-002     1.4653610316190362     
   5.4300000000000001E-002     1.3904261704850938     
   5.4599999999999996E-002     1.3126962960676549     
   5.4900000000000004E-002     1.2358084435145271     
   5.5199999999999999E-002     1.1623080172076734     
   5.5499999999999994E-002     1.0930146326206809     
   5.5800000000000002E-002     1.0276004591950421     
   5.6099999999999997E-002    0.96467595438594622     
   5.6400000000000006E-002    0.90217660780153308     
   5.6700000000000000E-002    0.83753905853013244     
   5.6999999999999995E-002    0.76779082294255774     
   5.7300000000000004E-002    0.69017102000174591     
   5.7599999999999998E-002    0.60138299996569189     
   5.7900000000000007E-002    0.49880507221476955     
   5.8200000000000002E-002    0.37944846315952779     
   5.8499999999999996E-002    0.24102270866720010     
   5.8800000000000005E-002     8.1931714169141426E-002
   5.9100000000000000E-002    -9.8606875079109521E-002
   5.9400000000000008E-002   -0.29979682192519358     
   5.9700000000000003E-002   -0.51938134139022585     
   6.0000000000000012E-002   -0.75297867356770065     
   6.0300000000000006E-002   -0.99419520258267946     
   6.0600000000000001E-002    -1.2345939815162339     
   6.0900000000000010E-002    -1.4642842630408699     
   6.1200000000000004E-002    -1.6722998155775919     
   6.1500000000000013E-002    -1.8475073560861486     
   6.1800000000000008E-002    -1.9794712089832078     
   6.2100000000000002E-002    -2.0593081952226959     
   6.2399999999999997E-002    -2.0808957080581361     
   6.2700000000000006E-002    -2.0412803844416585     
   6.3000000000000000E-002    -1.9413960178886032     
   6.3300000000000009E-002    -1.7861018515305798     
   6.3600000000000004E-002    -1.5839845120377825     
   6.3899999999999998E-002    -1.3468953618522237     
   6.4199999999999993E-002    -1.0892358468503405     
   6.4500000000000002E-002   -0.82701677005151208     
   6.4800000000000010E-002   -0.57654509816772670     
   6.5100000000000005E-002   -0.35332039726743275     
   6.5400000000000000E-002   -0.17110769367233108     
   6.5700000000000008E-002    -4.0884280879898836E-002
   6.5999999999999989E-002     3.0119668993859455E-002
   6.6299999999999998E-002     3.8592256951870615E-002
   6.6600000000000006E-002    -1.4080416893339380E-002
   6.6900000000000001E-002   -0.12249162280364717     
   6.7199999999999996E-002   -0.27670535724371442     
   6.7500000000000004E-002   -0.46356377069654492     
   6.7800000000000013E-002   -0.66675868444973729     
   6.8099999999999994E-002   -0.86852250651212315     
   6.8400000000000002E-002    -1.0500824487833049     
   6.8700000000000011E-002    -1.1934575554059506     
   6.8999999999999992E-002    -1.2824211480730490     
   6.9300000000000000E-002    -1.3037203178604089     
   6.9600000000000009E-002    -1.2485205027753192     
   6.9900000000000004E-002    -1.1124007474271709     
   7.0199999999999999E-002   -0.89691384487891401     
   7.0500000000000007E-002   -0.60908594800543747     
   7.0800000000000016E-002   -0.26116913511695250     
   7.1099999999999997E-002    0.12941393720126618     
   7.1400000000000005E-002    0.54204445471875484     
   7.1700000000000000E-002    0.95310526989798539     
   7.1999999999999995E-002     1.3391084415756613     
   7.2300000000000003E-002     1.6768729033189160     
   7.2600000000000012E-002     1.9467567977250742     
   7.2900000000000006E-002     2.1332804654019362     
   7.3200000000000001E-002     2.2266813649237283     
   7.3499999999999996E-002     2.2242818371409214     
   7.3800000000000004E-002     2.1296339917552718     
   7.4099999999999999E-002     1.9537876621153298     
   7.4400000000000008E-002     1.7134313523931139     
   7.4700000000000003E-002     1.4299093158591836     
   7.5000000000000011E-002     1.1278395217478923     
   7.5299999999999992E-002    0.83259921154659777     
   7.5600000000000001E-002    0.56911908609722084     
   7.5900000000000009E-002    0.35910539727181490     
   7.6200000000000004E-002    0.22052477653164210     
   7.6499999999999999E-002    0.16501274055318288     
   7.6800000000000007E-002    0.19818154411712638     
   7.7099999999999988E-002    0.31857160830277387     
   7.7399999999999997E-002    0.51787171464904092     
   7.7700000000000005E-002    0.78153975375372842     
   7.8000000000000014E-002     1.0896151777000744     
   7.8299999999999995E-002     1.4175410801284354     
   7.8600000000000003E-002     1.7382269401981361     
   7.8900000000000012E-002     2.0227030799595580     
   7.9199999999999993E-002     2.2425684003640591     
   7.9500000000000001E-002     2.3711650144460203     
   7.9800000000000010E-002     2.3859611933523479     
   8.0100000000000018E-002     2.2694647506429564     
   8.0399999999999999E-002     2.0119758089595998     
   8.0700000000000008E-002     1.6116435995706835     
   8.1000000000000003E-002     1.0765465257395461     
   8.1299999999999997E-002    0.42445701129888191     
   8.1600000000000006E-002   -0.31708048444725745     
   8.1900000000000014E-002    -1.1118117913041119     
   8.2199999999999995E-002    -1.9167124489838268     
   8.2500000000000004E-002    -2.6841533750898772     
   8.2799999999999999E-002    -3.3650618399960162     
   8.3100000000000007E-002    -3.9128023063671042     
   8.3400000000000002E-002    -4.2858520081552971     
   8.3700000000000011E-002    -4.4522439981406210     
   8.4000000000000005E-002    -4.3912295630294800     
   8.4300000000000000E-002    -4.0964194694050198     
   8.4599999999999995E-002    -3.5760662996471142     
   8.4900000000000003E-002    -2.8533212634322762     
   8.5199999999999998E-002    -1.9647316103243755     
   8.5500000000000007E-002   -0.95778221503183536     
   8.5800000000000001E-002    0.11223829960883003     
   8.6100000000000010E-002     1.1856524695065271     
   8.6399999999999991E-002     2.2039214607352187     
   8.6699999999999999E-002     3.1116007369553649     
   8.7000000000000008E-002     3.8625309368337035     
   8.7300000000000003E-002     4.4201413146216506     
   8.7599999999999997E-002     4.7617306470556446     
   8.7900000000000006E-002     4.8776872948623238     
   8.8200000000000014E-002     4.7722490754902820     
   8.8499999999999995E-002     4.4617932954181638     
   8.8800000000000004E-002     3.9726100803605382     
   8.9100000000000013E-002     3.3390607906144645     
   8.9399999999999993E-002     2.5988802816159176     
   8.9700000000000002E-002     1.7915474738016544     
   9.0000000000000011E-002    0.95484562025855668     
   9.0299999999999991E-002    0.12208827161142288     
   9.0600000000000000E-002   -0.67846019573995331     
   9.0900000000000009E-002    -1.4259142754811358     
   9.1200000000000017E-002    -2.1050773534181020     
   9.1499999999999998E-002    -2.7077763891498323     
   9.1800000000000007E-002    -3.2298560396328861     
   9.2100000000000001E-002    -3.6716234799817800     
   9.2399999999999996E-002    -4.0346076125171582     
   9.2700000000000005E-002    -4.3216894211781893     
   9.3000000000000013E-002    -4.5350014974823605     
   9.3300000000000008E-002    -4.6760050454217437     
   9.3600000000000003E-002    -4.7446116275943462     
   9.3899999999999997E-002    -4.7402073822877995     
   9.4200000000000006E-002    -4.6611907951681530     
   9.4500000000000001E-002    -4.5067471435378952     
   9.4800000000000009E-002    -4.2770154933371334     
   9.5100000000000004E-002    -3.9736775748267323     
   9.5399999999999999E-002    -3.6014776331884448     
   9.5699999999999993E-002    -3.1667999958830078     
   9.6000000000000002E-002    -2.6800029523780386     
   9.6300000000000011E-002    -2.1533363269028558     
   9.6600000000000005E-002    -1.6015135938200431     
   9.6900000000000000E-002    -1.0410329148925950     
   9.7200000000000009E-002   -0.48884323631170457     
   9.7499999999999989E-002     3.7568721398973215E-002
   9.7799999999999998E-002    0.52221425346633354     
   9.8100000000000007E-002    0.95024875619056282     
   9.8400000000000015E-002     1.3100764101971552     
   9.8699999999999996E-002     1.5934338285709015     
   9.9000000000000005E-002     1.7958937454094512     
   9.9300000000000013E-002     1.9188218575895193     
   9.9599999999999994E-002     1.9675215954342216     
   9.9900000000000003E-002     1.9530546930270178     
  0.10020000000000001          1.8900917869790146     
  0.10049999999999999          1.7971127001573519     
  0.10080000000000000          1.6941758215555303     
  0.10110000000000001          1.6025721426718744     
  0.10140000000000000          1.5411067924514887     
  0.10170000000000000          1.5259748088531107     
  0.10200000000000001          1.5685218318513301     
  0.10230000000000002          1.6735921165805450     
  0.10260000000000000          1.8390689445613453     
  0.10290000000000001          2.0566263918816272     
  0.10320000000000000          2.3107031209235798     
  0.10350000000000001          2.5812926959476661     
  0.10380000000000000          2.8442321586786323     
  0.10410000000000001          3.0750971630614603     
  0.10440000000000001          3.2491044034191128     
  0.10470000000000000          3.3455520315727578     
  0.10500000000000000          3.3480049657738911     
  0.10530000000000000          3.2468231318736942     
  0.10560000000000000          3.0389505365818072     
  0.10590000000000001          2.7288961672100154     
  0.10620000000000000          2.3276645974228973     
  0.10650000000000001          1.8526691807036038     
  0.10679999999999999          1.3242691165157863     
  0.10710000000000000         0.76686584804511859     
  0.10740000000000001         0.20328152202794253     
  0.10770000000000000        -0.34338180704614296     
  0.10800000000000000        -0.85500689976178990     
  0.10830000000000001         -1.3171363527163682     
  0.10859999999999999         -1.7218026256046379     
  0.10890000000000000         -2.0669802474248251     
  0.10920000000000001         -2.3553636958865227     
  0.10950000000000001         -2.5942727076505210     
  0.10979999999999999         -2.7922530644140147     
  0.11009999999999999         -2.9572234588204713     
  0.11040000000000001         -3.0935549268545253     
  0.11070000000000001         -3.1982618785745554     
  0.11100000000000000         -3.2607241805068030     
  0.11130000000000000         -3.2591971409592926     
  0.11160000000000002         -3.1635414330201352     
  0.11190000000000001         -2.9358724125418951     
  0.11220000000000001         -2.5361060085029479     
  0.11250000000000000         -1.9270697338149039     
  0.11280000000000000         -1.0827301166487149     
  0.11309999999999999          5.3218883508961978E-003
  0.11340000000000001          1.3198233766282583     
  0.11369999999999998          2.8137025798447004     
  0.11400000000000000          4.4067759984107546     
  0.11430000000000000          5.9892554048733961     
  0.11460000000000002          7.4249057177370119     
  0.11489999999999999          8.5640369424953988     
  0.11520000000000001          9.2559200350757926     
  0.11550000000000001          9.3640614728229643     
  0.11580000000000000          8.7860463692066659     
  0.11609999999999999          7.4648470163236125     
  0.11640000000000002          5.4046908997112428     
  0.11670000000000001          2.6758634687610954     
  0.11700000000000001        -0.58414985493110194     
  0.11730000000000000         -4.1762393342222044     
  0.11760000000000000         -7.8546524024325262     
  0.11789999999999999         -11.344315886013487     
  0.11820000000000001         -14.365675330428868     
  0.11850000000000001         -16.657699453485066     
  0.11880000000000000         -18.003729673724347     
  0.11910000000000000         -18.250863950556955     
  0.11940000000000002         -17.324762845996048     
  0.11970000000000001         -15.239676562884220     
  0.12000000000000001         -12.094577655975728     
  0.12030000000000000         -8.0695506558226651     
  0.12060000000000000         -3.4066858034578216     
  0.12089999999999999          1.6061407578003486     
  0.12119999999999999          6.6604598696691717     
  0.12150000000000001          11.451076954623247     
  0.12180000000000001          15.696374185098705     
  0.12210000000000000          19.159009732663229     
  0.12239999999999999          21.658047467568423     
  0.12270000000000002          23.078956262797110     
  0.12300000000000001          23.373581099919054     
  0.12330000000000001          22.559876766945024     
  0.12360000000000000          20.713081552689040     
  0.12390000000000000          17.956845775048670     
  0.12419999999999999          14.451484204276213     
  0.12450000000000001          10.380280041387566     
  0.12480000000000001          5.9409952577461329     
  0.12509999999999999          1.3312750962657156     
  0.12540000000000001         -3.2561272963430437     
  0.12570000000000003         -7.6446892582696293     
  0.12600000000000000         -11.675224096094182     
  0.12630000000000002         -15.214203294301420     
  0.12659999999999999         -18.153880079696833     
  0.12690000000000001         -20.414897482627033     
  0.12719999999999998         -21.948679055061795     
  0.12750000000000000         -22.733781034956912     
  0.12780000000000002         -22.779680126165193     
  0.12809999999999999         -22.120564209358665     
  0.12840000000000001         -20.814912443155261     
  0.12869999999999998         -18.941777887947769     
  0.12900000000000000         -16.593880352713807     
  0.12930000000000003         -13.876332847435503     
  0.12959999999999999         -10.896981378453923     
  0.12990000000000002         -7.7646436201706166     
  0.13019999999999998         -4.5825073809575452     
  0.13050000000000000         -1.4434627998183851     
  0.13080000000000003          1.5690196564089884     
  0.13109999999999999          4.3906291260553996     
  0.13140000000000002          6.9669727176863159     
  0.13169999999999998          9.2637529559543470     
  0.13200000000000001          11.257677485137727     
  0.13229999999999997          12.938029293514088     
  0.13260000000000000          14.305710889571724     
  0.13290000000000002          15.364545549784173     
  0.13319999999999999          16.127681144576734     
  0.13350000000000001          16.605680412499748     
  0.13380000000000003          16.810822083167050     
  0.13410000000000000          16.753504863426464     
  0.13440000000000002          16.439312592001695     
  0.13469999999999999          15.874141341038275     
  0.13500000000000001          15.057663300677238     
  0.13529999999999998          13.994102807889384     
  0.13560000000000000          12.683815646824280     
  0.13590000000000002          11.135874477485899     
  0.13619999999999999          9.3617631813467685     
  0.13650000000000001          7.3835985055254092     
  0.13680000000000003          5.2341070205969187     
  0.13710000000000000          2.9543254379450765     
  0.13740000000000002         0.59907082366641884     
  0.13769999999999999         -1.7701387896657241     
  0.13800000000000001         -4.0858358289603505     
  0.13829999999999998         -6.2741529691706868     
  0.13860000000000000         -8.2676776468284352     
  0.13890000000000002         -9.9990187878491099     
  0.13919999999999999         -11.416585779738151     
  0.13950000000000001         -12.477768772933466     
  0.13979999999999998         -13.159707081609620     
  0.14010000000000000         -13.456732223044641     
  0.14040000000000002         -13.381892397594493     
  0.14069999999999999         -12.965937256713008     
  0.14100000000000001         -12.254582086689302     
  0.14130000000000004         -11.305691077134192     
  0.14160000000000000         -10.184504815337247     
  0.14189999999999997         -8.9587203820988783     
  0.14219999999999999         -7.6964675180153588     
  0.14250000000000002         -6.4559731969425247     
  0.14279999999999998         -5.2915750127927117     
  0.14310000000000000         -4.2378710692318622     
  0.14339999999999997         -3.3227582348819347     
  0.14369999999999999         -2.5529609985573876     
  0.14400000000000002         -1.9242882663795906     
  0.14429999999999998         -1.4182278344635646     
  0.14460000000000001         -1.0057587719551764     
  0.14490000000000003        -0.65094248798584786     
  0.14520000000000000        -0.31337134073404860     
  0.14550000000000002          4.5768733509801318E-002
  0.14579999999999999         0.46290656256580820     
  0.14610000000000001         0.96560940792759276     
  0.14640000000000003          1.5713830565426117     
  0.14670000000000000          2.2859236013684567     
  0.14699999999999996          3.1005634651901870     
  0.14729999999999999          3.9940230197296600     
  0.14760000000000001          4.9328889960168034     
  0.14789999999999998          5.8755237115446501     
  0.14820000000000000          6.7708373300600071     