  -1.4999999999999999E-002     0.0000000000000000     
  -1.4700000000000000E-002     0.0000000000000000     
  -1.4400000000000000E-002     0.0000000000000000     
  -1.4100000000000000E-002     0.0000000000000000     
  -1.3800000000000000E-002     0.0000000000000000     
  -1.3500000000000000E-002     0.0000000000000000     
  -1.3200000000000000E-002     0.0000000000000000     
  -1.2899999999999998E-002     0.0000000000000000     
  -1.2600000000000000E-002     0.0000000000000000     
  -1.2299999999999998E-002     0.0000000000000000     
  -1.2000000000000000E-002     0.0000000000000000     
  -1.1699999999999999E-002     0.0000000000000000     
  -1.1399999999999999E-002     0.0000000000000000     
  -1.1099999999999999E-002     0.0000000000000000     
  -1.0799999999999999E-002     0.0000000000000000     
  -1.0499999999999999E-002     0.0000000000000000     
  -1.0199999999999999E-002     0.0000000000000000     
  -9.8999999999999991E-003     0.0000000000000000     
  -9.5999999999999992E-003     0.0000000000000000     
  -9.2999999999999992E-003     0.0000000000000000     
  -8.9999999999999993E-003     0.0000000000000000     
  -8.6999999999999994E-003     0.0000000000000000     
  -8.3999999999999995E-003     0.0000000000000000     
  -8.0999999999999996E-003     0.0000000000000000     
  -7.7999999999999988E-003     0.0000000000000000     
  -7.4999999999999997E-003     0.0000000000000000     
  -7.1999999999999998E-003     0.0000000000000000     
  -6.8999999999999981E-003     0.0000000000000000     
  -6.5999999999999982E-003     0.0000000000000000     
  -6.3000000000000000E-003     0.0000000000000000     
  -6.0000000000000001E-003     0.0000000000000000     
  -5.6999999999999985E-003     0.0000000000000000     
  -5.3999999999999986E-003     0.0000000000000000     
  -5.1000000000000004E-003     0.0000000000000000     
  -4.7999999999999987E-003     0.0000000000000000     
  -4.5000000000000005E-003     0.0000000000000000     
  -4.1999999999999989E-003     0.0000000000000000     
  -3.8999999999999990E-003     0.0000000000000000     
  -3.5999999999999990E-003     0.0000000000000000     
  -3.2999999999999991E-003     0.0000000000000000     
  -2.9999999999999992E-003     0.0000000000000000     
  -2.6999999999999993E-003     0.0000000000000000     
  -2.3999999999999994E-003     0.0000000000000000     
  -2.0999999999999977E-003     0.0000000000000000     
  -1.7999999999999995E-003     0.0000000000000000     
  -1.4999999999999979E-003     0.0000000000000000     
  -1.1999999999999997E-003     0.0000000000000000     
  -8.9999999999999976E-004     0.0000000000000000     
  -5.9999999999999810E-004     0.0000000000000000     
  -2.9999999999999992E-004     0.0000000000000000     
   0.0000000000000000          0.0000000000000000     
   3.0000000000000165E-004     0.0000000000000000     
   5.9999999999999984E-004     0.0000000000000000     
   9.0000000000000149E-004     0.0000000000000000     
   1.2000000000000031E-003     0.0000000000000000     
   1.5000000000000013E-003     0.0000000000000000     
   1.8000000000000030E-003     0.0000000000000000     
   2.1000000000000012E-003     0.0000000000000000     
   2.3999999999999994E-003     0.0000000000000000     
   2.7000000000000010E-003     0.0000000000000000     
   2.9999999999999992E-003     0.0000000000000000     
   3.3000000000000008E-003     0.0000000000000000     
   3.6000000000000025E-003     0.0000000000000000     
   3.9000000000000007E-003     0.0000000000000000     
   4.2000000000000023E-003     0.0000000000000000     
   4.5000000000000005E-003     0.0000000000000000     
   4.7999999999999987E-003     0.0000000000000000     
   5.1000000000000004E-003     0.0000000000000000     
   5.4000000000000020E-003     0.0000000000000000     
   5.7000000000000037E-003     0.0000000000000000     
   5.9999999999999984E-003     0.0000000000000000     
   6.3000000000000000E-003     0.0000000000000000     
   6.6000000000000017E-003     0.0000000000000000     
   6.9000000000000034E-003     0.0000000000000000     
   7.2000000000000015E-003     0.0000000000000000     
   7.5000000000000032E-003     0.0000000000000000     
   7.8000000000000014E-003     0.0000000000000000     
   8.0999999999999996E-003     0.0000000000000000     
   8.4000000000000012E-003     0.0000000000000000     
   8.7000000000000029E-003     0.0000000000000000     
   9.0000000000000011E-003     0.0000000000000000     
   9.2999999999999992E-003     0.0000000000000000     
   9.6000000000000009E-003     0.0000000000000000     
   9.8999999999999991E-003     0.0000000000000000     
   1.0200000000000001E-002     0.0000000000000000     
   1.0500000000000002E-002     0.0000000000000000     
   1.0800000000000004E-002     0.0000000000000000     
   1.1099999999999999E-002     0.0000000000000000     
   1.1400000000000000E-002     0.0000000000000000     
   1.1700000000000002E-002     0.0000000000000000     
   1.2000000000000004E-002     0.0000000000000000     
   1.2300000000000002E-002     0.0000000000000000     
   1.2600000000000000E-002     0.0000000000000000     
   1.2900000000000002E-002     0.0000000000000000     
   1.3200000000000000E-002     0.0000000000000000     
   1.3500000000000002E-002     0.0000000000000000     
   1.3800000000000003E-002     0.0000000000000000     
   1.4100000000000001E-002     0.0000000000000000     
   1.4400000000000000E-002     0.0000000000000000     
   1.4700000000000001E-002     0.0000000000000000     
   1.4999999999999999E-002     0.0000000000000000     
   1.5300000000000001E-002     0.0000000000000000     
   1.5600000000000003E-002     0.0000000000000000     
   1.5899999999999997E-002     0.0000000000000000     
   1.6199999999999999E-002     0.0000000000000000     
   1.6500000000000001E-002     0.0000000000000000     
   1.6800000000000002E-002     0.0000000000000000     
   1.7100000000000004E-002     0.0000000000000000     
   1.7400000000000006E-002     0.0000000000000000     
   1.7700000000000000E-002     0.0000000000000000     
   1.8000000000000002E-002     0.0000000000000000     
   1.8300000000000004E-002     0.0000000000000000     
   1.8600000000000005E-002     0.0000000000000000     
   1.8900000000000000E-002     0.0000000000000000     
   1.9200000000000002E-002     0.0000000000000000     
   1.9500000000000003E-002     0.0000000000000000     
   1.9799999999999998E-002     0.0000000000000000     
   2.0100000000000000E-002     0.0000000000000000     
   2.0400000000000001E-002     0.0000000000000000     
   2.0700000000000003E-002     0.0000000000000000     
   2.0999999999999998E-002     0.0000000000000000     
   2.1299999999999999E-002     0.0000000000000000     
   2.1600000000000001E-002     0.0000000000000000     
   2.1900000000000003E-002     0.0000000000000000     
   2.2200000000000004E-002     0.0000000000000000     
   2.2500000000000006E-002     0.0000000000000000     
   2.2800000000000001E-002     8.5362744853441485E-044
   2.3100000000000002E-002    -1.3634019025300017E-042
   2.3400000000000004E-002     8.0856513447131878E-042
   2.3699999999999999E-002    -3.0417208259611864E-036
   2.4000000000000000E-002     4.3403194031902049E-035
   2.4300000000000002E-002    -1.4266479716136418E-034
   2.4599999999999997E-002    -3.7006342317618398E-034
   2.4900000000000005E-002     4.7126986221619766E-033
   2.5200000000000000E-002    -1.5898446978794305E-032
   2.5499999999999995E-002     3.8112653756456323E-032
   2.5800000000000003E-002    -8.3121952548345277E-032
   2.6099999999999998E-002     1.5341978041894416E-031
   2.6400000000000007E-002    -1.8593573981315993E-031
   2.6700000000000002E-002    -1.6627858829165382E-031
   2.6999999999999996E-002     2.1856681011716847E-030
   2.7300000000000005E-002    -9.7275643917143807E-030
   2.7600000000000000E-002     3.2610443080387451E-029
   2.7900000000000008E-002    -9.1530711189381481E-029
   2.8200000000000003E-002     2.1877663567108710E-028
   2.8499999999999998E-002    -4.3111435641669497E-028
   2.8800000000000006E-002     6.0879406065152118E-028
   2.9100000000000001E-002    -1.4483391587979448E-028
   2.9400000000000003E-002    -2.8073617352838373E-027
   2.9700000000000004E-002     1.2405417890881842E-026
   3.0000000000000006E-002    -3.5237558605978252E-026
   3.0300000000000001E-002     7.5108428643450450E-026
   3.0600000000000002E-002    -1.1294977808149267E-025
   3.0900000000000004E-002     5.9949420722546825E-026
   3.1199999999999999E-002     3.0993983124105169E-025
   3.1500000000000007E-002    -1.3680907284564114E-024
   3.1800000000000002E-002     3.3417830323247891E-024
   3.2099999999999997E-002    -5.3315851185519064E-024
   3.2400000000000005E-002     3.4960426464560761E-024
   3.2700000000000000E-002     1.0182186688841318E-023
   3.3000000000000002E-002    -4.3569707488306698E-023
   3.3300000000000003E-002     8.6068288853362687E-023
   3.3599999999999998E-002    -7.4530798908957241E-023
   3.3900000000000000E-002    -1.2156764304104704E-022
   3.4200000000000001E-002     5.8047382406025895E-022
   3.4500000000000003E-002    -8.9064364414655472E-022
   3.4799999999999998E-002    -6.0904886518285404E-022
   3.5099999999999999E-002     7.0083010507967997E-021
   3.5400000000000001E-002    -1.9441645657563482E-020
   3.5699999999999996E-002     2.4756451641693740E-020
   3.6000000000000004E-002     2.8752800196088003E-020
   3.6299999999999999E-002    -2.4951979000696197E-019
   3.6600000000000008E-002     7.3539058456170454E-019
   3.6900000000000002E-002    -1.2397081298826112E-018
   3.7199999999999997E-002     3.7328642125144708E-019
   3.7500000000000006E-002     5.3573208727808199E-018
   3.7800000000000000E-002    -2.0648233957230331E-017
   3.8100000000000009E-002     4.3631876438879827E-017
   3.8400000000000004E-002    -4.5255443006792727E-017
   3.8699999999999998E-002    -6.0574008483118775E-017
   3.9000000000000007E-002     4.2229410951204191E-016
   3.9300000000000002E-002    -1.1446640050302731E-015
   3.9600000000000003E-002     1.9021744685688918E-015
   3.9900000000000005E-002    -9.6014579725400398E-016
   4.0200000000000000E-002    -6.6564548473581066E-015
   4.0500000000000001E-002     2.9952635957862559E-014
   4.0800000000000003E-002    -7.0696392587632381E-014
   4.1100000000000005E-002     7.3259258645042111E-014
   4.1399999999999999E-002     1.7384800507935412E-013
   4.1700000000000008E-002    -1.0224461160485367E-012
   4.2000000000000003E-002     2.2585526334879610E-012
   4.2299999999999997E-002    -1.0000900656920876E-012
   4.2600000000000006E-002    -1.0200645403103372E-011
   4.2900000000000001E-002     3.5488224304801852E-011
   4.3200000000000002E-002    -3.9671126696391365E-011
   4.3500000000000004E-002    -1.0305925716346100E-010
   4.3799999999999999E-002     4.9846495810217793E-010
   4.4100000000000000E-002    -5.6899909100395291E-010
   4.4400000000000002E-002    -1.7248676910192874E-009
   4.4700000000000004E-002     6.7699120263857451E-009
   4.4999999999999998E-002    -1.6957546056563174E-009
   4.5300000000000000E-002    -3.7823448295458126E-008
   4.5600000000000002E-002     4.9503358339939149E-008
   4.5899999999999996E-002     1.4581950084872929E-007
   4.6200000000000005E-002    -3.9580933448089429E-007
   4.6500000000000000E-002    -3.2568758455431591E-007
   4.6799999999999994E-002     5.7764017721173407E-006
   4.7100000000000003E-002     2.2327133054442442E-005
   4.7399999999999998E-002     4.5216498067848787E-005
   4.7700000000000006E-002     6.5990994850991961E-005
   4.8000000000000001E-002     8.4128415096082213E-005
   4.8300000000000010E-002     1.1155793906979496E-004
   4.8600000000000004E-002     1.6673593608901202E-004
   4.8899999999999999E-002     2.6400478187841469E-004
   4.9200000000000008E-002     4.0789671401619853E-004
   4.9500000000000002E-002     6.0463302499828538E-004
   4.9800000000000011E-002     8.7676647777030960E-004
   5.0100000000000006E-002     1.2564891116213829E-003
   5.0400000000000000E-002     1.7749252033433676E-003
   5.0700000000000009E-002     2.4685534367530440E-003
   5.1000000000000004E-002     3.3806221056925292E-003
   5.1299999999999998E-002     4.5481222957311348E-003
   5.1600000000000007E-002     5.9970693391958136E-003
   5.1900000000000002E-002     7.7437802413334875E-003
   5.2200000000000010E-002     9.7836733608415178E-003
   5.2500000000000005E-002     1.2072301792156424E-002
   5.2800000000000000E-002     1.4508621223807812E-002
   5.3099999999999994E-002     1.6920453390321711E-002
   5.3400000000000003E-002     1.9051138821847564E-002
   5.3699999999999998E-002     2.0538092210337790E-002
   5.4000000000000006E-002     2.0895472357962189E-002
   5.4300000000000001E-002     1.9525813463128202E-002
   5.4599999999999996E-002     1.5751963901726236E-002
   5.4900000000000004E-002     8.8443246194030659E-003
   5.5199999999999999E-002    -1.9428856369229474E-003
   5.5499999999999994E-002    -1.7283531390466230E-002
   5.5800000000000002E-002    -3.7654102894552496E-002
   5.6099999999999997E-002    -6.3212865853605554E-002
   5.6400000000000006E-002    -9.3683379504570910E-002
   5.6700000000000000E-002   -0.12821446714617121     
   5.6999999999999995E-002   -0.16526137751190381     
   5.7300000000000004E-002   -0.20251277652202648     
   5.7599999999999998E-002   -0.23691653374653643     
   5.7900000000000007E-002   -0.26479554914138431     
   5.8200000000000002E-002   -0.28195799183643933     
   5.8499999999999996E-002   -0.28393117386386629     
   5.8800000000000005E-002   -0.26642999797038802     
   5.9100000000000000E-002   -0.22582348320573950     
   5.9400000000000008E-002   -0.15955673600693607     
   5.9700000000000003E-002    -6.6640259623576656E-002
   6.0000000000000012E-002     5.1909310466144824E-002
   6.0300000000000006E-002    0.19275171124901946     
   6.0600000000000001E-002    0.35009051379995260     
   6.0900000000000010E-002    0.51582373674127213     
   6.1200000000000004E-002    0.67985322047886765     
   6.1500000000000013E-002    0.83065309531352638     
   6.1800000000000008E-002    0.95610543857466523     
   6.2100000000000002E-002     1.0444579425142111     
   6.2399999999999997E-002     1.0853594853960948     
   6.2700000000000006E-002     1.0709067891050388     
   6.3000000000000000E-002    0.99651971340073020     
   6.3300000000000009E-002    0.86161061606526823     
   6.3600000000000004E-002    0.67004360670503837     
   6.3899999999999998E-002    0.43001244670038641     
   6.4199999999999993E-002    0.15371990589191697     
   6.4500000000000002E-002   -0.14346905539496513     
   6.4800000000000010E-002   -0.44388423740134897     
   6.5100000000000005E-002   -0.72907444061240256     
   6.5400000000000000E-002   -0.98107781970152297     
   6.5700000000000008E-002    -1.1838097925933393     
   6.5999999999999989E-002    -1.3243406213017821     
   6.6299999999999998E-002    -1.3938175853239376     
   6.6600000000000006E-002    -1.3881793432528089     
   6.6900000000000001E-002    -1.3084452537396607     
   6.7199999999999996E-002    -1.1605013948584459     
   6.7500000000000004E-002   -0.95464846281473437     
   6.7800000000000013E-002   -0.70485999212365846     
   6.8099999999999994E-002   -0.42762987001955560     
   6.8400000000000002E-002   -0.14086488203464992     
   6.8700000000000011E-002    0.13733809217227477     
   6.8999999999999992E-002    0.38998858414544413     
   6.9300000000000000E-002    0.60205938336219234     
   6.9600000000000009E-002    0.76144173135420845     
   6.9900000000000004E-002    0.85958775553198730     
   7.0199999999999999E-002    0.89172377943717496     
   7.0500000000000007E-002    0.85720052958490689     
   7.0800000000000016E-002    0.75916358164008135     
   7.1099999999999997E-002    0.60433514766772189     
   7.1400000000000005E-002    0.40260721476015487     
   7.1700000000000000E-002    0.16624947400003687     
   7.1999999999999995E-002    -9.0567755396818772E-002
   7.2300000000000003E-002   -0.35281548959518200     
   7.2600000000000012E-002   -0.60524346252253547     
   7.2900000000000006E-002   -0.83314540487834698     
   7.3200000000000001E-002    -1.0234115428088513     
   7.3499999999999996E-002    -1.1649959432747234     
   7.3800000000000004E-002    -1.2497699629757448     
   7.4099999999999999E-002    -1.2729620115292377     
   7.4400000000000008E-002    -1.2333637836159010     
   7.4700000000000003E-002    -1.1336508125382549     
   7.5000000000000011E-002   -0.97990587177119193     
   7.5299999999999992E-002   -0.78145166448901382     
   7.5600000000000001E-002   -0.55007804933505200     
   7.5900000000000009E-002   -0.29890377071673535     
   7.6200000000000004E-002    -4.1691750093108583E-002
   7.6499999999999999E-002    0.20845270912067607     
   7.6800000000000007E-002    0.44034595715381503     
   7.7099999999999988E-002    0.64505972474105167     
   7.7399999999999997E-002    0.81711706004291695     
   7.7700000000000005E-002    0.95440283254555558     
   7.8000000000000014E-002     1.0578975984497472     
   7.8299999999999995E-002     1.1317171180645280     
   7.8600000000000003E-002     1.1815963121815729     
   7.8900000000000012E-002     1.2140564060517294     
   7.9199999999999993E-002     1.2355500793696566     
   7.9500000000000001E-002     1.2508050537148558     
   7.9800000000000010E-002     1.2623614406482675     
   8.0100000000000018E-002     1.2698829507267728     
   8.0399999999999999E-002     1.2699222897953648     
   8.0700000000000008E-002     1.2566547724235551     
   8.1000000000000003E-002     1.2223645772021483     
   8.1299999999999997E-002     1.1586994242523387     
   8.1600000000000006E-002     1.0580047655012712     
   8.1900000000000014E-002    0.91460021862871588     
   8.2199999999999995E-002    0.72618879927488966     
   8.2500000000000004E-002    0.49443985467930346     
   8.2799999999999999E-002    0.22546455994429987     
   8.3100000000000007E-002    -7.0089705977231034E-002
   8.3400000000000002E-002   -0.37826306540065119     
   8.3700000000000011E-002   -0.68232353294059733     
   8.4000000000000005E-002   -0.96455165314239621     
   8.4300000000000000E-002    -1.2081660356884314     
   8.4599999999999995E-002    -1.3983739994548721     
   8.4900000000000003E-002    -1.5241192997301005     
   8.5199999999999998E-002    -1.5791331965657376     
   8.5500000000000007E-002    -1.5623486476014146     
   8.5800000000000001E-002    -1.4779991324047856     
   8.6100000000000010E-002    -1.3347787038892682     
   8.6399999999999991E-002    -1.1450548493423167     
   8.6699999999999999E-002   -0.92364653556816212     
   8.7000000000000008E-002   -0.68610425719409551     
   8.7300000000000003E-002   -0.44722746052191054     
   8.7599999999999997E-002   -0.21997760805398447     
   8.7900000000000006E-002    -1.4300535090246020E-002
   8.8200000000000014E-002    0.16333251261348714     
   8.8499999999999995E-002    0.30998949213970795     
   8.8800000000000004E-002    0.42626501474687206     
   8.9100000000000013E-002    0.51528896510581812     
   8.9399999999999993E-002    0.58182360544072798     
   8.9700000000000002E-002    0.63155533818512632     
   9.0000000000000011E-002    0.66983886598709674     
   9.0299999999999991E-002    0.70084073245022971     
   9.0600000000000000E-002    0.72698625060783328     
   9.0900000000000009E-002    0.74841239200631893     
   9.1200000000000017E-002    0.76315005754968457     
   9.1499999999999998E-002    0.76744784999918669     
   9.1800000000000007E-002    0.75608064735673974     
   9.2100000000000001E-002    0.72337426604185684     
   9.2399999999999996E-002    0.66378970593168973     
   9.2700000000000005E-002    0.57280792162264516     
   9.3000000000000013E-002    0.44793189556913848     
   9.3300000000000008E-002    0.28864384233351364     
   9.3600000000000003E-002     9.7166434033236312E-002
   9.3899999999999997E-002   -0.12153158178803793     
   9.4200000000000006E-002   -0.36045808820931818     
   9.4500000000000001E-002   -0.61036564807969418     
   9.4800000000000009E-002   -0.86093315055675323     
   9.5100000000000004E-002    -1.1014116128884170     
   9.5399999999999999E-002    -1.3210020442819368     
   9.5699999999999993E-002    -1.5102290342671523     
   9.6000000000000002E-002    -1.6609800329826196     
   9.6300000000000011E-002    -1.7670306464944723     
   9.6600000000000005E-002    -1.8245771444250625     
   9.6900000000000000E-002    -1.8316647330539175     
   9.7200000000000009E-002    -1.7887839584380119     
   9.7499999999999989E-002    -1.6980168108053466     
   9.7799999999999998E-002    -1.5626523939444166     
   9.8100000000000007E-002    -1.3874944844333241     
   9.8400000000000015E-002    -1.1776213982790609     
   9.8699999999999996E-002   -0.93855097604902571     
   9.9000000000000005E-002   -0.67612626102532103     
   9.9300000000000013E-002   -0.39583895734786062     
   9.9599999999999994E-002   -0.10352522402589405     
   9.9900000000000003E-002    0.19514969610317884     
  0.10020000000000001         0.49476911135314017     
  0.10049999999999999         0.78944077488061537     
  0.10080000000000000          1.0735309446565460     
  0.10110000000000001          1.3411671324667296     
  0.10140000000000000          1.5864514587174943     
  0.10170000000000000          1.8041048587531885     
  0.10200000000000001          1.9886372680452857     
  0.10230000000000002          2.1353312171452088     
  0.10260000000000000          2.2402756874109713     
  0.10290000000000001          2.3002901751936697     
  0.10320000000000000          2.3137567717591332     
  0.10350000000000001          2.2798848811057097     
  0.10380000000000000          2.1993106042269317     
  0.10410000000000001          2.0747521511604989     
  0.10440000000000001          1.9095750389793011     
  0.10470000000000000          1.7089835876813837     
  0.10500000000000000          1.4795718592890101     
  0.10530000000000000          1.2286687221793793     
  0.10560000000000000         0.96477278546754008     
  0.10590000000000001         0.69662882579730168     
  0.10620000000000000         0.43331761112688105     
  0.10650000000000001         0.18360957760466617     
  0.10679999999999999         -4.4871289014796013E-002
  0.10710000000000000        -0.24508681255114129     
  0.10740000000000001        -0.41199140009555624     
  0.10770000000000000        -0.54256679166099386     
  0.10800000000000000        -0.63558544447538334     
  0.10830000000000001        -0.69222469935117636     
  0.10859999999999999        -0.71577652110710865     
  0.10890000000000000        -0.71151592084283444     
  0.10920000000000001        -0.68600280733559771     
  0.10950000000000001        -0.64730151038167583     
  0.10979999999999999        -0.60363461015873043     
  0.11009999999999999        -0.56310351070298292     
  0.11040000000000001        -0.53375621000396944     
  0.11070000000000001        -0.52203006957278364     
  0.11100000000000000        -0.53315807921685632     
  0.11130000000000000        -0.57081271946537016     
  0.11160000000000002        -0.63636036737576673     
  0.11190000000000001        -0.72990038354206666     
  0.11220000000000001        -0.84915944688884637     
  0.11250000000000000        -0.99017086818209665     
  0.11280000000000000         -1.1476725701415287     
  0.11309999999999999         -1.3141973426486879     
  0.11340000000000001         -1.4815307114663183     
  0.11369999999999998         -1.6400127901046171     
  0.11400000000000000         -1.7788993644476450     
  0.11430000000000000         -1.8875917743779538     
  0.11460000000000002         -1.9548926914355793     
  0.11489999999999999         -1.9707255924071094     
  0.11520000000000001         -1.9267538136988873     
  0.11550000000000001         -1.8165766511699042     
  0.11580000000000000         -1.6377573472274933     
  0.11609999999999999         -1.3914671333830910     
  0.11640000000000002         -1.0834335393941861     
  0.11670000000000001        -0.72427966259460097     
  0.11700000000000001        -0.32861460214495208     
  0.11730000000000000          8.5188368296706785E-002
  0.11760000000000000         0.49639387282143455     
  0.11789999999999999         0.88367410929588208     
  0.11820000000000001          1.2258146148460942     
  0.11850000000000001          1.5049704733387512     
  0.11880000000000000          1.7068324567294675     
  0.11910000000000000          1.8219235458568901     
  0.11940000000000002          1.8474815417872776     
  0.11970000000000001          1.7860804116920019     
  0.12000000000000001          1.6459795716068124     
  0.12030000000000000          1.4405484625472391     
  0.12060000000000000          1.1859678390058095     
  0.12089999999999999         0.90111544609710470     
  0.12119999999999999         0.60518797329738294     
  0.12150000000000001         0.31614409224672912     
  0.12180000000000001          5.0859636420745091E-002
  0.12210000000000000        -0.17694131999696308     
  0.12239999999999999        -0.35674274403691558     
  0.12270000000000002        -0.48065573756190322     
  0.12300000000000001        -0.54447556508352779     
  0.12330000000000001        -0.54635239653871659     
  0.12360000000000000        -0.48690412363267782     
  0.12390000000000000        -0.36945519529799775     
  0.12419999999999999        -0.19870882067688075     
  0.12450000000000001          1.8535641298290835E-002
  0.12480000000000001         0.27333498673812656     
  0.12509999999999999         0.55514772023857373     
  0.12540000000000001         0.85118790418967705     
  0.12570000000000003          1.1471240782153578     
  0.12600000000000000          1.4270996182045297     
  0.12630000000000002          1.6740973383909465     
  0.12659999999999999          1.8713630877052205     
  0.12690000000000001          2.0027251720416928     
  0.12719999999999998          2.0541472933209679     
  0.12750000000000000          2.0150578519155364     
  0.12780000000000002          1.8787706372223092     
  0.12809999999999999          1.6443736978693670     
  0.12840000000000001          1.3167527073561502     
  0.12869999999999998         0.90667596034691289     
  0.12900000000000000         0.43102709848626936     
  0.12930000000000003         -8.8468521090128538E-002
  0.12959999999999999        -0.62627447973665906     
  0.12990000000000002         -1.1544543778860010     
  0.13019999999999998         -1.6451763324379776     
  0.13050000000000000         -2.0721779401102256     
  0.13080000000000003         -2.4127433934226099     
  0.13109999999999999         -2.6498366112790568     
  0.13140000000000002         -2.7728594107248181     
  0.13169999999999998         -2.7788179695605142     
  0.13200000000000001         -2.6726756856110425     
  0.13229999999999997         -2.4664271596016358     
  0.13260000000000000         -2.1785281356676225     
  0.13290000000000002         -1.8323770136158890     
  0.13319999999999999         -1.4541547768918868     
  0.13350000000000001         -1.0712235342677956     
  0.13380000000000003        -0.70958879289592580     
  0.13410000000000000        -0.39210738511053184     
  0.13440000000000002        -0.13707297505385627     
  0.13469999999999999          4.3523934365920329E-002
  0.13500000000000001         0.14437972152977388     
  0.13529999999999998         0.16711207166859507     
  0.13560000000000000         0.12041206454761506     
  0.13590000000000002          1.8522576827166268E-002
  0.13619999999999999        -0.11928555735197377     
  0.13650000000000001        -0.26993569553970487     
  0.13680000000000003        -0.40934300437886589     
  0.13710000000000000        -0.51277196571164196     
  0.13740000000000002        -0.55725634318232775     
  0.13769999999999999        -0.52327382680639523     
  0.13800000000000001        -0.39560329753890594     
  0.13829999999999998        -0.16545146052026841     
  0.13860000000000000         0.16917624953527868     
  0.13890000000000002         0.60286339434235825     
  0.13919999999999999          1.1219026193740451     
  0.13950000000000001          1.7053596253181773     
  0.13979999999999998          2.3249581469746672     
  0.14010000000000000          2.9464371955826874     
  0.14040000000000002          3.5317395618967256     
  0.14069999999999999          4.0400668195514546     
  0.14100000000000001          4.4314237740578930     
  0.14130000000000004          4.6693097319470569     
  0.14160000000000000          4.7223578676636562     
  0.14189999999999997          4.5688210679506867     
  0.14219999999999999          4.1978722680773126     
  0.14250000000000002          3.6112085315719771     
  0.14279999999999998          2.8249226355764803     
  0.14310000000000000          1.8683205158463436     
  0.14339999999999997         0.78320434126190752     
  0.14369999999999999        -0.37788191940328181     
  0.14400000000000002         -1.5560034862667171     
  0.14429999999999998         -2.6884844946517692     
  0.14460000000000001         -3.7142053566938138     
  0.14490000000000003         -4.5776540000065671     
  0.14520000000000000         -5.2323771863169890     
  0.14550000000000002         -5.6460496461344594     
  0.14579999999999999         -5.8002921679749511     
  0.14610000000000001         -5.6941153142461509     
  0.14640000000000003         -5.3425156135658813     
  0.14670000000000000         -4.7744408972620507     
  0.14699999999999996         -4.0322476566492460     
  0.14729999999999999         -3.1654878573385221     
  0.14760000000000001         -2.2293127246069608     
  0.14789999999999998         -1.2791722224087629     
  0.14820000000000000        -0.36632461866916527     