  -1.4999999999999999E-002     0.0000000000000000     
  -1.4700000000000000E-002     0.0000000000000000     
  -1.4400000000000000E-002     0.0000000000000000     
  -1.4100000000000000E-002     0.0000000000000000     
  -1.3800000000000000E-002     0.0000000000000000     
  -1.3500000000000000E-002     0.0000000000000000     
  -1.3200000000000000E-002     0.0000000000000000     
  -1.2899999999999998E-002     0.0000000000000000     
  -1.2600000000000000E-002     0.0000000000000000     
  -1.2299999999999998E-002     0.0000000000000000     
  -1.2000000000000000E-002     0.0000000000000000     
  -1.1699999999999999E-002     0.0000000000000000     
  -1.1399999999999999E-002     0.0000000000000000     
  -1.1099999999999999E-002     0.0000000000000000     
  -1.0799999999999999E-002     1.3232766153048719E-037
  -1.0499999999999999E-002     3.1562425388608702E-035
  -1.0199999999999999E-002     4.5838169677314201E-034
  -9.8999999999999991E-003    -3.0360006255146425E-033
  -9.5999999999999992E-003     8.4008834634735104E-033
  -9.2999999999999992E-003     2.2401832848355741E-032
  -8.9999999999999993E-003    -1.4265891335250597E-031
  -8.6999999999999994E-003    -1.3879545651052790E-031
  -8.3999999999999995E-003     1.5629876784649361E-030
  -8.0999999999999996E-003     7.6205885168508046E-031
  -7.7999999999999988E-003    -1.3260519465315175E-029
  -7.4999999999999997E-003    -3.8801980646468951E-030
  -7.1999999999999998E-003     8.6418550927010296E-029
  -6.8999999999999981E-003     2.5709422377345767E-029
  -6.5999999999999982E-003    -3.9943522325392866E-028
  -6.3000000000000000E-003    -3.3181711796626726E-028
  -6.0000000000000001E-003     1.3270014655531844E-027
  -5.6999999999999985E-003     2.7237146924494026E-027
  -5.3999999999999986E-003    -8.3985166374971374E-028
  -5.1000000000000004E-003    -1.9158480723054392E-026
  -4.7999999999999987E-003    -1.6619527630750078E-026
  -4.5000000000000005E-003     9.3624484739133384E-026
  -4.1999999999999989E-003     1.2193797714296332E-025
  -3.8999999999999990E-003    -3.2007482085761082E-025
  -3.5999999999999990E-003    -4.5922382185968193E-025
  -3.2999999999999991E-003     4.7986248546651187E-025
  -2.9999999999999992E-003     9.3150250390227635E-025
  -2.6999999999999993E-003     2.4731834393231366E-024
  -2.3999999999999994E-003    -1.1218641798573429E-024
  -2.0999999999999977E-003    -1.9401440730969532E-023
  -1.7999999999999995E-003    -3.7195958896912046E-025
  -1.4999999999999979E-003     7.3354551660603923E-023
  -1.1999999999999997E-003    -2.1919617369878248E-023
  -8.9999999999999976E-004    -8.5512509476448112E-023
  -5.9999999999999810E-004     8.6329929994643410E-023
  -2.9999999999999992E-004    -4.6343710502269147E-022
   0.0000000000000000          1.6436874427633838E-022
   3.0000000000000165E-004     2.6767569952095411E-021
   5.9999999999999984E-004    -2.4622920104196755E-021
   9.0000000000000149E-004    -5.8236768627962110E-021
   1.2000000000000031E-003     1.0936068074255206E-020
   1.5000000000000013E-003    -6.0892698534733851E-021
   1.8000000000000030E-003    -1.7324717733127863E-020
   2.1000000000000012E-003     7.6898373362715195E-020
   2.3999999999999994E-003    -4.6846382715256540E-020
   2.7000000000000010E-003    -2.2695380895984262E-019
   2.9999999999999992E-003     3.9113109295771457E-019
   3.3000000000000008E-003     8.8687427247537000E-020
   3.6000000000000025E-003    -1.0771496465748794E-018
   3.9000000000000007E-003     1.7266446607858985E-018
   4.2000000000000023E-003     2.9463310037106522E-019
   4.5000000000000005E-003    -6.1723159177706605E-018
   4.7999999999999987E-003     7.5335054768132799E-018
   5.1000000000000004E-003     6.4966491327080276E-018
   5.4000000000000020E-003    -2.6368647931909910E-017
   5.7000000000000037E-003     2.3277493045380757E-017
   5.9999999999999984E-003     2.8638531800608600E-017
   6.3000000000000000E-003    -1.0785265273818565E-016
   6.6000000000000017E-003     8.4376096477068092E-017
   6.9000000000000034E-003     1.4745486983835890E-016
   7.2000000000000015E-003    -3.8153144264045929E-016
   7.5000000000000032E-003     2.1140114111305955E-016
   7.8000000000000014E-003     5.0350860447439275E-016
   8.0999999999999996E-003    -1.2528240201196309E-015
   8.4000000000000012E-003     7.0436167374578074E-016
   8.7000000000000029E-003     1.9006542029369353E-015
   9.0000000000000011E-003    -4.2046576524217071E-015
   9.2999999999999992E-003     1.8524287702051664E-015
   9.6000000000000009E-003     6.4501677453695987E-015
   9.8999999999999991E-003    -1.4262467197753316E-014
   1.0200000000000001E-002     6.5194837033570482E-015
   1.0500000000000002E-002     2.4587401572124521E-014
   1.0800000000000004E-002    -5.0669637783872158E-014
   1.1099999999999999E-002     1.6079358245038936E-014
   1.1400000000000000E-002     9.1793502618655210E-014
   1.1700000000000002E-002    -1.6917019327165478E-013
   1.2000000000000004E-002     3.0913474551939397E-014
   1.2300000000000002E-002     3.3795195203375087E-013
   1.2600000000000000E-002    -5.1909049198862112E-013
   1.2900000000000002E-002    -3.5290922787367931E-014
   1.3200000000000000E-002     1.1132345731117750E-012
   1.3500000000000002E-002    -1.3582193589291502E-012
   1.3800000000000003E-002    -4.8903262533388964E-013
   1.4100000000000001E-002     3.2554282525235836E-012
   1.4400000000000000E-002    -3.0368833574618830E-012
   1.4700000000000001E-002    -2.3787601938591371E-012
   1.4999999999999999E-002     8.3257282406732152E-012
   1.5300000000000001E-002    -5.7263794757145998E-012
   1.5600000000000003E-002    -7.8273260877666996E-012
   1.5899999999999997E-002     1.9805318642411440E-011
   1.6199999999999999E-002    -1.1185786519581716E-011
   1.6500000000000001E-002    -2.1186514276700750E-011
   1.6800000000000002E-002     5.3206833376487052E-011
   1.7100000000000004E-002    -4.3739344986765413E-011
   1.7400000000000006E-002    -5.6548603626042395E-011
   1.7700000000000000E-002     2.5808442083785227E-010
   1.8000000000000002E-002    -3.0488698254413026E-010
   1.8300000000000004E-002    -4.7376282547829682E-010
   1.8600000000000005E-002     1.9847201745075283E-009
   1.8900000000000000E-002    -9.1589845321827618E-010
   1.9200000000000002E-002    -6.4853848751695535E-009
   1.9500000000000003E-002     1.0405266245139926E-008
   1.9799999999999998E-002     1.3581578886361099E-008
   2.0100000000000000E-002    -4.7445772490674414E-008
   2.0400000000000001E-002    -1.6488242642445400E-008
   2.0700000000000003E-002     1.6363700071785436E-007
   2.0999999999999998E-002    -1.6961916524396585E-008
   2.1299999999999999E-002    -5.9531659186478028E-007
   2.1600000000000001E-002     1.8976003876091286E-007
   2.1900000000000003E-002     4.4544146005791229E-006
   2.2200000000000004E-002     1.2095394711914353E-005
   2.2500000000000006E-002     2.0664543282903803E-005
   2.2800000000000001E-002     2.7806201029778752E-005
   2.3100000000000002E-002     3.5253788362781540E-005
   2.3400000000000004E-002     4.9541490384044636E-005
   2.3699999999999999E-002     7.5163218094684590E-005
   2.4000000000000000E-002     1.1236335832042358E-004
   2.4300000000000002E-002     1.6657778002478906E-004
   2.4599999999999997E-002     2.4833299231879336E-004
   2.4900000000000005E-002     3.6184990051028719E-004
   2.5200000000000000E-002     5.1058803210375224E-004
   2.5499999999999995E-002     7.0820148193845702E-004
   2.5800000000000003E-002     9.6731202569506534E-004
   2.6099999999999998E-002     1.2904185117653163E-003
   2.6400000000000007E-002     1.6783976122858497E-003
   2.6700000000000002E-002     2.1294028095072588E-003
   2.6999999999999996E-002     2.6310466825451568E-003
   2.7300000000000005E-002     3.1552257497041354E-003
   2.7600000000000000E-002     3.6409169671685238E-003
   2.7900000000000008E-002     3.9823320882649465E-003
   2.8200000000000003E-002     4.0358020116294637E-003
   2.8499999999999998E-002     3.6095082746585272E-003
   2.8800000000000006E-002     2.4451047777652754E-003
   2.9100000000000001E-002     2.1760584557532889E-004
   2.9400000000000003E-002    -3.4693472589194634E-003
   2.9700000000000004E-002    -9.0786775698985678E-003
   3.0000000000000006E-002    -1.7109772657201563E-002
   3.0300000000000001E-002    -2.8086458625323722E-002
   3.0600000000000002E-002    -4.2547561449804337E-002
   3.0900000000000004E-002    -6.0989451808264754E-002
   3.1199999999999999E-002    -8.3795851301685487E-002
   3.1500000000000007E-002   -0.11117426226319894     
   3.1800000000000002E-002   -0.14310119293128576     
   3.2099999999999997E-002   -0.17930253632735110     
   3.2400000000000005E-002   -0.21920999182891746     
   3.2700000000000000E-002   -0.26192400602138283     
   3.3000000000000002E-002   -0.30620381870523389     
   3.3300000000000003E-002   -0.35055655696030780     
   3.3599999999999998E-002   -0.39327219325784918     
   3.3900000000000000E-002   -0.43257236345704231     
   3.4200000000000001E-002   -0.46660613477385832     
   3.4500000000000003E-002   -0.49369477236578407     
   3.4799999999999998E-002   -0.51236574369772914     
   3.5099999999999999E-002   -0.52152435023043342     
   3.5400000000000001E-002   -0.52039465903647342     
   3.5699999999999996E-002   -0.50874248395055777     
   3.6000000000000004E-002   -0.48665273221719624     
   3.6299999999999999E-002   -0.45458683363029312     
   3.6600000000000008E-002   -0.41323363942173291     
   3.6900000000000002E-002   -0.36343539326596830     
   3.7199999999999997E-002   -0.30610526828766560     
   3.7500000000000006E-002   -0.24200755980374006     
   3.7800000000000000E-002   -0.17197238154326661     
   3.8100000000000009E-002    -9.6583620071775053E-002
   3.8400000000000004E-002    -1.6409538035038581E-002
   3.8699999999999998E-002     6.7778625948173993E-002
   3.9000000000000007E-002    0.15520422430289887     
   3.9300000000000002E-002    0.24465257473642221     
   3.9600000000000003E-002    0.33469785321446344     
   3.9900000000000005E-002    0.42345887832473472     
   4.0200000000000000E-002    0.50869730249044953     
   4.0500000000000001E-002    0.58828154497956298     
   4.0800000000000003E-002    0.66003910597183468     
   4.1100000000000005E-002    0.72241078757278476     
   4.1399999999999999E-002    0.77456242245178986     
   4.1700000000000008E-002    0.81684073023835657     
   4.2000000000000003E-002    0.85086785061927950     
   4.2299999999999997E-002    0.87949258661471630     
   4.2600000000000006E-002    0.90692415780476243     
   4.2900000000000001E-002    0.93780832771650091     
   4.3200000000000002E-002    0.97749640062379861     
   4.3500000000000004E-002     1.0304059735260880     
   4.3799999999999999E-002     1.1001270931975984     
   4.4100000000000000E-002     1.1879512125627834     
   4.4400000000000002E-002     1.2930969143340310     
   4.4700000000000004E-002     1.4118107744158639     
   4.4999999999999998E-002     1.5373889390148965     
   4.5300000000000000E-002     1.6607267987211847     
   4.5600000000000002E-002     1.7708674704129093     
   4.5899999999999996E-002     1.8556392091315215     
   4.6200000000000005E-002     1.9033812013947906     
   4.6500000000000000E-002     1.9030807744019598     
   4.6799999999999994E-002     1.8464757718847284     
   4.7100000000000003E-002     1.7277938423569228     
   4.7399999999999998E-002     1.5452069127241426     
   4.7700000000000006E-002     1.2998915792984818     
   4.8000000000000001E-002    0.99697104129646996     
   4.8300000000000010E-002    0.64382799023691129     
   4.8600000000000004E-002    0.25025368159780270     
   4.8899999999999999E-002   -0.17283772240607193     
   4.9200000000000008E-002   -0.61408359469300899     
   4.9500000000000002E-002    -1.0618862574092582     
   4.9800000000000011E-002    -1.5052679212862408     
   5.0100000000000006E-002    -1.9335884426513932     
   5.0400000000000000E-002    -2.3363714716688415     
   5.0700000000000009E-002    -2.7030167996553223     
   5.1000000000000004E-002    -3.0229833466778828     
   5.1299999999999998E-002    -3.2840576444757965     
   5.1600000000000007E-002    -3.4747531640249889     
   5.1900000000000002E-002    -3.5827172004923145     
   5.2200000000000010E-002    -3.5969877453518500     
   5.2500000000000005E-002    -3.5080633410005753     
   5.2800000000000000E-002    -3.3110676129106396     
   5.3099999999999994E-002    -3.0049770292494227     
   5.3400000000000003E-002    -2.5963807643957693     
   5.3699999999999998E-002    -2.0984883987141396     
   5.4000000000000006E-002    -1.5327884790279660     
   5.4300000000000001E-002   -0.92767570338220373     
   5.4599999999999996E-002   -0.31756778979511197     
   5.4900000000000004E-002    0.25967799882214820     
   5.5199999999999999E-002    0.76465217430848953     
   5.5499999999999994E-002     1.1615578873646473     
   5.5800000000000002E-002     1.4187606283698135     
   5.6099999999999997E-002     1.5146913253436167     
   5.6400000000000006E-002     1.4380666996934799     
   5.6700000000000000E-002     1.1909243964837690     
   5.6999999999999995E-002    0.78783798938532457     
   5.7300000000000004E-002    0.25644817881777260     
   5.7599999999999998E-002   -0.36529040722708117     
   5.7900000000000007E-002    -1.0316145748426979     
   5.8200000000000002E-002    -1.6921615589313352     
   5.8499999999999996E-002    -2.2956852539410950     
   5.8800000000000005E-002    -2.7939428534607869     
   5.9100000000000000E-002    -3.1449016400567613     
   5.9400000000000008E-002    -3.3156805937300580     
   5.9700000000000003E-002    -3.2842689122721569     
   6.0000000000000012E-002    -3.0414874820950994     
   6.0300000000000006E-002    -2.5894191288046589     
   6.0600000000000001E-002    -1.9431050858817229     
   6.0900000000000010E-002    -1.1277260516486409     
   6.1200000000000004E-002   -0.17650634056309966     
   6.1500000000000013E-002    0.86912700029052592     
   6.1800000000000008E-002     1.9656734594925052     
   6.2100000000000002E-002     3.0658872062802733     
   6.2399999999999997E-002     4.1243555236859875     
   6.2700000000000006E-002     5.0976139899640263     
   6.3000000000000000E-002     5.9474669976654777     
   6.3300000000000009E-002     6.6402369698542234     
   6.3600000000000004E-002     7.1514612090733669     
   6.3899999999999998E-002     7.4625788297768096     
   6.4199999999999993E-002     7.5643778163653410     
   6.4500000000000002E-002     7.4558148494427838     
   6.4800000000000010E-002     7.1430034583315827     
   6.5100000000000005E-002     6.6396369750135715     
   6.5400000000000000E-002     5.9654149719947949     
   6.5700000000000008E-002     5.1448525999679493     
   6.5999999999999989E-002     4.2065538879429507     
   6.6299999999999998E-002     3.1815740464472988     
   6.6600000000000006E-002     2.1027676314352490     
   6.6900000000000001E-002     1.0038014915127691     
   6.7199999999999996E-002    -8.2835796384568589E-002
   6.7500000000000004E-002    -1.1250744069791943     
   6.7800000000000013E-002    -2.0930570834694264     
   6.8099999999999994E-002    -2.9599678060532817     
   6.8400000000000002E-002    -3.7025429992000882     
   6.8700000000000011E-002    -4.3020565500773058     
   6.8999999999999992E-002    -4.7450358995312136     
   6.9300000000000000E-002    -5.0243303960191197     
   6.9600000000000009E-002    -5.1393764166866918     
   6.9900000000000004E-002    -5.0963275445815768     
   7.0199999999999999E-002    -4.9088656689573353     
   7.0500000000000007E-002    -4.5966064401300093     
   7.0800000000000016E-002    -4.1860992003325554     
   7.1099999999999997E-002    -3.7055877302789328     
   7.1400000000000005E-002    -3.1894891865627417     
   7.1700000000000000E-002    -2.6695687928465635     
   7.1999999999999995E-002    -2.1775588736781017     
   7.2300000000000003E-002    -1.7409906968580897     
   7.2600000000000012E-002    -1.3821114597152122     
   7.2900000000000006E-002    -1.1152477360111270     
   7.3200000000000001E-002   -0.94722574797368142     
   7.3499999999999996E-002   -0.87725853561653611     
   7.3800000000000004E-002   -0.89505356754930332     
   7.4099999999999999E-002   -0.98565597758638646     
   7.4400000000000008E-002    -1.1279067102581501     
   7.4700000000000003E-002    -1.2982999563578610     
   7.5000000000000011E-002    -1.4727318926968311     
   7.5299999999999992E-002    -1.6287109423592816     
   7.5600000000000001E-002    -1.7477085224779654     
   7.5900000000000009E-002    -1.8165578460013663     
   7.6200000000000004E-002    -1.8277003278980901     
   7.6499999999999999E-002    -1.7819941563947836     
   7.6800000000000007E-002    -1.6852799914318684     
   7.7099999999999988E-002    -1.5509172639277136     
   7.7399999999999997E-002    -1.3950234304879563     
   7.7700000000000005E-002    -1.2385230647795824     
   7.8000000000000014E-002    -1.1010913074718121     
   7.8299999999999995E-002    -1.0013821535159189     
   7.8600000000000003E-002   -0.95369690792514128     
   7.8900000000000012E-002   -0.96623192964409599     
   7.9199999999999993E-002    -1.0365051639519158     
   7.9500000000000001E-002    -1.1543406685833095     
   7.9800000000000010E-002    -1.2958286321185037     
   8.0100000000000018E-002    -1.4275663678240513     
   8.0399999999999999E-002    -1.5047618082255687     
   8.0700000000000008E-002    -1.4775504096806689     
   8.1000000000000003E-002    -1.2909273197099900     
   8.1299999999999997E-002   -0.89432411905730802     
   8.1600000000000006E-002   -0.24579175536713507     
   8.1900000000000014E-002    0.67914142689332835     
   8.2199999999999995E-002     1.8825712575807800     
   8.2500000000000004E-002     3.3366637423790957     
   8.2799999999999999E-002     4.9815238392316354     
   8.3100000000000007E-002     6.7230045665608067     
   8.3400000000000002E-002     8.4384667230165817     
   8.3700000000000011E-002     9.9804011775888171     
   8.4000000000000005E-002     11.190968118089691     
   8.4300000000000000E-002     11.912505110747302     
   8.4599999999999995E-002     12.005465720547402     
   8.4900000000000003E-002     11.364172307369662     
   8.5199999999999998E-002     9.9296210136057024     
   8.5500000000000007E-002     7.7051072478341167     
   8.5800000000000001E-002     4.7576166171196590     
   8.6100000000000010E-002     1.2236634460659317     
   8.6399999999999991E-002    -2.7004687737319064     
   8.6699999999999999E-002    -6.7676678392517431     
   8.7000000000000008E-002    -10.701424052173966     
   8.7300000000000003E-002    -14.212602846752032     
   8.7599999999999997E-002    -17.028950648821400     
   8.7900000000000006E-002    -18.913871294159311     
   8.8200000000000014E-002    -19.690831992815124     
   8.8499999999999995E-002    -19.255859325245179     
   8.8800000000000004E-002    -17.592376513667897     
   8.9100000000000013E-002    -14.767310519195469     
   8.9399999999999993E-002    -10.932389998369002     
   8.9700000000000002E-002    -6.3060593377022451     
   9.0000000000000011E-002    -1.1597600502558691     
   9.0299999999999991E-002     4.2068757330639333     
   9.0600000000000000E-002     9.4862078746053786     
   9.0900000000000009E-002     14.388519119018300     
   9.1200000000000017E-002     18.659432051034464     
   9.1499999999999998E-002     22.094447385920834     
   9.1800000000000007E-002     24.552989689699587     
   9.2100000000000001E-002     25.956251117969774     
   9.2399999999999996E-002     26.289955169036475     
   9.2700000000000005E-002     25.595769793153622     
   9.3000000000000013E-002     23.962026235131606     
   9.3300000000000008E-002     21.511077124572651     
   9.3600000000000003E-002     18.387419409715047     
   9.3899999999999997E-002     14.746671791481489     
   9.4200000000000006E-002     10.744146838465115     
   9.4500000000000001E-002     6.5279907286416377     
   9.4800000000000009E-002     2.2372413350607427     
   9.5100000000000004E-002    -2.0094663903259788     
   9.5399999999999999E-002    -6.0991160629092702     
   9.5699999999999993E-002    -9.9447938559359308     
   9.6000000000000002E-002    -13.460550815539300     
   9.6300000000000011E-002    -16.583432997286685     
   9.6600000000000005E-002    -19.251485897657481     
   9.6900000000000000E-002    -21.420356992558681     
   9.7200000000000009E-002    -23.048225754922093     
   9.7499999999999989E-002    -24.110399654870388     
   9.7799999999999998E-002    -24.588354524408167     
   9.8100000000000007E-002    -24.479246510270471     
   9.8400000000000015E-002    -23.792621894608473     
   9.8699999999999996E-002    -22.554693373175553     
   9.9000000000000005E-002    -20.805192927497590     
   9.9300000000000013E-002    -18.602206957496673     
   9.9599999999999994E-002    -16.016028892645430     
   9.9900000000000003E-002    -13.133619533263383     
  0.10020000000000001         -10.046378075713328     
  0.10049999999999999         -6.8603154455908557     
  0.10080000000000000         -3.6751206550788331     
  0.10110000000000001        -0.59454233654757893     
  0.10140000000000000          2.2920472858989736     
  0.10170000000000000          4.9021387425726246     
  0.10200000000000001          7.1764791108021599     
  0.10230000000000002          9.0717210236802046     
  0.10260000000000000          10.570412717520183     
  0.10290000000000001          11.671820813466185     
  0.10320000000000000          12.402251468000598     
  0.10350000000000001          12.798700570949320     
  0.10380000000000000          12.914383156608775     
  0.10410000000000001          12.807909192500277     
  0.10440000000000001          12.540507439939171     
  0.10470000000000000          12.167347009522262     
  0.10500000000000000          11.737509710892098     
  0.10530000000000000          11.286107929566095     
  0.10560000000000000          10.835007513455199     
  0.10590000000000001          10.391784453626263     
  0.10620000000000000          9.9490945032136633     
  0.10650000000000001          9.4905783334554759     
  0.10679999999999999          8.9889341522890973     
  0.10710000000000000          8.4165330592292893     
  0.10740000000000001          7.7438383265532735     
  0.10770000000000000          6.9462437233158907     
  0.10800000000000000          6.0085834413725774     
  0.10830000000000001          4.9253914940193786     
  0.10859999999999999          3.7044806194147868     
  0.10890000000000000          2.3664814160153549     
  0.10920000000000001         0.94349104572743003     
  0.10950000000000001        -0.52025960910455438     
  0.10979999999999999         -1.9770712731663020     
  0.11009999999999999         -3.3714576785352448     
  0.11040000000000001         -4.6528687190479703     
  0.11070000000000001         -5.7710514721917701     
  0.11100000000000000         -6.6891633526821037     
  0.11130000000000000         -7.3752247924763745     
  0.11160000000000002         -7.8167164321998523     
  0.11190000000000001         -8.0107743855324358     
  0.11220000000000001         -7.9695966244576875     
  0.11250000000000000         -7.7182137638805388     
  0.11280000000000000         -7.2913786522164008     
  0.11309999999999999         -6.7314105915011666     
  0.11340000000000001         -6.0840339778923536     
  0.11369999999999998         -5.3962382573401984     
  0.11400000000000000         -4.7124765785610983     
  0.11430000000000000         -4.0696947654079434     
  0.11460000000000002         -3.4991258949818014     
  0.11489999999999999         -3.0198286725020473     
  0.11520000000000001         -2.6425896356102734     
  0.11550000000000001         -2.3639328786358664     
  0.11580000000000000         -2.1743619517851411     
  0.11609999999999999         -2.0535738433705455     
  0.11640000000000002         -1.9734345619200679     
  0.11670000000000001         -1.9061075445132749     
  0.11700000000000001         -1.8182401738487424     
  0.11730000000000000         -1.6807907993376214     
  0.11760000000000000         -1.4695987938197250     
  0.11789999999999999         -1.1658425573584905     
  0.11820000000000001        -0.76067729497418668     
  0.11850000000000001        -0.25471973401021791     
  0.11880000000000000         0.34031915430162213     
  0.11910000000000000          1.0041275669357681     
  0.11940000000000002          1.7076407581660813     
  0.11970000000000001          2.4141885468948825     
  0.12000000000000001          3.0858008645399764     
  0.12030000000000000          3.6807518321629598     
  0.12060000000000000          4.1624315587282430     
  0.12089999999999999          4.4977434869212694     
  0.12119999999999999          4.6634043703878687     
  0.12150000000000001          4.6465052699614944     
  0.12180000000000001          4.4458884228958429     
  0.12210000000000000          4.0735787085846029     
  0.12239999999999999          3.5539692091540878     
  0.12270000000000002          2.9233381756980767     
  0.12300000000000001          2.2236696936511491     
  0.12330000000000001          1.5051170243411387     
  0.12360000000000000         0.81708658318084360     
  0.12390000000000000         0.20485896772991755     
  0.12419999999999999        -0.29095426624058646     
  0.12450000000000001        -0.64191560345754883     
  0.12480000000000001        -0.83431965342350056     
  0.12509999999999999        -0.86579358422118247     
  0.12540000000000001        -0.75105145958950803     
  0.12570000000000003        -0.51714228795473904     
  0.12600000000000000        -0.20112486066160223     
  0.12630000000000002         0.15359626720426875     
  0.12659999999999999         0.49955421368817421     
  0.12690000000000001         0.79322616823360192     
  0.12719999999999998         0.99603619208342709     
  0.12750000000000000          1.0806631226529069     
  0.12780000000000002          1.0283758990566909     
  0.12809999999999999         0.83799655685143848     
  0.12840000000000001         0.51614633699194667     
  0.12869999999999998          8.6201278936343217E-002
  0.12900000000000000        -0.42376335240384017     
  0.12930000000000003        -0.97531660573705081     
  0.12959999999999999         -1.5301326757995299     
  0.12990000000000002         -2.0473107896739369     
  0.13019999999999998         -2.4915738166276311     
  0.13050000000000000         -2.8308964155082714     
  0.13080000000000003         -3.0429499701526805     
  0.13109999999999999         -3.1131752106222028     
  0.13140000000000002         -3.0365648707236099     
  0.13169999999999998         -2.8183551001829117     
  0.13200000000000001         -2.4720160743228146     
  0.13229999999999997         -2.0177411330823976     
  0.13260000000000000         -1.4843634313248442     
  0.13290000000000002        -0.90197979964752983     
  0.13319999999999999        -0.30535950897965797     
  0.13350000000000001         0.27172237696753376     
  0.13380000000000003         0.79787205909640646     
  0.13410000000000000          1.2442474727740638     
  0.13440000000000002          1.5895943159403962     
  0.13469999999999999          1.8172915920239965     
  0.13500000000000001          1.9210945232035104     
  0.13529999999999998          1.8996856065303227     
  0.13560000000000000          1.7629680365513527     
  0.13590000000000002          1.5251206849774175     
  0.13619999999999999          1.2089529410562987     
  0.13650000000000001         0.83911853866557540     
  0.13680000000000003         0.44600667077307571     
  0.13710000000000000          5.7534664448300694E-002
  0.13740000000000002        -0.29584993305114970     
  0.13769999999999999        -0.59077631931624786     
  0.13800000000000001        -0.80408176634190387     
  0.13829999999999998        -0.92320829178947217     
  0.13860000000000000        -0.93786717611419246     
  0.13890000000000002        -0.85082038105646285     
  0.13919999999999999        -0.66563178472510898     
  0.13950000000000001        -0.40026614137567190     
  0.13979999999999998         -7.2471641069713266E-002
  0.14010000000000000         0.29185079643021045     
  0.14040000000000002         0.66527619396655946     
  0.14069999999999999          1.0195020432500055     
  0.14100000000000001          1.3283173181364112     
  0.14130000000000004          1.5670374075982534     
  0.14160000000000000          1.7195106447441584     
  0.14189999999999997          1.7712539311969051     
  0.14219999999999999          1.7200465186066065     
  0.14250000000000002          1.5676954983153237     
  0.14279999999999998          1.3243238865490579     
  0.14310000000000000          1.0055601394779095     
  0.14339999999999997         0.63426246261065466     
  0.14369999999999999         0.23297005434831658     
  0.14400000000000002        -0.17052419666211349     
  0.14429999999999998        -0.55053633410559089     
  0.14460000000000001        -0.88430198751192446     
  0.14490000000000003         -1.1490583920935571     
  0.14520000000000000         -1.3320008023041292     
  0.14550000000000002         -1.4204588762087249     
  0.14579999999999999         -1.4140290914609235     
  0.14610000000000001         -1.3143210099029037     
  0.14640000000000003         -1.1318436471284210     
  0.14670000000000000        -0.88170165423006541     
  0.14699999999999996        -0.58438496489766434     
  0.14729999999999999        -0.26166885478498231     
  0.14760000000000001          6.0434948342568955E-002
  0.14789999999999998         0.36045419473738166     
  0.14820000000000000         0.61454652028789880     