  -1.4999999999999999E-002     0.0000000000000000     
  -1.4700000000000000E-002     0.0000000000000000     
  -1.4400000000000000E-002     0.0000000000000000     
  -1.4100000000000000E-002     0.0000000000000000     
  -1.3800000000000000E-002     0.0000000000000000     
  -1.3500000000000000E-002     0.0000000000000000     
  -1.3200000000000000E-002     0.0000000000000000     
  -1.2899999999999998E-002     0.0000000000000000     
  -1.2600000000000000E-002     0.0000000000000000     
  -1.2299999999999998E-002     0.0000000000000000     
  -1.2000000000000000E-002     0.0000000000000000     
  -1.1699999999999999E-002     0.0000000000000000     
  -1.1399999999999999E-002     0.0000000000000000     
  -1.1099999999999999E-002     0.0000000000000000     
  -1.0799999999999999E-002     0.0000000000000000     
  -1.0499999999999999E-002     0.0000000000000000     
  -1.0199999999999999E-002     0.0000000000000000     
  -9.8999999999999991E-003     0.0000000000000000     
  -9.5999999999999992E-003     0.0000000000000000     
  -9.2999999999999992E-003     0.0000000000000000     
  -8.9999999999999993E-003     0.0000000000000000     
  -8.6999999999999994E-003     0.0000000000000000     
  -8.3999999999999995E-003     0.0000000000000000     
  -8.0999999999999996E-003     0.0000000000000000     
  -7.7999999999999988E-003     0.0000000000000000     
  -7.4999999999999997E-003     0.0000000000000000     
  -7.1999999999999998E-003     0.0000000000000000     
  -6.8999999999999981E-003     0.0000000000000000     
  -6.5999999999999982E-003     0.0000000000000000     
  -6.3000000000000000E-003     0.0000000000000000     
  -6.0000000000000001E-003     0.0000000000000000     
  -5.6999999999999985E-003     0.0000000000000000     
  -5.3999999999999986E-003     0.0000000000000000     
  -5.1000000000000004E-003     0.0000000000000000     
  -4.7999999999999987E-003     0.0000000000000000     
  -4.5000000000000005E-003     0.0000000000000000     
  -4.1999999999999989E-003     0.0000000000000000     
  -3.8999999999999990E-003     0.0000000000000000     
  -3.5999999999999990E-003     0.0000000000000000     
  -3.2999999999999991E-003     0.0000000000000000     
  -2.9999999999999992E-003     0.0000000000000000     
  -2.6999999999999993E-003     0.0000000000000000     
  -2.3999999999999994E-003     0.0000000000000000     
  -2.0999999999999977E-003     0.0000000000000000     
  -1.7999999999999995E-003     0.0000000000000000     
  -1.4999999999999979E-003     0.0000000000000000     
  -1.1999999999999997E-003     0.0000000000000000     
  -8.9999999999999976E-004     0.0000000000000000     
  -5.9999999999999810E-004     0.0000000000000000     
  -2.9999999999999992E-004     0.0000000000000000     
   0.0000000000000000          0.0000000000000000     
   3.0000000000000165E-004     0.0000000000000000     
   5.9999999999999984E-004     0.0000000000000000     
   9.0000000000000149E-004     0.0000000000000000     
   1.2000000000000031E-003     0.0000000000000000     
   1.5000000000000013E-003     0.0000000000000000     
   1.8000000000000030E-003     0.0000000000000000     
   2.1000000000000012E-003     0.0000000000000000     
   2.3999999999999994E-003     0.0000000000000000     
   2.7000000000000010E-003     0.0000000000000000     
   2.9999999999999992E-003     0.0000000000000000     
   3.3000000000000008E-003     0.0000000000000000     
   3.6000000000000025E-003     0.0000000000000000     
   3.9000000000000007E-003     0.0000000000000000     
   4.2000000000000023E-003     0.0000000000000000     
   4.5000000000000005E-003     0.0000000000000000     
   4.7999999999999987E-003     0.0000000000000000     
   5.1000000000000004E-003     0.0000000000000000     
   5.4000000000000020E-003     0.0000000000000000     
   5.7000000000000037E-003     0.0000000000000000     
   5.9999999999999984E-003     0.0000000000000000     
   6.3000000000000000E-003     0.0000000000000000     
   6.6000000000000017E-003     0.0000000000000000     
   6.9000000000000034E-003     0.0000000000000000     
   7.2000000000000015E-003     0.0000000000000000     
   7.5000000000000032E-003     0.0000000000000000     
   7.8000000000000014E-003     0.0000000000000000     
   8.0999999999999996E-003     0.0000000000000000     
   8.4000000000000012E-003     0.0000000000000000     
   8.7000000000000029E-003     0.0000000000000000     
   9.0000000000000011E-003     0.0000000000000000     
   9.2999999999999992E-003     0.0000000000000000     
   9.6000000000000009E-003     0.0000000000000000     
   9.8999999999999991E-003     0.0000000000000000     
   1.0200000000000001E-002     0.0000000000000000     
   1.0500000000000002E-002     0.0000000000000000     
   1.0800000000000004E-002     0.0000000000000000     
   1.1099999999999999E-002     0.0000000000000000     
   1.1400000000000000E-002     0.0000000000000000     
   1.1700000000000002E-002     0.0000000000000000     
   1.2000000000000004E-002     0.0000000000000000     
   1.2300000000000002E-002     0.0000000000000000     
   1.2600000000000000E-002     0.0000000000000000     
   1.2900000000000002E-002     0.0000000000000000     
   1.3200000000000000E-002     0.0000000000000000     
   1.3500000000000002E-002     0.0000000000000000     
   1.3800000000000003E-002     0.0000000000000000     
   1.4100000000000001E-002     0.0000000000000000     
   1.4400000000000000E-002     0.0000000000000000     
   1.4700000000000001E-002     0.0000000000000000     
   1.4999999999999999E-002     0.0000000000000000     
   1.5300000000000001E-002     0.0000000000000000     
   1.5600000000000003E-002     0.0000000000000000     
   1.5899999999999997E-002     0.0000000000000000     
   1.6199999999999999E-002     0.0000000000000000     
   1.6500000000000001E-002     0.0000000000000000     
   1.6800000000000002E-002     0.0000000000000000     
   1.7100000000000004E-002     0.0000000000000000     
   1.7400000000000006E-002     0.0000000000000000     
   1.7700000000000000E-002     0.0000000000000000     
   1.8000000000000002E-002     0.0000000000000000     
   1.8300000000000004E-002     0.0000000000000000     
   1.8600000000000005E-002     0.0000000000000000     
   1.8900000000000000E-002     0.0000000000000000     
   1.9200000000000002E-002     0.0000000000000000     
   1.9500000000000003E-002     0.0000000000000000     
   1.9799999999999998E-002     0.0000000000000000     
   2.0100000000000000E-002     0.0000000000000000     
   2.0400000000000001E-002     0.0000000000000000     
   2.0700000000000003E-002     0.0000000000000000     
   2.0999999999999998E-002     0.0000000000000000     
   2.1299999999999999E-002     0.0000000000000000     
   2.1600000000000001E-002     0.0000000000000000     
   2.1900000000000003E-002     0.0000000000000000     
   2.2200000000000004E-002     0.0000000000000000     
   2.2500000000000006E-002    -3.4996993993358837E-045
   2.2800000000000001E-002     2.9658055370458736E-043
   2.3100000000000002E-002    -1.7711863296399093E-042
   2.3400000000000004E-002     4.4786647830830053E-037
   2.3699999999999999E-002    -8.0945771436483395E-036
   2.4000000000000000E-002     3.0668558909908810E-035
   2.4300000000000002E-002    -4.1436785520740914E-035
   2.4599999999999997E-002    -2.7743873098957327E-034
   2.4900000000000005E-002     2.6554641840357389E-033
   2.5200000000000000E-002    -8.2698523962978481E-033
   2.5499999999999995E-002     1.7979053349437585E-032
   2.5800000000000003E-002    -2.3886909676985584E-032
   2.6099999999999998E-002    -1.7073673659530796E-032
   2.6400000000000007E-002     2.7942905675264690E-031
   2.6700000000000002E-002    -1.3486201689523878E-030
   2.6999999999999996E-002     4.9073085125831467E-030
   2.7300000000000005E-002    -1.5146248663525459E-029
   2.7600000000000000E-002     4.0843735090529765E-029
   2.7900000000000008E-002    -9.5761047649063934E-029
   2.8200000000000003E-002     1.8703220843556608E-028
   2.8499999999999998E-002    -2.6066889636965566E-028
   2.8800000000000006E-002     3.3989749794543626E-029
   2.9100000000000001E-002     1.3969061403554040E-027
   2.9400000000000003E-002    -6.2272903040208782E-027
   2.9700000000000004E-002     1.8467058125227402E-026
   3.0000000000000006E-002    -4.2349908383186045E-026
   3.0300000000000001E-002     7.3357195759778178E-026
   3.0600000000000002E-002    -7.2471946673850607E-026
   3.0900000000000004E-002    -8.3463251943487681E-026
   3.1199999999999999E-002     6.5339326236316364E-025
   3.1500000000000007E-002    -1.9748101795351514E-024
   3.1800000000000002E-002     4.0298746046169242E-024
   3.2099999999999997E-002    -5.2847943656929157E-024
   3.2400000000000005E-002     9.4503687526671050E-025
   3.2700000000000000E-002     1.7287993975027311E-023
   3.3000000000000002E-002    -5.4270667179934875E-023
   3.3300000000000003E-002     9.0191639767300859E-023
   3.3599999999999998E-002    -5.2047144279770733E-023
   3.3900000000000000E-002    -1.6382902559140136E-022
   3.4200000000000001E-002     4.7100963757163058E-022
   3.4500000000000003E-002    -1.4477153415633720E-023
   3.4799999999999998E-002    -3.4868190234625900E-021
   3.5099999999999999E-002     1.2647129009322136E-020
   3.5400000000000001E-002    -2.2748497868808361E-020
   3.5699999999999996E-002     5.3917480329417708E-022
   3.6000000000000004E-002     1.4858217135203362E-019
   3.6299999999999999E-002    -5.7774541849357244E-019
   3.6600000000000008E-002     1.2944811383337395E-018
   3.6900000000000002E-002    -1.4187243016950386E-018
   3.7199999999999997E-002    -2.3332635962269313E-018
   3.7500000000000006E-002     1.6729861292068766E-017
   3.7800000000000000E-002    -4.6941477525535191E-017
   3.8100000000000009E-002     7.2862271332348734E-017
   3.8400000000000004E-002     1.2086898272391107E-018
   3.8699999999999998E-002    -3.8081056812705036E-016
   3.9000000000000007E-002     1.2300815636747778E-015
   3.9300000000000002E-002    -2.0615070286173390E-015
   3.9600000000000003E-002     6.9614417834341305E-016
   3.9900000000000005E-002     7.0024759820036587E-015
   4.0200000000000000E-002    -2.3878925085573889E-014
   4.0500000000000001E-002     4.2415874977438883E-014
   4.0800000000000003E-002    -3.1301147092523632E-014
   4.1100000000000005E-002    -7.8706580823510008E-014
   4.1399999999999999E-002     4.0174488039648310E-013
   4.1700000000000008E-002    -1.0123276658755335E-012
   4.2000000000000003E-002     1.4129073849644711E-012
   4.2299999999999997E-002     9.5269442209762900E-013
   4.2600000000000006E-002    -1.1751366860636296E-011
   4.2900000000000001E-002     3.1941697487885406E-011
   4.3200000000000002E-002    -2.5891967892035652E-011
   4.3500000000000004E-002    -1.1639778206100415E-010
   4.3799999999999999E-002     4.5919795771591505E-010
   4.4100000000000000E-002    -4.4518059196294917E-010
   4.4400000000000002E-002    -1.6221176166118880E-009
   4.4700000000000004E-002     5.7377681040845752E-009
   4.4999999999999998E-002    -1.2547421626529192E-009
   4.5300000000000000E-002    -2.9632194769489482E-008
   4.5600000000000002E-002     3.8940876278778393E-008
   4.5899999999999996E-002     1.0099370980019880E-007
   4.6200000000000005E-002    -2.7930761670049779E-007
   4.6500000000000000E-002    -2.1589336590573375E-007
   4.6799999999999994E-002     3.3812442466960664E-006
   4.7100000000000003E-002     1.2522953164410632E-005
   4.7399999999999998E-002     2.5362949677951799E-005
   4.7700000000000006E-002     3.8762219915555892E-005
   4.8000000000000001E-002     5.2041803285006938E-005
   4.8300000000000010E-002     6.9519925321633494E-005
   4.8600000000000004E-002     1.0137805908032102E-004
   4.8899999999999999E-002     1.5816036367145833E-004
   4.9200000000000008E-002     2.4591789856288427E-004
   4.9500000000000002E-002     3.7247564152624303E-004
   4.9800000000000011E-002     5.5249528427061385E-004
   5.0100000000000006E-002     8.0343869030185589E-004
   5.0400000000000000E-002     1.1467603907129537E-003
   5.0700000000000009E-002     1.6123759193841702E-003
   5.1000000000000004E-002     2.2342574788908535E-003
   5.1299999999999998E-002     3.0468899694076207E-003
   5.1600000000000007E-002     4.0870760012006449E-003
   5.1900000000000002E-002     5.3893941842642346E-003
   5.2200000000000010E-002     6.9796200386959472E-003
   5.2500000000000005E-002     8.8735855888208530E-003
   5.2800000000000000E-002     1.1071484555308708E-002
   5.3099999999999994E-002     1.3543978420496925E-002
   5.3400000000000003E-002     1.6218897143335482E-002
   5.3699999999999998E-002     1.8975451918765252E-002
   5.4000000000000006E-002     2.1640455870765601E-002
   5.4300000000000001E-002     2.3989970628352418E-002
   5.4599999999999996E-002     2.5754059794348288E-002
   5.4900000000000004E-002     2.6620227388184942E-002
   5.5199999999999999E-002     2.6240013473790107E-002
   5.5499999999999994E-002     2.4270942780066376E-002
   5.5800000000000002E-002     2.0422204212825059E-002
   5.6099999999999997E-002     1.4486387542123485E-002
   5.6400000000000006E-002     6.3772592379667372E-003
   5.6700000000000000E-002    -3.8254213623485039E-003
   5.6999999999999995E-002    -1.5835816522860244E-002
   5.7300000000000004E-002    -2.9144697746410111E-002
   5.7599999999999998E-002    -4.3078286250942982E-002
   5.7900000000000007E-002    -5.6841148771194533E-002
   5.8200000000000002E-002    -6.9531552748900133E-002
   5.8499999999999996E-002    -8.0266865142806051E-002
   5.8800000000000005E-002    -8.8368710516243426E-002
   5.9100000000000000E-002    -9.3457317797951939E-002
   5.9400000000000008E-002    -9.5541575436899256E-002
   5.9700000000000003E-002    -9.5127593763011026E-002
   6.0000000000000012E-002    -9.3226319536084484E-002
   6.0300000000000006E-002    -9.1344774074083465E-002
   6.0600000000000001E-002    -9.1348604946773021E-002
   6.0900000000000010E-002    -9.5217282264169589E-002
   6.1200000000000004E-002   -0.10478282918603879     
   6.1500000000000013E-002   -0.12145303285797786     
   6.1800000000000008E-002   -0.14585894256262105     
   6.2100000000000002E-002   -0.17755578106129305     
   6.2399999999999997E-002   -0.21485745227946451     
   6.2700000000000006E-002   -0.25475508412731596     
   6.3000000000000000E-002   -0.29304644503744748     
   6.3300000000000009E-002   -0.32456993691389208     
   6.3600000000000004E-002   -0.34361504759285222     
   6.3899999999999998E-002   -0.34455632068834924     
   6.4199999999999993E-002   -0.32245107099458659     
   6.4500000000000002E-002   -0.27365742504098439     
   6.4800000000000010E-002   -0.19643448024045798     
   6.5100000000000005E-002    -9.1438401759227128E-002
   6.5400000000000000E-002     3.8107026165830150E-002
   6.5700000000000008E-002    0.18640817995977271     
   6.5999999999999989E-002    0.34531767851555217     
   6.6299999999999998E-002    0.50502385231745028     
   6.6600000000000006E-002    0.65458972603387766     
   6.6900000000000001E-002    0.78292281577185974     
   6.7199999999999996E-002    0.87972922061798819     
   6.7500000000000004E-002    0.93631208657414378     
   6.7800000000000013E-002    0.94652003551650377     
   6.8099999999999994E-002    0.90719050465242079     
   6.8400000000000002E-002    0.81847852570799373     
   6.8700000000000011E-002    0.68398499410608837     
   6.8999999999999992E-002    0.51055860277274645     
   6.9300000000000000E-002    0.30782168719616998     
   6.9600000000000009E-002     8.7510834118871075E-002
   6.9900000000000004E-002   -0.13735563144150453     
   7.0199999999999999E-002   -0.35329729949149913     
   7.0500000000000007E-002   -0.54736185711508989     
   7.0800000000000016E-002   -0.70781022914690583     
   7.1099999999999997E-002   -0.82505864433057441     
   7.1400000000000005E-002   -0.89218551332102614     
   7.1700000000000000E-002   -0.90534472730668281     
   7.1999999999999995E-002   -0.86420869915874199     
   7.2300000000000003E-002   -0.77169763944914949     
   7.2600000000000012E-002   -0.63420819950511931     
   7.2900000000000006E-002   -0.46092825670289700     
   7.3200000000000001E-002   -0.26351662870070575     
   7.3499999999999996E-002    -5.5362325597016072E-002
   7.3800000000000004E-002    0.14933688193021535     
   7.4099999999999999E-002    0.33629844320988389     
   7.4400000000000008E-002    0.49241942807488548     
   7.4700000000000003E-002    0.60638148078527410     
   7.5000000000000011E-002    0.66972476509146373     
   7.5299999999999992E-002    0.67737287269505098     
   7.5600000000000001E-002    0.62823283332377700     
   7.5900000000000009E-002    0.52537673006964747     
   7.6200000000000004E-002    0.37579684361309007     
   7.6499999999999999E-002    0.19022360453472195     
   7.6800000000000007E-002    -1.7696939455081676E-002
   7.7099999999999988E-002   -0.23232934617092441     
   7.7399999999999997E-002   -0.43703531791372940     
   7.7700000000000005E-002   -0.61558201750824915     
   7.8000000000000014E-002   -0.75329396165460361     
   7.8299999999999995E-002   -0.83806392696226528     
   7.8600000000000003E-002   -0.86158999943862302     
   7.8900000000000012E-002   -0.81984195127431370     
   7.9199999999999993E-002   -0.71346190315891544     
   7.9500000000000001E-002   -0.54781117355120768     
   7.9800000000000010E-002   -0.33266024514177617     
   8.0100000000000018E-002    -8.1253225390163816E-002
   8.0399999999999999E-002    0.19046281191564612     
   8.0700000000000008E-002    0.46523837173112059     
   8.1000000000000003E-002    0.72590126603306715     
   8.1299999999999997E-002    0.95635029799179805     
   8.1600000000000006E-002     1.1431717098981449     
   8.1900000000000014E-002     1.2764275590915632     
   8.2199999999999995E-002     1.3502649668474065     
   8.2500000000000004E-002     1.3632876341769187     
   8.2799999999999999E-002     1.3184686402759547     
   8.3100000000000007E-002     1.2225640521757775     
   8.3400000000000002E-002     1.0855212888802288     
   8.3700000000000011E-002    0.91935086522740195     
   8.4000000000000005E-002    0.73698383045493898     
   8.4300000000000000E-002    0.55125348230982540     
   8.4599999999999995E-002    0.37366807765235360     
   8.4900000000000003E-002    0.21353678984970773     
   8.5199999999999998E-002     7.7446111720114785E-002
   8.5500000000000007E-002    -3.1187525775685978E-002
   8.5800000000000001E-002   -0.11205162611190790     
   8.6100000000000010E-002   -0.16788133050036791     
   8.6399999999999991E-002   -0.20391750006530693     
   8.6699999999999999E-002   -0.22731912197797507     
   8.7000000000000008E-002   -0.24612666936248728     
   8.7300000000000003E-002   -0.26866153210676214     
   8.7599999999999997E-002   -0.30267107768998791     
   8.7900000000000006E-002   -0.35435688689493067     
   8.8200000000000014E-002   -0.42803436626607338     
   8.8499999999999995E-002   -0.52526870447713703     
   8.8800000000000004E-002   -0.64479443563025629     
   8.9100000000000013E-002   -0.78255161926244943     
   8.9399999999999993E-002   -0.93164733581794124     
   8.9700000000000002E-002    -1.0828985358874401     
   9.0000000000000011E-002    -1.2255359114282651     
   9.0299999999999991E-002    -1.3479671929854098     
   9.0600000000000000E-002    -1.4388130188499018     
   9.0900000000000009E-002    -1.4879624140817804     
   9.1200000000000017E-002    -1.4874072557765241     
   9.1499999999999998E-002    -1.4322596050369316     
   9.1800000000000007E-002    -1.3213218851273898     
   9.2100000000000001E-002    -1.1573306645559982     
   9.2399999999999996E-002   -0.94705470655671919     
   9.2700000000000005E-002   -0.70067108751762164     
   9.3000000000000013E-002   -0.43123942409490107     
   9.3300000000000008E-002   -0.15354695886845018     
   9.3600000000000003E-002    0.11711406518667981     
   9.3899999999999997E-002    0.36627698900246941     
   9.4200000000000006E-002    0.58128212811428015     
   9.4500000000000001E-002    0.75276922805382851     
   9.4800000000000009E-002    0.87506461171198169     
   9.5100000000000004E-002    0.94654005894199467     
   9.5399999999999999E-002    0.96994733728206850     
   9.5699999999999993E-002    0.95134502085701134     
   9.6000000000000002E-002    0.89984582579133665     
   9.6300000000000011E-002    0.82641718608805392     
   9.6600000000000005E-002    0.74250331350522369     
   9.6900000000000000E-002    0.65906097285950060     
   9.7200000000000009E-002    0.58519239016577373     
   9.7499999999999989E-002    0.52760428053473729     
   9.7799999999999998E-002    0.48984544536010233     
   9.8100000000000007E-002    0.47216664168611833     
   9.8400000000000015E-002    0.47170949902863701     
   9.8699999999999996E-002    0.48290864232047870     
   9.9000000000000005E-002    0.49843913736698053     
   9.9300000000000013E-002    0.50988158948995810     
   9.9599999999999994E-002    0.50874033974937238     
   9.9900000000000003E-002    0.48729736118720879     
  0.10020000000000001         0.43949106973381374     
  0.10049999999999999         0.36149562177896494     
  0.10080000000000000         0.25185532278311634     
  0.10110000000000001         0.11205323283896448     
  0.10140000000000000         -5.4201272123299088E-002
  0.10170000000000000        -0.24067141552587093     
  0.10200000000000001        -0.43945928378744747     
  0.10230000000000002        -0.64121087408439981     
  0.10260000000000000        -0.83589299600907974     
  0.10290000000000001         -1.0132423852118178     
  0.10320000000000000         -1.1633330800766224     
  0.10350000000000001         -1.2775194860964763     
  0.10380000000000000         -1.3480353565652210     
  0.10410000000000001         -1.3694702583097307     
  0.10440000000000001         -1.3384845430383336     
  0.10470000000000000         -1.2543909691507631     
  0.10500000000000000         -1.1194065910302389     
  0.10530000000000000        -0.93862027456552488     
  0.10560000000000000        -0.72008615708494583     
  0.10590000000000001        -0.47433173053702032     
  0.10620000000000000        -0.21414815193003381     
  0.10650000000000001          4.6292594292722790E-002
  0.10679999999999999         0.29202603531347171     
  0.10710000000000000         0.50873270238698076     
  0.10740000000000001         0.68331274236714723     
  0.10770000000000000         0.80516400872584348     
  0.10800000000000000         0.86731430750191740     
  0.10830000000000001         0.86658927429855737     
  0.10859999999999999         0.80456801513274168     
  0.10890000000000000         0.68755205252164187     
  0.10920000000000001         0.52590687303384342     
  0.10950000000000001         0.33342347210144996     
  0.10979999999999999         0.12659765906411422     
  0.11009999999999999         -7.7263082837484509E-002
  0.11040000000000001        -0.26110765984929463     
  0.11070000000000001        -0.40962068059736195     
  0.11100000000000000        -0.51092774470831981     
  0.11130000000000000        -0.55714882002736099     
  0.11160000000000002        -0.54501414500266765     
  0.11190000000000001        -0.47668707023667167     
  0.11220000000000001        -0.35839714599519307     
  0.11250000000000000        -0.20047347026341220     
  0.11280000000000000         -1.5984592869914816E-002
  0.11309999999999999         0.18111160488259034     
  0.11340000000000001         0.37651518598363543     
  0.11369999999999998         0.55791316374681688     
  0.11400000000000000         0.71549139467948042     
  0.11430000000000000         0.84282050430321398     
  0.11460000000000002         0.93714574469866108     
  0.11489999999999999         0.99934014526875081     
  0.11520000000000001          1.0331639251370683     
  0.11550000000000001          1.0447018250770943     
  0.11580000000000000          1.0408709052414409     
  0.11609999999999999          1.0282766725634549     
  0.11640000000000002          1.0130204975504484     
  0.11670000000000001         0.99884889074604477     
  0.11700000000000001         0.98742535871155590     
  0.11730000000000000         0.97805258702530151     
  0.11760000000000000         0.96787771871653461     
  0.11789999999999999         0.95255599226649146     
  0.11820000000000001         0.92711488962449196     
  0.11850000000000001         0.88635944809711398     
  0.11880000000000000         0.82573402436084742     
  0.11910000000000000         0.74244023881854793     
  0.11940000000000002         0.63475420525773141     
  0.11970000000000001         0.50307163800011934     
  0.12000000000000001         0.34922844897623745     
  0.12030000000000000         0.17635237662604913     
  0.12060000000000000         -1.1483778993471970E-002
  0.12089999999999999        -0.20991265133902745     
  0.12119999999999999        -0.41432452134969738     
  0.12150000000000001        -0.62035546432938382     
  0.12180000000000001        -0.82366876516345910     
  0.12210000000000000         -1.0201230033067530     
  0.12239999999999999         -1.2055720195230946     
  0.12270000000000002         -1.3751586906139506     
  0.12300000000000001         -1.5237716794107317     
  0.12330000000000001         -1.6456144338243284     
  0.12360000000000000         -1.7342123394888060     
  0.12390000000000000         -1.7835005039037060     
  0.12419999999999999         -1.7871000378424915     
  0.12450000000000001         -1.7401536390454573     
  0.12480000000000001         -1.6398707365303480     
  0.12509999999999999         -1.4854172227707714     
  0.12540000000000001         -1.2798534379099409     
  0.12570000000000003         -1.0291950401635857     
  0.12600000000000000        -0.74313279084246131     
  0.12630000000000002        -0.43447358237520278     
  0.12659999999999999        -0.11820406428586008     
  0.12690000000000001         0.18922038092477014     
  0.12719999999999998         0.47158678231268492     
  0.12750000000000000         0.71369684869413252     
  0.12780000000000002         0.90306178153328209     
  0.12809999999999999          1.0306845267731777     
  0.12840000000000001          1.0919109141903867     
  0.12869999999999998          1.0869369226503853     
  0.12900000000000000          1.0203007299180324     
  0.12930000000000003         0.90109013619588585     
  0.12959999999999999         0.74161457324568003     
  0.12990000000000002         0.55668001369388731     
  0.13019999999999998         0.36255760199111597     
  0.13050000000000000         0.17554767445224442     
  0.13080000000000003          1.1422229986954411E-002
  0.13109999999999999        -0.11623198732610701     
  0.13140000000000002        -0.19610396492706358     
  0.13169999999999998        -0.22007372156517105     
  0.13200000000000001        -0.18352443673299526     
  0.13229999999999997         -8.5629817590046842E-002
  0.13260000000000000          7.0691550482624779E-002
  0.13290000000000002         0.27854825351283097     
  0.13319999999999999         0.52738843672846025     
  0.13350000000000001         0.80353574688028595     
  0.13380000000000003          1.0899305296499329     
  0.13410000000000000          1.3679715450626111     
  0.13440000000000002          1.6171890670258033     
  0.13469999999999999          1.8175202897390370     
  0.13500000000000001          1.9498283061539172     
  0.13529999999999998          1.9975980983077966     
  0.13560000000000000          1.9484954372508858     
  0.13590000000000002          1.7950748676436570     
  0.13619999999999999          1.5368373783541025     
  0.13650000000000001          1.1790361654257913     
  0.13680000000000003         0.73468345910137633     
  0.13710000000000000         0.22283195942369241     
  0.13740000000000002        -0.33204512711076006     
  0.13769999999999999        -0.90093555137098114     
  0.13800000000000001         -1.4531625439672957     
  0.13829999999999998         -1.9570353268617873     
  0.13860000000000000         -2.3831970007420065     
  0.13890000000000002         -2.7054523953942780     
  0.13919999999999999         -2.9038347871297630     
  0.13950000000000001         -2.9651202879742886     
  0.13979999999999998         -2.8842801721903544     
  0.14010000000000000         -2.6652910223827657     
  0.14040000000000002         -2.3206447801986507     
  0.14069999999999999         -1.8716360398499232     
  0.14100000000000001         -1.3461842145309937     
  0.14130000000000004        -0.77803322406745290     
  0.14160000000000000        -0.20446333239427042     
  0.14189999999999997         0.33673021149982513     
  0.14219999999999999         0.80910250198500211     
  0.14250000000000002          1.1809984027947482     
  0.14279999999999998          1.4277794365648664     
  0.14310000000000000          1.5338517736033430     
  0.14339999999999997          1.4944575303635743     
  0.14369999999999999          1.3158996583041094     
  0.14400000000000002          1.0155769911082420     
  0.14429999999999998         0.62032848775880456     
  0.14460000000000001         0.16465430192589822     
  0.14490000000000003        -0.31264592014453901     
  0.14520000000000000        -0.77212439029742563     
  0.14550000000000002         -1.1764792066720018     
  0.14579999999999999         -1.4950801636465698     
  0.14610000000000001         -1.7059055462852419     
  0.14640000000000003         -1.7978321706797957     
  0.14670000000000000         -1.7716694648093998     
  0.14699999999999996         -1.6389961062345566     
  0.14729999999999999         -1.4217904723132413     
  0.14760000000000001         -1.1484571571788502     
  0.14789999999999998        -0.85156890851569544     
  0.14820000000000000        -0.56353772127382495     