  -1.4999999999999999E-002     0.0000000000000000     
  -1.4700000000000000E-002    -2.0281783997182442E-034
  -1.4400000000000000E-002    -5.5174176904120043E-027
  -1.4100000000000000E-002    -6.7194098678465166E-024
  -1.3800000000000000E-002     6.7904866314083249E-022
  -1.3500000000000000E-002     2.2193374849902149E-020
  -1.3200000000000000E-002    -3.8720187830516898E-019
  -1.2899999999999998E-002    -5.2503289821925295E-019
  -1.2600000000000000E-002     1.9533667360655492E-017
  -1.2299999999999998E-002    -3.6490240941454876E-017
  -1.2000000000000000E-002    -1.8452158704907303E-016
  -1.1699999999999999E-002     3.7521744808572866E-016
  -1.1399999999999999E-002     1.1323054649405776E-015
  -1.1099999999999999E-002    -1.0359009035521493E-015
  -1.0799999999999999E-002    -7.9500189722399279E-015
  -1.0499999999999999E-002     4.1463137798738645E-015
  -1.0199999999999999E-002     1.8566800338219884E-014
  -9.8999999999999991E-003     3.0671551880611899E-014
  -9.5999999999999992E-003    -3.3428319378090015E-014
  -9.2999999999999992E-003    -2.0859165840118928E-013
  -8.9999999999999993E-003    -1.1026851316716973E-013
  -8.6999999999999994E-003     8.6445219732752139E-013
  -8.3999999999999995E-003     5.5114555064224070E-013
  -8.0999999999999996E-003    -1.7209583002525447E-012
  -7.7999999999999988E-003    -2.8652322866500790E-013
  -7.4999999999999997E-003    -2.9708277542850800E-012
  -7.1999999999999998E-003     3.6701277140263398E-013
  -6.8999999999999981E-003     2.0193517466898712E-011
  -6.5999999999999982E-003     2.7799879704519859E-012
  -6.3000000000000000E-003    -5.7721331950023552E-011
  -6.0000000000000001E-003     1.9988836123480973E-011
  -5.6999999999999985E-003     2.7061324894942398E-011
  -5.3999999999999986E-003    -7.7440257710400203E-011
  -5.1000000000000004E-003     2.5152081937420127E-010
  -4.7999999999999987E-003     8.9270113630818998E-011
  -4.5000000000000005E-003    -7.8945937293699055E-010
  -4.1999999999999989E-003     1.2464570105503038E-010
  -3.8999999999999990E-003     1.1376190990275410E-009
  -3.5999999999999990E-003    -1.3879281188179489E-009
  -3.2999999999999991E-003     8.9148308911497570E-010
  -2.9999999999999992E-003     3.2964209610957482E-009
  -2.6999999999999993E-003    -7.4113171716301050E-009
  -2.3999999999999994E-003    -8.0933307214579332E-010
  -2.0999999999999977E-003     1.2351820385123565E-008
  -1.7999999999999995E-003    -1.1253716818783440E-008
  -1.4999999999999979E-003     4.9740001870220288E-010
  -1.1999999999999997E-003     2.3435621239191123E-008
  -8.9999999999999976E-004    -3.5211908201740790E-008
  -5.9999999999999810E-004    -8.2154148214261097E-009
  -2.9999999999999992E-004     5.2498206858305153E-008
   0.0000000000000000         -4.3287911483878535E-008
   3.0000000000000165E-004     6.2783751420906079E-009
   5.9999999999999984E-004     7.5157205082827466E-008
   9.0000000000000149E-004    -1.2108280597703022E-007
   1.2000000000000031E-003    -8.7444506913547865E-009
   1.5000000000000013E-003     1.6432270872516315E-007
   1.8000000000000030E-003    -1.4446719945684063E-007
   2.1000000000000012E-003    -4.3354651910585278E-008
   2.3999999999999994E-003     2.5870764336211679E-007
   2.7000000000000010E-003    -1.5316033869712165E-007
   2.9999999999999992E-003    -2.2445704232789731E-007
   3.3000000000000008E-003     2.1397258375037098E-007
   3.6000000000000025E-003     1.0190009810318155E-007
   3.9000000000000007E-003    -3.6218288646012487E-008
   4.2000000000000023E-003    -6.8818225498522270E-008
   4.5000000000000005E-003    -2.0566454365176900E-007
   4.7999999999999987E-003     1.2655964616333217E-007
   5.1000000000000004E-003     2.1916385820148265E-007
   5.4000000000000020E-003    -4.3634564878266506E-008
   5.7000000000000037E-003     1.3138743851938682E-007
   5.9999999999999984E-003    -1.3764784189129955E-007
   6.3000000000000000E-003    -6.3018564181001096E-007
   6.6000000000000017E-003     8.4229089259878322E-008
   6.9000000000000034E-003     7.3875293655173924E-007
   7.2000000000000015E-003     5.5551334913043889E-007
   7.5000000000000032E-003     1.7645722843427594E-006
   7.8000000000000014E-003     4.7110171800546789E-006
   8.0999999999999996E-003     9.7581435943061052E-006
   8.4000000000000012E-003     2.1285282886915021E-005
   8.7000000000000029E-003     4.1166734768553752E-005
   9.0000000000000011E-003     6.3054715837482155E-005
   9.2999999999999992E-003     7.9291712485120270E-005
   9.6000000000000009E-003     8.7962718704963784E-005
   9.8999999999999991E-003     8.6091776351463246E-005
   1.0200000000000001E-002     7.1328963327849394E-005
   1.0500000000000002E-002     4.7093459790778372E-005
   1.0800000000000004E-002     6.3739770569107180E-006
   1.1099999999999999E-002    -7.9846757224504936E-005
   1.1400000000000000E-002    -2.5881030773435205E-004
   1.1700000000000002E-002    -6.0054463671892298E-004
   1.2000000000000004E-002    -1.2191054494747624E-003
   1.2300000000000002E-002    -2.2857316748898619E-003
   1.2600000000000000E-002    -4.0382957194798784E-003
   1.2900000000000002E-002    -6.8203696406969085E-003
   1.3200000000000000E-002    -1.1123610620222124E-002
   1.3500000000000002E-002    -1.7615329468649757E-002
   1.3800000000000003E-002    -2.7184230445630911E-002
   1.4100000000000001E-002    -4.1002571350577263E-002
   1.4400000000000000E-002    -6.0537211969661560E-002
   1.4700000000000001E-002    -8.7527683550564422E-002
   1.4999999999999999E-002   -0.12403935529380417     
   1.5300000000000001E-002   -0.17248114123970237     
   1.5600000000000003E-002   -0.23550827438293054     
   1.5899999999999997E-002   -0.31588315236571940     
   1.6199999999999999E-002   -0.41629807022827292     
   1.6500000000000001E-002   -0.53908962310331943     
   1.6800000000000002E-002   -0.68587763752912245     
   1.7100000000000004E-002   -0.85722357130082560     
   1.7400000000000006E-002    -1.0522699884354618     
   1.7700000000000000E-002    -1.2683109650331037     
   1.8000000000000002E-002    -1.5002601215096958     
   1.8300000000000004E-002    -1.7404252384067807     
   1.8600000000000005E-002    -1.9784545488065275     
   1.8900000000000000E-002    -2.2014462775556796     
   1.9200000000000002E-002    -2.3942961400010399     
   1.9500000000000003E-002    -2.5402981949163013     
   1.9799999999999998E-002    -2.6222280303492149     
   2.0100000000000000E-002    -2.6235392517174998     
   2.0400000000000001E-002    -2.5299302205445855     
   2.0700000000000003E-002    -2.3306264576326372     
   2.0999999999999998E-002    -2.0201647324780252     
   2.1299999999999999E-002    -1.5992744224821558     
   2.1600000000000001E-002    -1.0761872172867335     
   2.1900000000000003E-002   -0.46624213795863723     
   2.2200000000000004E-002    0.20814004146492304     
   2.2500000000000006E-002    0.91876440285269956     
   2.2800000000000001E-002     1.6337536451198136     
   2.3100000000000002E-002     2.3197636837457303     
   2.3400000000000004E-002     2.9448787078685665     
   2.3699999999999999E-002     3.4813792520674349     
   2.4000000000000000E-002     3.9089238872684726     
   2.4300000000000002E-002     4.2157098249518619     
   2.4599999999999997E-002     4.4007325410449010     
   2.4900000000000005E-002     4.4733659874526364     
   2.5200000000000000E-002     4.4528193219054195     
   2.5499999999999995E-002     4.3660422098586062     
   2.5800000000000003E-002     4.2452035153908838     
   2.6099999999999998E-002     4.1240208401301643     
   2.6400000000000007E-002     4.0340168877430562     
   2.6700000000000002E-002     4.0009304297842343     
   2.6999999999999996E-002     4.0414695883095524     
   2.7300000000000005E-002     4.1609789313999510     
   2.7600000000000000E-002     4.3519305518866895     
   2.7900000000000008E-002     4.5941776390210389     
   2.8200000000000003E-002     4.8548400367325488     
   2.8499999999999998E-002     5.0920263078133008     
   2.8800000000000006E-002     5.2557746558329423     
   2.9100000000000001E-002     5.2939401304290250     
   2.9400000000000003E-002     5.1543637270262197     
   2.9700000000000004E-002     4.7904757142786956     
   3.0000000000000006E-002     4.1656450856917857     
   3.0300000000000001E-002     3.2557499541725630     
   3.0600000000000002E-002     2.0558875704382351     
   3.0900000000000004E-002    0.57928514629538208     
   3.1199999999999999E-002    -1.1358570286624388     
   3.1500000000000007E-002    -3.0301531193380615     
   3.1800000000000002E-002    -5.0192932676984654     
   3.2099999999999997E-002    -6.9985500152190090     
   3.2400000000000005E-002    -8.8464798272606391     
   3.2700000000000000E-002    -10.429605168180782     
   3.3000000000000002E-002    -11.612533999564365     
   3.3300000000000003E-002    -12.266450782405677     
   3.3599999999999998E-002    -12.280398452153813     
   3.3900000000000000E-002    -11.574604296744633     
   3.4200000000000001E-002    -10.109243666658008     
   3.4500000000000003E-002    -7.8970318397418566     
   3.4799999999999998E-002    -5.0083662701805629     
   3.5099999999999999E-002    -1.5746140965387734     
   3.5400000000000001E-002     2.2135252801266043     
   3.5699999999999996E-002     6.1156809249676254     
   3.6000000000000004E-002     9.8524529205547964     
   3.6299999999999999E-002     13.127766712878881     
   3.6600000000000008E-002     15.647860902124973     
   3.6900000000000002E-002     17.149302606427003     
   3.7199999999999997E-002     17.420846185095584     
   3.7500000000000006E-002     16.328309618309714     
   3.7800000000000000E-002     13.829364464850444     
   3.8100000000000009E-002     9.9858907212363288     
   3.8400000000000004E-002     4.9631891989022607     
   3.8699999999999998E-002   -0.97339158235343692     
   3.9000000000000007E-002    -7.4793501718441462     
   3.9300000000000002E-002    -14.151531240449120     
   3.9600000000000003E-002    -20.557946447325456     
   3.9900000000000005E-002    -26.273283911239481     
   4.0200000000000000E-002    -30.906195151675156     
   4.0500000000000001E-002    -34.136096087691435     
   4.0800000000000003E-002    -35.730502368263913     
   4.1100000000000005E-002    -35.567716079084818     
   4.1399999999999999E-002    -33.640517061917635     
   4.1700000000000008E-002    -30.055851153728369     
   4.2000000000000003E-002    -25.026214206294760     
   4.2299999999999997E-002    -18.846547214536663     
   4.2600000000000006E-002    -11.876892819384505     
   4.2900000000000001E-002    -4.5080368258654424     
   4.3200000000000002E-002     2.8621080173888833     
   4.3500000000000004E-002     9.8579808199423979     
   4.3799999999999999E-002     16.150684898144867     
   4.4100000000000000E-002     21.473783280516059     
   4.4400000000000002E-002     25.640233691507081     
   4.4700000000000004E-002     28.543783124997930     
   4.4999999999999998E-002     30.162916928786409     
   4.5300000000000000E-002     30.549516909708593     
   4.5600000000000002E-002     29.822315007684111     
   4.5899999999999996E-002     28.149546905173583     
   4.6200000000000005E-002     25.731650197990664     
   4.6500000000000000E-002     22.786423272749861     
   4.6799999999999994E-002     19.530113662958186     
   4.7100000000000003E-002     16.164704553834738     
   4.7399999999999998E-002     12.864642632224532     
   4.7700000000000006E-002     9.7695731506054582     
   4.8000000000000001E-002     6.9802972272281103     
   4.8300000000000010E-002     4.5551023622906914     
   4.8600000000000004E-002     2.5150595089549945     
   4.8899999999999999E-002    0.84766225025823938     
   4.9200000000000008E-002   -0.48856740966138212     
   4.9500000000000002E-002    -1.5508200186947398     
   4.9800000000000011E-002    -2.4094429532712613     
   5.0100000000000006E-002    -3.1346301325639438     
   5.0400000000000000E-002    -3.7915717216097153     
   5.0700000000000009E-002    -4.4348782556030049     
   5.1000000000000004E-002    -5.1008450689822382     
   5.1299999999999998E-002    -5.8109215302421866     
   5.1600000000000007E-002    -6.5642961930213897     
   5.1900000000000002E-002    -7.3461060314208808     
   5.2200000000000010E-002    -8.1240744274865300     
   5.2500000000000005E-002    -8.8578645702783341     
   5.2800000000000000E-002    -9.4996722108340066     
   5.3099999999999994E-002    -10.001126223265905     
   5.3400000000000003E-002    -10.318053444112884     
   5.3699999999999998E-002    -10.413841459464372     
   5.4000000000000006E-002    -10.263074718638894     
   5.4300000000000001E-002    -9.8548053435148262     
   5.4599999999999996E-002    -9.1927535789088850     
   5.4900000000000004E-002    -8.2956301293514620     
   5.5199999999999999E-002    -7.1971558473890518     
   5.5499999999999994E-002    -5.9420842015651649     
   5.5800000000000002E-002    -4.5861083922347490     
   5.6099999999999997E-002    -3.1888049128169875     
   5.6400000000000006E-002    -1.8135583074330208     
   5.6700000000000000E-002   -0.52027120265570104     
   5.6999999999999995E-002    0.63682393538649651     
   5.7300000000000004E-002     1.6133404960946360     
   5.7599999999999998E-002     2.3780089730026686     
   5.7900000000000007E-002     2.9134043179872231     
   5.8200000000000002E-002     3.2186917766042447     
   5.8499999999999996E-002     3.3072292649004469     
   5.8800000000000005E-002     3.2071425283003290     
   5.9100000000000000E-002     2.9571156671480034     
   5.9400000000000008E-002     2.6039160205748848     
   5.9700000000000003E-002     2.1975069889569765     
   6.0000000000000012E-002     1.7879440191728611     
   6.0300000000000006E-002     1.4199373908215203     
   6.0600000000000001E-002     1.1314754943540080     
   6.0900000000000010E-002    0.94799740139687305     
   6.1200000000000004E-002    0.88488892963864652     
   6.1500000000000013E-002    0.94362971134111273     
   6.1800000000000008E-002     1.1137008400960891     
   6.2100000000000002E-002     1.3756847519894158     
   6.2399999999999997E-002     1.7003171977064158     
   6.2700000000000006E-002     2.0555190833327748     
   6.3000000000000000E-002     2.4046215136936708     
   6.3300000000000009E-002     2.7151032604659942     
   6.3600000000000004E-002     2.9546611213005822     
   6.3899999999999998E-002     3.0983718789454522     
   6.4199999999999993E-002     3.1296480193942675     
   6.4500000000000002E-002     3.0373006655871384     
   6.4800000000000010E-002     2.8219070840877043     
   6.5100000000000005E-002     2.4906751569861703     
   6.5400000000000000E-002     2.0594062067766199     
   6.5700000000000008E-002     1.5504122480662357     
   6.5999999999999989E-002    0.99141787632976031     
   6.6299999999999998E-002    0.41309012472089734     
   6.6600000000000006E-002   -0.15263321738739977     
   6.6900000000000001E-002   -0.67495271125002365     
   6.7199999999999996E-002    -1.1264156890886896     
   6.7500000000000004E-002    -1.4845312444437155     
   6.7800000000000013E-002    -1.7339836464464764     
   6.8099999999999994E-002    -1.8673318333692657     
   6.8400000000000002E-002    -1.8854710836991679     
   6.8700000000000011E-002    -1.7968083755749957     
   6.8999999999999992E-002    -1.6183593675051351     
   6.9300000000000000E-002    -1.3709340865942032     
   6.9600000000000009E-002    -1.0798622003057128     
   6.9900000000000004E-002   -0.77245931168113036     
   7.0199999999999999E-002   -0.47411626358016046     
   7.0500000000000007E-002   -0.20807947492022671     
   7.0800000000000016E-002     7.1537652079818465E-003
   7.1099999999999997E-002    0.15802300853954918     
   7.1400000000000005E-002    0.23778110826642523     
   7.1700000000000000E-002    0.24500587365640397     
   7.1999999999999995E-002    0.18394855319735545     
   7.2300000000000003E-002     6.3437963129664432E-002
   7.2600000000000012E-002   -0.10484757486848624     
   7.2900000000000006E-002   -0.30622444196939153     
   7.3200000000000001E-002   -0.52548845530391675     
   7.3499999999999996E-002   -0.74689711531433089     
   7.3800000000000004E-002   -0.95523811795727342     
   7.4099999999999999E-002    -1.1366490761431507     
   7.4400000000000008E-002    -1.2775907852288975     
   7.4700000000000003E-002    -1.3677061991078916     
   7.5000000000000011E-002    -1.3973891359585970     
   7.5299999999999992E-002    -1.3606879264099347     
   7.5600000000000001E-002    -1.2535192739149537     
   7.5900000000000009E-002    -1.0758837428568400     
   7.6200000000000004E-002   -0.83267905672663656     
   7.6499999999999999E-002   -0.53167973049614892     
   7.6800000000000007E-002   -0.18704782190322278     
   7.7099999999999988E-002    0.18390552954319295     
   7.7399999999999997E-002    0.55954888410406611     
   7.7700000000000005E-002    0.91552508553964729     
   7.8000000000000014E-002     1.2279290125545297     
   7.8299999999999995E-002     1.4726852699772219     
   7.8600000000000003E-002     1.6302862411522570     
   7.8900000000000012E-002     1.6865556950080700     
   7.9199999999999993E-002     1.6341413128786693     
   7.9500000000000001E-002     1.4749208202771626     
   7.9800000000000010E-002     1.2191707821980713     
   8.0100000000000018E-002    0.88481851260236599     
   8.0399999999999999E-002    0.49810695459463095     
   8.0700000000000008E-002     8.7972562707530538E-002
   8.1000000000000003E-002   -0.31265026427391773     
   8.1299999999999997E-002   -0.67344775175497784     
   8.1600000000000006E-002   -0.96751693529759386     
   8.1900000000000014E-002    -1.1735500190941424     
   8.2199999999999995E-002    -1.2802092821562334     
   8.2500000000000004E-002    -1.2824739999282155     
   8.2799999999999999E-002    -1.1867424968487261     
   8.3100000000000007E-002    -1.0057827291641663     
   8.3400000000000002E-002   -0.75864543393455897     
   8.3700000000000011E-002   -0.46941312342267549     
   8.4000000000000005E-002   -0.16206406689533859     
   8.4300000000000000E-002    0.13903791546605121     
   8.4599999999999995E-002    0.41393081611521210     
   8.4900000000000003E-002    0.64463619195059141     
   8.5199999999999998E-002    0.82093075197384247     
   8.5500000000000007E-002    0.93710423165899737     
   8.5800000000000001E-002    0.99180303754314658     
   8.6100000000000010E-002    0.98935336020626885     
   8.6399999999999991E-002    0.93694440515590760     
   8.6699999999999999E-002    0.84344359823696535     
   8.7000000000000008E-002    0.72013052253894516     
   8.7300000000000003E-002    0.57699496262670391     
   8.7599999999999997E-002    0.42576385713868042     
   8.7900000000000006E-002    0.27467703256492870     
   8.8200000000000014E-002    0.13243232766071072     
   8.8499999999999995E-002     6.6234355985684001E-003
   8.8800000000000004E-002    -9.9719432483488121E-002
   8.9100000000000013E-002   -0.18154069742674425     
   8.9399999999999993E-002   -0.23902954976659585     
   8.9700000000000002E-002   -0.27196449710943116     
   9.0000000000000011E-002   -0.28330343693437160     
   9.0299999999999991E-002   -0.27729361111730921     
   9.0600000000000000E-002   -0.25845488909069791     
   9.0900000000000009E-002   -0.23413001235472181     
   9.1200000000000017E-002   -0.20907196042959320     
   9.1499999999999998E-002   -0.19016171700766293     
   9.1800000000000007E-002   -0.18081992099349495     
   9.2100000000000001E-002   -0.18449589472742195     
   9.2399999999999996E-002   -0.20257778428373660     
   9.2700000000000005E-002   -0.23275187175647818     
   9.3000000000000013E-002   -0.27350654172065370     
   9.3300000000000008E-002   -0.31923472985004014     
   9.3600000000000003E-002   -0.36520759373494893     
   9.3899999999999997E-002   -0.40648652848898470     
   9.4200000000000006E-002   -0.43653984882084484     
   9.4500000000000001E-002   -0.45252811848278235     
   9.4800000000000009E-002   -0.45060511758121646     
   9.5100000000000004E-002   -0.42950242633733976     
   9.5399999999999999E-002   -0.38995752635919445     
   9.5699999999999993E-002   -0.33308695097424201     
   9.6000000000000002E-002   -0.26219748268369603     
   9.6300000000000011E-002   -0.18061557064543343     
   9.6600000000000005E-002    -9.3040555573688233E-002
   9.6900000000000000E-002    -3.3032383779224989E-003
   9.7200000000000009E-002     8.3475763640775524E-002
   9.7499999999999989E-002    0.16467257341067076     
   9.7799999999999998E-002    0.23568384004990073     
   9.8100000000000007E-002    0.29524911784258584     
   9.8400000000000015E-002    0.34122945852014491     
   9.8699999999999996E-002    0.37250513699195420     
   9.9000000000000005E-002    0.38999179840591852     
   9.9300000000000013E-002    0.39380506658801356     
   9.9599999999999994E-002    0.38618887210406516     
   9.9900000000000003E-002    0.36960163966945087     
  0.10020000000000001         0.34707732763228383     
  0.10049999999999999         0.32147342812060764     
  0.10080000000000000         0.29679993289117690     
  0.10110000000000001         0.27624947764342633     
  0.10140000000000000         0.26216901085427846     
  0.10170000000000000         0.25782217625993575     
  0.10200000000000001         0.26276456120031477     
  0.10230000000000002         0.27887648235250961     
  0.10260000000000000         0.30390631536440260     
  0.10290000000000001         0.33643934176851870     
  0.10320000000000000         0.37314012552715203     
  0.10350000000000001         0.40955213887323599     
  0.10380000000000000         0.44172581950274142     
  0.10410000000000001         0.46411882045722441     
  0.10440000000000001         0.47207398806946488     
  0.10470000000000000         0.46148075460464411     
  0.10500000000000000         0.42815027223075042     
  0.10530000000000000         0.37061408485155928     
  0.10560000000000000         0.28709942140939104     
  0.10590000000000001         0.17870813739912134     
  0.10620000000000000          4.7835225747633395E-002
  0.10650000000000001        -0.10148690138116406     
  0.10679999999999999        -0.26366706473895363     
  0.10710000000000000        -0.43171233250157454     
  0.10740000000000001        -0.59816919234720578     
  0.10770000000000000        -0.75415248502439425     
  0.10800000000000000        -0.89249741112186920     
  0.10830000000000001         -1.0046933346506735     
  0.10859999999999999         -1.0851520600628204     
  0.10890000000000000         -1.1283804463842233     
  0.10920000000000001         -1.1316766498335080     
  0.10950000000000001         -1.0947538544240139     
  0.10979999999999999         -1.0177306110482123     
  0.11009999999999999        -0.90595955876376277     
  0.11040000000000001        -0.76366743927658154     
  0.11070000000000001        -0.59866712867946636     
  0.11100000000000000        -0.41905144272242145     
  0.11130000000000000        -0.23422242160170642     
  0.11160000000000002         -5.3012129997977331E-002
  0.11190000000000001         0.11586297649459137     
  0.11220000000000001         0.26385054253006396     
  0.11250000000000000         0.38572452213835318     
  0.11280000000000000         0.47466500181781912     
  0.11309999999999999         0.52919323145720487     
  0.11340000000000001         0.54658166498479699     
  0.11369999999999998         0.52821385962161327     
  0.11400000000000000         0.47644617698362945     
  0.11430000000000000         0.39462032654799656     
  0.11460000000000002         0.28970246272245659     
  0.11489999999999999         0.16655976488805957     
  0.11520000000000001          3.4711477703260579E-002
  0.11550000000000001         -9.9283232570227128E-002
  0.11580000000000000        -0.22575653296040626     
  0.11609999999999999        -0.33838556000700293     
  0.11640000000000002        -0.42864241514081569     
  0.11670000000000001        -0.49205091362692943     
  0.11700000000000001        -0.52394810881507337     
  0.11730000000000000        -0.52200303737575737     
  0.11760000000000000        -0.48683008100835568     
  0.11789999999999999        -0.41964655564705328     
  0.11820000000000001        -0.32530438405356921     
  0.11850000000000001        -0.20867769028343200     
  0.11880000000000000         -7.7214806173352829E-002
  0.11910000000000000          6.1976700855042116E-002
  0.11940000000000002         0.20137643097226998     
  0.11970000000000001         0.33341125665998833     
  0.12000000000000001         0.45190824175739175     
  0.12030000000000000         0.55103011890177633     
  0.12060000000000000         0.62842233610222142     
  0.12089999999999999         0.67996065014557250     
  0.12119999999999999         0.70724332337674389     
  0.12150000000000001         0.70884636852263483     
  0.12180000000000001         0.68972735549158426     
  0.12210000000000000         0.65090710518462291     
  0.12239999999999999         0.59880614616176375     
  0.12270000000000002         0.53669361828615603     
  0.12300000000000001         0.47088842210434567     
  0.12330000000000001         0.40598429246352974     
  0.12360000000000000         0.34597190137613837     
  0.12390000000000000         0.29553752417529933     
  0.12419999999999999         0.25585156473724535     
  0.12450000000000001         0.22931948341228139     
  0.12480000000000001         0.21503308887021766     
  0.12509999999999999         0.21110713076054705     
  0.12540000000000001         0.21534644611844972     
  0.12570000000000003         0.22358246251023969     
  0.12600000000000000         0.23212409962965072     
  0.12630000000000002         0.23622398896777780     
  0.12659999999999999         0.23338522310196838     
  0.12690000000000001         0.21937485960662839     
  0.12719999999999998         0.19479129481734053     
  0.12750000000000000         0.15718990253630827     
  0.12780000000000002         0.10987939226032395     
  0.12809999999999999          5.3103982082249993E-002
  0.12840000000000001         -8.0679608938602349E-003
  0.12869999999999998         -7.2192167926025647E-002
  0.12900000000000000        -0.13366709496941342     
  0.12930000000000003        -0.19045003541819228     
  0.12959999999999999        -0.23883891379814370     
  0.12990000000000002        -0.27692032558400659     
  0.13019999999999998        -0.30336931922766874     
  0.13050000000000000        -0.31681831302696839     
  0.13080000000000003        -0.31842886670976100     
  0.13109999999999999        -0.30751439336912684     
  0.13140000000000002        -0.28597544547201226     
  0.13169999999999998        -0.25569997547721457     
  0.13200000000000001        -0.21698761157960061     
  0.13229999999999997        -0.17411043851614810     
  0.13260000000000000        -0.12717159286310012     
  0.13290000000000002         -7.9823655796477683E-002
  0.13319999999999999         -3.2941843763048942E-002
  0.13350000000000001          1.0322604681649902E-002
  0.13380000000000003          4.9340477958052048E-002
  0.13410000000000000          8.1728726324345635E-002
  0.13440000000000002         0.10778211157519532     
  0.13469999999999999         0.12572091203612223     
  0.13500000000000001         0.13688761007385838     
  0.13529999999999998         0.14027660514856380     
  0.13560000000000000         0.13724291659033150     
  0.13590000000000002         0.12791475233027594     
  0.13619999999999999         0.11352063415564595     
  0.13650000000000001          9.4472245898036267E-002
  0.13680000000000003          7.1624175038965662E-002
  0.13710000000000000          4.5756907433003396E-002
  0.13740000000000002          1.7365531088533507E-002
  0.13769999999999999         -1.2405229100347992E-002
  0.13800000000000001         -4.2285012069392773E-002
  0.13829999999999998         -7.2499422683067277E-002
  0.13860000000000000         -9.9178048751828007E-002
  0.13890000000000002        -0.12413426108060888     
  0.13919999999999999        -0.14320678340385473     
  0.13950000000000001        -0.15757116257280929     
  0.13979999999999998        -0.16507282517242888     
  0.14010000000000000        -0.16610320098155823     
  0.14040000000000002        -0.16108726239339788     
  0.14069999999999999        -0.15047438069227434     
  0.14100000000000001        -0.13593239210581554     
  0.14130000000000004        -0.11946880837334251     
  0.14160000000000000        -0.10187073323831514     
  0.14189999999999997         -8.7114271591785974E-002
  0.14219999999999999         -7.4933721925066255E-002
  0.14250000000000002         -6.8360952083867305E-002
  0.14279999999999998         -6.7653855053567261E-002
  0.14310000000000000         -7.4120075601276841E-002
  0.14339999999999997         -8.6958020560483962E-002
  0.14369999999999999        -0.10682950714807091     
  0.14400000000000002        -0.13182734501052892     
  0.14429999999999998        -0.16184264913500240     
  0.14460000000000001        -0.19415004255090920     
  0.14490000000000003        -0.22844099150837455     
  0.14520000000000000        -0.26137273314460935     
  0.14550000000000002        -0.29312391525356429     
  0.14579999999999999        -0.31927833515801174     
  0.14610000000000001        -0.34076860351787719     
  0.14640000000000003        -0.35459958455809276     
  0.14670000000000000        -0.36042816760911994     
  0.14699999999999996        -0.35798953220410445     
  0.14729999999999999        -0.34663558810968287     
  0.14760000000000001        -0.32718737695690159     
  0.14789999999999998        -0.30099567468484906     
  0.14820000000000000        -0.26836214402283237     