  -1.4999999999999999E-002     0.0000000000000000     
  -1.4700000000000000E-002     0.0000000000000000     
  -1.4400000000000000E-002     0.0000000000000000     
  -1.4100000000000000E-002     0.0000000000000000     
  -1.3800000000000000E-002     0.0000000000000000     
  -1.3500000000000000E-002     0.0000000000000000     
  -1.3200000000000000E-002     0.0000000000000000     
  -1.2899999999999998E-002     0.0000000000000000     
  -1.2600000000000000E-002    -1.0777414247848635E-035
  -1.2299999999999998E-002     3.2200232000015200E-034
  -1.2000000000000000E-002    -9.8218671222489130E-034
  -1.1699999999999999E-002    -7.0294092746691375E-032
  -1.1399999999999999E-002     4.8418365989044073E-031
  -1.1099999999999999E-002     2.9385041207916457E-030
  -1.0799999999999999E-002    -3.3765833817260846E-029
  -1.0499999999999999E-002     1.1791925092055036E-029
  -1.0199999999999999E-002     6.9851763105308372E-028
  -9.8999999999999991E-003    -1.3738472708609764E-027
  -9.5999999999999992E-003    -6.6597772953499385E-027
  -9.2999999999999992E-003     1.6550526434096958E-026
  -8.9999999999999993E-003     5.4675841730644549E-026
  -8.6999999999999994E-003    -1.2847621532989116E-025
  -8.3999999999999995E-003    -4.0185514487583540E-025
  -8.0999999999999996E-003     7.7577980765895087E-025
  -7.7999999999999988E-003     2.1912014184523356E-024
  -7.4999999999999997E-003    -2.4089824129411280E-024
  -7.1999999999999998E-003    -1.0851110020347587E-023
  -6.8999999999999981E-003    -1.3823865628338115E-025
  -6.5999999999999982E-003     4.0659057434896007E-023
  -6.3000000000000000E-003     6.6685326096591118E-023
  -6.0000000000000001E-003    -1.1750284283249243E-022
  -5.6999999999999985E-003    -4.8360746627421878E-022
  -5.3999999999999986E-003     2.1551267550092939E-022
  -5.1000000000000004E-003     1.9407735795226936E-021
  -4.7999999999999987E-003     3.9381113984402513E-022
  -4.5000000000000005E-003    -4.8241823901123048E-021
  -4.1999999999999989E-003    -4.4544822517342716E-021
  -3.8999999999999990E-003     9.5686871752804195E-022
  -3.5999999999999990E-003     2.2782391623457972E-020
  -3.2999999999999991E-003     4.2849286875871592E-020
  -2.9999999999999992E-003    -7.0689211290214083E-020
  -2.6999999999999993E-003    -1.9697571250498902E-019
  -2.3999999999999994E-003     1.4096547047109229E-019
  -2.0999999999999977E-003     3.8580322304103496E-019
  -1.7999999999999995E-003     4.2910187913820187E-020
  -1.4999999999999979E-003     1.3099548861575621E-019
  -1.1999999999999997E-003    -1.6245992525621819E-018
  -8.9999999999999976E-004    -2.6379973188681528E-018
  -5.9999999999999810E-004     5.2918774246468998E-018
  -2.9999999999999992E-004     8.0449093172736081E-018
   0.0000000000000000         -8.0635811647681871E-018
   3.0000000000000165E-004    -7.6190147921383205E-018
   5.9999999999999984E-004    -9.5226225570145516E-018
   9.0000000000000149E-004    -2.1506930721123106E-017
   1.2000000000000031E-003     8.5624314677318035E-017
   1.5000000000000013E-003     7.3191390485230804E-017
   1.8000000000000030E-003    -1.7020246769934765E-016
   2.1000000000000012E-003    -6.6764091372177448E-017
   2.3999999999999994E-003    -5.2023999787993139E-017
   2.7000000000000010E-003    -1.2182866556603279E-016
   2.9999999999999992E-003     1.1361666029480139E-015
   3.3000000000000008E-003     1.9259168766347055E-016
   3.6000000000000025E-003    -2.6586778046953826E-015
   3.9000000000000007E-003     1.1741978871320376E-015
   4.2000000000000023E-003     4.9860522892978170E-016
   4.5000000000000005E-003    -4.6917600383103605E-015
   4.7999999999999987E-003     1.2434007470948552E-014
   5.1000000000000004E-003     5.8152312597870038E-015
   5.4000000000000020E-003    -3.4280807420662791E-014
   5.7000000000000037E-003     7.8112033343263907E-015
   5.9999999999999984E-003     3.3953818869881430E-014
   6.3000000000000000E-003    -4.2604864173197988E-014
   6.6000000000000017E-003     4.2118742268589191E-014
   6.9000000000000034E-003     6.1347157600318188E-014
   7.2000000000000015E-003    -1.7637195321562712E-013
   7.5000000000000032E-003     2.4399012092449061E-014
   7.8000000000000014E-003     1.3912271999058356E-013
   8.0999999999999996E-003    -2.2607831232654725E-013
   8.4000000000000012E-003     4.3846021141706993E-013
   8.7000000000000029E-003     2.2131328277668594E-013
   9.0000000000000011E-003    -1.4913114066570628E-012
   9.2999999999999992E-003     7.1409338144576571E-013
   9.6000000000000009E-003     1.7198281803271608E-012
   9.8999999999999991E-003    -3.0141094236523572E-012
   1.0200000000000001E-002     1.1633373704808103E-012
   1.0500000000000002E-002     5.3756630112814380E-012
   1.0800000000000004E-002    -7.9856670355555275E-012
   1.1099999999999999E-002    -4.0338653438672787E-012
   1.1400000000000000E-002     1.4936731107409886E-011
   1.1700000000000002E-002    -5.3106589996529635E-012
   1.2000000000000004E-002    -1.3386927842114640E-011
   1.2300000000000002E-002     2.2848940176835207E-011
   1.2600000000000000E-002    -7.4857199399711565E-012
   1.2900000000000002E-002    -3.8175498539738222E-011
   1.3200000000000000E-002     6.5389746210872561E-011
   1.3500000000000002E-002     1.3064080924726915E-011
   1.3800000000000003E-002    -1.9733270851228031E-010
   1.4100000000000001E-002     1.5333600025876575E-010
   1.4400000000000000E-002     4.1525132185940407E-010
   1.4700000000000001E-002    -4.8318308611241738E-010
   1.4999999999999999E-002    -6.0359927350589782E-010
   1.5300000000000001E-002    -3.8182259113754952E-010
   1.5600000000000003E-002     1.3257134626573252E-009
   1.5899999999999997E-002     1.0403144206519232E-008
   1.6199999999999999E-002    -9.1744321026833429E-009
   1.6500000000000001E-002    -6.1138729076966203E-008
   1.6800000000000002E-002     4.7992218333993582E-008
   1.7100000000000004E-002     2.5059044330259833E-007
   1.7400000000000006E-002    -1.9431307418804659E-007
   1.7700000000000000E-002    -9.4502556139458387E-007
   1.8000000000000002E-002     1.0797881552048631E-006
   1.8300000000000004E-002     8.5798944974297875E-006
   1.8600000000000005E-002     2.0113497663933635E-005
   1.8900000000000000E-002     3.2640187954186875E-005
   1.9200000000000002E-002     4.5164201682001540E-005
   1.9500000000000003E-002     5.7595625504262230E-005
   1.9799999999999998E-002     7.1751891454122758E-005
   2.0100000000000000E-002     9.6705597070039233E-005
   2.0400000000000001E-002     1.4688030635311337E-004
   2.0700000000000003E-002     2.2982671090917116E-004
   2.0999999999999998E-002     3.3895308888247112E-004
   2.1299999999999999E-002     4.6358330531404363E-004
   2.1600000000000001E-002     6.0712885094576184E-004
   2.1900000000000003E-002     7.9046016145507120E-004
   2.2200000000000004E-002     1.0288521621437108E-003
   2.2500000000000006E-002     1.3021336440869843E-003
   2.2800000000000001E-002     1.5535079723604376E-003
   2.3100000000000002E-002     1.7147433729169954E-003
   2.3400000000000004E-002     1.7079225634473133E-003
   2.3699999999999999E-002     1.4086258709740580E-003
   2.4000000000000000E-002     6.1245001090461126E-004
   2.4300000000000002E-002    -9.7675149603248688E-004
   2.4599999999999997E-002    -3.7524114901987642E-003
   2.4900000000000005E-002    -8.2080528762140930E-003
   2.5200000000000000E-002    -1.4948258451254597E-002
   2.5499999999999995E-002    -2.4714514615679369E-002
   2.5800000000000003E-002    -3.8383476159044479E-002
   2.6099999999999998E-002    -5.6920453062595203E-002
   2.6400000000000007E-002    -8.1331513663360555E-002
   2.6700000000000002E-002   -0.11261772174532146     
   2.6999999999999996E-002   -0.15168274579858113     
   2.7300000000000005E-002   -0.19919517017222887     
   2.7600000000000000E-002   -0.25547398419682754     
   2.7900000000000008E-002   -0.32037913037819460     
   2.8200000000000003E-002   -0.39321265308569869     
   2.8499999999999998E-002   -0.47257607519508482     
   2.8800000000000006E-002   -0.55630073644627098     
   2.9100000000000001E-002   -0.64142729674809140     
   2.9400000000000003E-002   -0.72428616270629098     
   2.9700000000000004E-002   -0.80056649321615747     
   3.0000000000000006E-002   -0.86557924186664115     
   3.0300000000000001E-002   -0.91443680678243244     
   3.0600000000000002E-002   -0.94248608797282563     
   3.0900000000000004E-002   -0.94551472469960807     
   3.1199999999999999E-002   -0.92024888270491578     
   3.1500000000000007E-002   -0.86446160005583406     
   3.1800000000000002E-002   -0.77741783970130529     
   3.2099999999999997E-002   -0.65982950338499347     
   3.2400000000000005E-002   -0.51398806501958183     
   3.2700000000000000E-002   -0.34356875603105591     
   3.3000000000000002E-002   -0.15357098112444473     
   3.3300000000000003E-002     5.0122639201449493E-002
   3.3599999999999998E-002    0.26098423827854794     
   3.3900000000000000E-002    0.47229788752641433     
   3.4200000000000001E-002    0.67735935255753277     
   3.4500000000000003E-002    0.86991539502052162     
   3.4799999999999998E-002     1.0441691089734990     
   3.5099999999999999E-002     1.1950952966852024     
   3.5400000000000001E-002     1.3186091040743879     
   3.5699999999999996E-002     1.4114340164092818     
   3.6000000000000004E-002     1.4714805553959112     
   3.6299999999999999E-002     1.4974487434410937     
   3.6600000000000008E-002     1.4894741089361070     
   3.6900000000000002E-002     1.4489014509306217     
   3.7199999999999997E-002     1.3785979432964239     
   3.7500000000000006E-002     1.2829363210325331     
   3.7800000000000000E-002     1.1678041540164068     
   3.8100000000000009E-002     1.0406049633463317     
   3.8400000000000004E-002    0.90970833589164668     
   3.8699999999999998E-002    0.78405264494964411     
   3.9000000000000007E-002    0.67249856770364935     
   3.9300000000000002E-002    0.58283079420278139     
   3.9600000000000003E-002    0.52121793758752155     
   3.9900000000000005E-002    0.49130318861621269     
   4.0200000000000000E-002    0.49356022508882602     
   4.0500000000000001E-002    0.52523164083095719     
   4.0800000000000003E-002    0.58019362701370247     
   4.1100000000000005E-002    0.64971779076655012     
   4.1399999999999999E-002    0.72316704861311742     
   4.1700000000000008E-002    0.78945775462657775     
   4.2000000000000003E-002    0.83806417729041449     
   4.2299999999999997E-002    0.86093403962820036     
   4.2600000000000006E-002    0.85325426624433665     
   4.2900000000000001E-002    0.81460423371482527     
   4.3200000000000002E-002    0.74957900967283009     
   4.3500000000000004E-002    0.66677669735247658     
   4.3799999999999999E-002    0.57893804066753796     
   4.4100000000000000E-002    0.50058884170982088     
   4.4400000000000002E-002    0.44675404378090927     
   4.4700000000000004E-002    0.43045146191035372     
   4.4999999999999998E-002    0.46077383574438630     
   4.5300000000000000E-002    0.54076107050946209     
   4.5600000000000002E-002    0.66588235111841809     
   4.5899999999999996E-002    0.82397715579917019     
   4.6200000000000005E-002    0.99435566827892585     
   4.6500000000000000E-002     1.1502100412162952     
   4.6799999999999994E-002     1.2595746130929926     
   4.7100000000000003E-002     1.2887176405114702     
   4.7399999999999998E-002     1.2051238577218215     
   4.7700000000000006E-002    0.98083264714427165     
   4.8000000000000001E-002    0.59600356880475058     
   4.8300000000000010E-002     4.1183299681930657E-002
   4.8600000000000004E-002   -0.68011080184719641     
   4.8899999999999999E-002    -1.5511336908712767     
   4.9200000000000008E-002    -2.5409602818284167     
   4.9500000000000002E-002    -3.6069750877764584     
   4.9800000000000011E-002    -4.6961567827242696     
   5.0100000000000006E-002    -5.7487974795827954     
   5.0400000000000000E-002    -6.7018459466888185     
   5.0700000000000009E-002    -7.4936671355756745     
   5.1000000000000004E-002    -8.0671499909488382     
   5.1299999999999998E-002    -8.3752827365496465     
   5.1600000000000007E-002    -8.3827323411787393     
   5.1900000000000002E-002    -8.0704701585261596     
   5.2200000000000010E-002    -7.4360834228963650     
   5.2500000000000005E-002    -6.4954565802291784     
   5.2800000000000000E-002    -5.2821984492206884     
   5.3099999999999994E-002    -3.8460306610331223     
   5.3400000000000003E-002    -2.2507411920620597     
   5.3699999999999998E-002   -0.56975768021843420     
   5.4000000000000006E-002     1.1173368413922249     
   5.4300000000000001E-002     2.7309577408328418     
   5.4599999999999996E-002     4.1949782303953143     
   5.4900000000000004E-002     5.4436510833068628     
   5.5199999999999999E-002     6.4248398350284139     
   5.5499999999999994E-002     7.1031713832496397     
   5.5800000000000002E-002     7.4642741599549067     
   5.6099999999999997E-002     7.5131675729381717     
   5.6400000000000006E-002     7.2754108282379901     
   5.6700000000000000E-002     6.7935950464998012     
   5.6999999999999995E-002     6.1236436419930342     
   5.7300000000000004E-002     5.3308560372831844     
   5.7599999999999998E-002     4.4832729355873937     
   5.7900000000000007E-002     3.6477486084942026     
   5.8200000000000002E-002     2.8830384052163125     
   5.8499999999999996E-002     2.2367495550204479     
   5.8800000000000005E-002     1.7415492391382279     
   5.9100000000000000E-002     1.4136901456502766     
   5.9400000000000008E-002     1.2525999991117620     
   5.9700000000000003E-002     1.2421536359892533     
   6.0000000000000012E-002     1.3521161192893245     
   6.0300000000000006E-002     1.5433533223318194     
   6.0600000000000001E-002     1.7688590428801261     
   6.0900000000000010E-002     1.9811709494412368     
   6.1200000000000004E-002     2.1326920816905162     
   6.1500000000000013E-002     2.1830033460704334     
   6.1800000000000008E-002     2.0977485153985755     
   6.2100000000000002E-002     1.8545024884176011     
   6.2399999999999997E-002     1.4409561074872697     
   6.2700000000000006E-002    0.85658972951299750     
   6.3000000000000000E-002    0.11282720887212982     
   6.3300000000000009E-002   -0.77073601365337219     
   6.3600000000000004E-002    -1.7635910528877159     
   6.3899999999999998E-002    -2.8310205363413576     
   6.4199999999999993E-002    -3.9313372891052536     
   6.4500000000000002E-002    -5.0204345406368294     
   6.4800000000000010E-002    -6.0520461175429876     
   6.5100000000000005E-002    -6.9782459640510641     
   6.5400000000000000E-002    -7.7519088785783445     
   6.5700000000000008E-002    -8.3256612958269507     
   6.5999999999999989E-002    -8.6539652628222239     
   6.6299999999999998E-002    -8.6945499716975352     
   6.6600000000000006E-002    -8.4097833580192773     
   6.6900000000000001E-002    -7.7705337695917809     
   6.7199999999999996E-002    -6.7588449620381787     
   6.7500000000000004E-002    -5.3738195082400821     
   6.7800000000000013E-002    -3.6349039237087588     
   6.8099999999999994E-002    -1.5870509715354326     
   6.8400000000000002E-002    0.69641893193791615     
   6.8700000000000011E-002     3.1126381054161776     
   6.8999999999999992E-002     5.5310248154684576     
   6.9300000000000000E-002     7.7980426103197047     
   6.9600000000000009E-002     9.7464604719523855     
   6.9900000000000004E-002     11.204566703765854     
   7.0199999999999999E-002     12.015374725771000     
   7.0500000000000007E-002     12.045553029918398     
   7.0800000000000016E-002     11.208559555997088     
   7.1099999999999997E-002     9.4701245089191186     
   7.1400000000000005E-002     6.8641518433327953     
   7.1700000000000000E-002     3.4927363025133928     
   7.1999999999999995E-002   -0.47382998434134205     
   7.2300000000000003E-002    -4.8057022432965422     
   7.2600000000000012E-002    -9.2303654172451353     
   7.2900000000000006E-002    -13.447729588331651     
   7.3200000000000001E-002    -17.160608645100815     
   7.3499999999999996E-002    -20.091021775254347     
   7.3800000000000004E-002    -22.008619594631501     
   7.4099999999999999E-002    -22.747295192084934     
   7.4400000000000008E-002    -22.217688570594902     
   7.4700000000000003E-002    -20.417400360541812     
   7.5000000000000011E-002    -17.424368144629860     
   7.5299999999999992E-002    -13.396334230423630     
   7.5600000000000001E-002    -8.5480260037861218     
   7.5900000000000009E-002    -3.1426522835585633     
   7.6200000000000004E-002     2.5388479388412204     
   7.6499999999999999E-002     8.2092825933377807     
   7.6800000000000007E-002     13.602578633385601     
   7.7099999999999988E-002     18.482372776727122     
   7.7399999999999997E-002     22.658988923600820     
   7.7700000000000005E-002     25.991229998805402     
   7.8000000000000014E-002     28.390982492144083     
   7.8299999999999995E-002     29.819014667027574     
   7.8600000000000003E-002     30.279430998355444     
   7.8900000000000012E-002     29.813305430984904     
   7.9199999999999993E-002     28.488606676010747     
   7.9500000000000001E-002     26.394979714464647     
   7.9800000000000010E-002     23.633793647806741     
   8.0100000000000018E-002     20.317348331920677     
   8.0399999999999999E-002     16.560081376973635     
   8.0700000000000008E-002     12.480911880277660     
   8.1000000000000003E-002     8.1979649934987737     
   8.1299999999999997E-002     3.8286276873029959     
   8.1600000000000006E-002   -0.50879723862704829     
   8.1900000000000014E-002    -4.7044789852774329     
   8.2199999999999995E-002    -8.6487370549472669     
   8.2500000000000004E-002    -12.245075155110223     
   8.2799999999999999E-002    -15.405630007829966     
   8.3100000000000007E-002    -18.059368991862993     
   8.3400000000000002E-002    -20.151351664350543     
   8.3700000000000011E-002    -21.646779074810219     
   8.4000000000000005E-002    -22.533775965423619     
   8.4300000000000000E-002    -22.817094016200439     
   8.4599999999999995E-002    -22.528834863047301     
   8.4900000000000003E-002    -21.712950913901647     
   8.5199999999999998E-002    -20.435577689869909     
   8.5500000000000007E-002    -18.771343002677206     
   8.5800000000000001E-002    -16.806228235663511     
   8.6100000000000010E-002    -14.630387672975658     
   8.6399999999999991E-002    -12.333870803286198     
   8.6699999999999999E-002    -10.004233101090080     
   8.7000000000000008E-002    -7.7195410898901393     
   8.7300000000000003E-002    -5.5487764953229455     
   8.7599999999999997E-002    -3.5445971758702095     
   8.7900000000000006E-002    -1.7448879407244928     
   8.8200000000000014E-002   -0.17220897464532281     
   8.8499999999999995E-002     1.1722110131239236     
   8.8800000000000004E-002     2.2954422115394815     
   8.9100000000000013E-002     3.2250022915085879     
   8.9399999999999993E-002     3.9894467035736625     
   8.9700000000000002E-002     4.6307272328954738     
   9.0000000000000011E-002     5.1848443206948582     
   9.0299999999999991E-002     5.6895845517186112     
   9.0600000000000000E-002     6.1734076917784808     
   9.0900000000000009E-002     6.6554054018876876     
   9.1200000000000017E-002     7.1451732234224341     
   9.1499999999999998E-002     7.6384917851233523     
   9.1800000000000007E-002     8.1223258025046761     
   9.2100000000000001E-002     8.5732065384416831     
   9.2399999999999996E-002     8.9616225617624057     
   9.2700000000000005E-002     9.2556730492320902     
   9.3000000000000013E-002     9.4220595609185853     
   9.3300000000000008E-002     9.4329051155638588     
   9.3600000000000003E-002     9.2643652171553974     
   9.3899999999999997E-002     8.9038788590001410     
   9.4200000000000006E-002     8.3460799580807432     
   9.4500000000000001E-002     7.5994566393059202     
   9.4800000000000009E-002     6.6807038930680038     
   9.5100000000000004E-002     5.6187212602571250     
   9.5399999999999999E-002     4.4491572432848647     
   9.5699999999999993E-002     3.2154963254231186     
   9.6000000000000002E-002     1.9644878912539081     
   9.6300000000000011E-002    0.74381554979024944     
   9.6600000000000005E-002   -0.39992755581946260     
   9.6900000000000000E-002    -1.4250096539897723     
   9.7200000000000009E-002    -2.2968848714431136     
   9.7499999999999989E-002    -2.9910316208976058     
   9.7799999999999998E-002    -3.4916540437212462     
   9.8100000000000007E-002    -3.7981259060455956     
   9.8400000000000015E-002    -3.9175107082624212     
   9.8699999999999996E-002    -3.8724207761637017     
   9.9000000000000005E-002    -3.6906593497073490     
   9.9300000000000013E-002    -3.4109292810330198     
   9.9599999999999994E-002    -3.0731916879202479     
   9.9900000000000003E-002    -2.7214609987007923     
  0.10020000000000001         -2.3950097155724488     
  0.10049999999999999         -2.1314854017366436     
  0.10080000000000000         -1.9569144807200800     
  0.10110000000000001         -1.8908399320459992     
  0.10140000000000000         -1.9402984690702088     
  0.10170000000000000         -2.1008098029718552     
  0.10200000000000001         -2.3569338407713722     
  0.10230000000000002         -2.6839824335583562     
  0.10260000000000000         -3.0483487710523409     
  0.10290000000000001         -3.4122720226334109     
  0.10320000000000000         -3.7344105146197437     
  0.10350000000000001         -3.9762465495092547     
  0.10380000000000000         -4.1008991507082841     
  0.10410000000000001         -4.0811158830734691     
  0.10440000000000001         -3.8969990488771771     
  0.10470000000000000         -3.5426491273591094     
  0.10500000000000000         -3.0213132710652943     
  0.10530000000000000         -2.3525665071467934     
  0.10560000000000000         -1.5641865036975631     
  0.10590000000000001        -0.69658246529286916     
  0.10620000000000000         0.20425939152990230     
  0.10650000000000001          1.0877296263389222     
  0.10679999999999999          1.9031958012236547     
  0.10710000000000000          2.6044935934863749     
  0.10740000000000001          3.1523289468090585     
  0.10770000000000000          3.5182109670852215     
  0.10800000000000000          3.6877071034050344     
  0.10830000000000001          3.6602125880319831     
  0.10859999999999999          3.4501061273222184     
  0.10890000000000000          3.0855511867693748     
  0.10920000000000001          2.6050408684344450     
  0.10950000000000001          2.0563944138899597     
  0.10979999999999999          1.4891942220952514     
  0.11009999999999999         0.95398292968026999     
  0.11040000000000001         0.49481866298584032     
  0.11070000000000001         0.14850066386167943     
  0.11100000000000000         -6.2624695441408390E-002
  0.11130000000000000        -0.12699904701259337     
  0.11160000000000002         -4.9730383969025946E-002
  0.11190000000000001         0.15095375525600166     
  0.11220000000000001         0.44707076021250830     
  0.11250000000000000         0.79952890899964613     
  0.11280000000000000          1.1667094844967740     
  0.11309999999999999          1.5061750250039390     
  0.11340000000000001          1.7769406025290206     
  0.11369999999999998          1.9480650297353872     
  0.11400000000000000          1.9944643797204580     
  0.11430000000000000          1.9060625097212158     
  0.11460000000000002          1.6809551152364099     
  0.11489999999999999          1.3327742138009113     
  0.11520000000000001         0.87979477798517225     
  0.11550000000000001         0.35391087204307325     
  0.11580000000000000        -0.21231226955823945     
  0.11609999999999999        -0.78197497265055849     
  0.11640000000000002         -1.3180561545396294     
  0.11670000000000001         -1.7886673640384152     
  0.11700000000000001         -2.1647957196112459     
  0.11730000000000000         -2.4258197090426257     
  0.11760000000000000         -2.5575140320038550     
  0.11789999999999999         -2.5550049669698023     
  0.11820000000000001         -2.4209748035293392     
  0.11850000000000001         -2.1656925131146449     
  0.11880000000000000         -1.8077444448324647     
  0.11910000000000000         -1.3684068590429748     
  0.11940000000000002        -0.87735179507168559     
  0.11970000000000001        -0.36338212878860432     
  0.12000000000000001         0.14200554038956292     
  0.12030000000000000         0.60785181379170039     
  0.12060000000000000          1.0076877669339956     
  0.12089999999999999          1.3171532195459725     
  0.12119999999999999          1.5194308850690110     
  0.12150000000000001          1.6031715703552467     
  0.12180000000000001          1.5656770484693241     
  0.12210000000000000          1.4112478700836002     
  0.12239999999999999          1.1521886629799556     
  0.12270000000000002         0.80750037738917335     
  0.12300000000000001         0.40053496357279661     
  0.12330000000000001         -3.9282299692327605E-002
  0.12360000000000000        -0.48397106940920009     
  0.12390000000000000        -0.90226117247257009     
  0.12419999999999999         -1.2669924986779590     
  0.12450000000000001         -1.5548185973362654     
  0.12480000000000001         -1.7466811976845888     
  0.12509999999999999         -1.8315923475918583     
  0.12540000000000001         -1.8040282236225111     
  0.12570000000000003         -1.6678430954010928     
  0.12600000000000000         -1.4318195514611880     
  0.12630000000000002         -1.1134414042091654     
  0.12659999999999999        -0.73269744680463811     
  0.12690000000000001        -0.31557906785950945     
  0.12719999999999998         0.11186793453190066     
  0.12750000000000000         0.52247942347817578     
  0.12780000000000002         0.89186036428638649     
  0.12809999999999999          1.1973742133294103     
  0.12840000000000001          1.4236763365336844     
  0.12869999999999998          1.5590329650101737     
  0.12900000000000000          1.5987715859006215     
  0.12930000000000003          1.5457584860483538     
  0.12959999999999999          1.4069650421606261     
  0.12990000000000002          1.1968435858306039     
  0.13019999999999998         0.93205990272917383     
  0.13050000000000000         0.63395070548539234     
  0.13080000000000003         0.32331189598077775     
  0.13109999999999999          2.2054459209129545E-002
  0.13140000000000002        -0.25046606313211373     
  0.13169999999999998        -0.47818398236322623     
  0.13200000000000001        -0.64771900996682641     
  0.13229999999999997        -0.75259227664002359     
  0.13260000000000000        -0.78924890866118047     
  0.13290000000000002        -0.76027723399190528     
  0.13319999999999999        -0.67285583557596496     
  0.13350000000000001        -0.53637073701714277     
  0.13380000000000003        -0.36588637496146009     
  0.13410000000000000        -0.17515911829600472     
  0.13440000000000002          1.8584923504851691E-002
  0.13469999999999999         0.20080203575099248     
  0.13500000000000001         0.35719518701369857     
  0.13529999999999998         0.47559492260724978     
  0.13560000000000000         0.54858563633644930     
  0.13590000000000002         0.56943031014762913     
  0.13619999999999999         0.53921789670824516     
  0.13650000000000001         0.45866183452950082     
  0.13680000000000003         0.33596311024497660     
  0.13710000000000000         0.17930710767884389     
  0.13740000000000002          1.7405423385403601E-003
  0.13769999999999999        -0.18308435873997414     
  0.13800000000000001        -0.36137268967866465     
  0.13829999999999998        -0.51751413013621816     
  0.13860000000000000        -0.64058395606848184     
  0.13890000000000002        -0.71895907556185223     
  0.13919999999999999        -0.74641876486481940     
  0.13950000000000001        -0.71897797117967721     
  0.13979999999999998        -0.63824892113351073     
  0.14010000000000000        -0.50876549858989317     
  0.14040000000000002        -0.33922920945488605     
  0.14069999999999999        -0.14188342278631288     
  0.14100000000000001          6.9608005343227308E-002
  0.14130000000000004         0.28005765158537504     
  0.14160000000000000         0.47449857367755427     
  0.14189999999999997         0.63935905981917185     
  0.14219999999999999         0.76309603739152476     
  0.14250000000000002         0.83710302444303952     
  0.14279999999999998         0.85724037760980010     
  0.14310000000000000         0.82194896046902299     
  0.14339999999999997         0.73491320089636192     
  0.14369999999999999         0.60215261343881687     
  0.14400000000000002         0.43352427206558575     
  0.14429999999999998         0.24086977086975159     
  0.14460000000000001          3.7826160032553999E-002
  0.14490000000000003        -0.16226924841035889     
  0.14520000000000000        -0.34515525789858664     
  0.14550000000000002        -0.49965325514421899     
  0.14579999999999999        -0.61432649671183814     
  0.14610000000000001        -0.68374431196931051     
  0.14640000000000003        -0.70203316689976625     
  0.14670000000000000        -0.67126476713107674     
  0.14699999999999996        -0.59291183623005983     
  0.14729999999999999        -0.47570583895070684     
  0.14760000000000001        -0.32828755362135842     
  0.14789999999999998        -0.16261224614784958     
  0.14820000000000000          7.1640436092297241E-003