  -1.4999999999999999E-002     0.0000000000000000     
  -1.4700000000000000E-002     0.0000000000000000     
  -1.4400000000000000E-002     0.0000000000000000     
  -1.4100000000000000E-002     0.0000000000000000     
  -1.3800000000000000E-002     0.0000000000000000     
  -1.3500000000000000E-002     0.0000000000000000     
  -1.3200000000000000E-002     0.0000000000000000     
  -1.2899999999999998E-002     0.0000000000000000     
  -1.2600000000000000E-002    -4.4490309248712335E-049
  -1.2299999999999998E-002    -4.7902609314862310E-036
  -1.2000000000000000E-002    -2.6614863804567891E-034
  -1.1699999999999999E-002     4.5755685029414059E-033
  -1.1399999999999999E-002    -1.2388229969864313E-032
  -1.1099999999999999E-002    -3.1626958341830379E-031
  -1.0799999999999999E-002     1.8765002187933926E-030
  -1.0499999999999999E-002     5.8807668850880408E-030
  -1.0199999999999999E-002    -6.1289836609175278E-029
  -9.8999999999999991E-003     1.6522989152103209E-030
  -9.5999999999999992E-003     8.3573955589244311E-028
  -9.2999999999999992E-003    -6.1689502535430983E-028
  -8.9999999999999993E-003    -7.4299492670464219E-027
  -8.6999999999999994E-003     4.6702606644430335E-027
  -8.3999999999999995E-003     5.8237089549155932E-026
  -8.0999999999999996E-003    -2.5098710112994446E-026
  -7.7999999999999988E-003    -3.4362229470847495E-025
  -7.4999999999999997E-003     6.4879375613820665E-027
  -7.1999999999999998E-003     1.4938293106509230E-024
  -6.8999999999999981E-003     1.2826517998464841E-024
  -6.5999999999999982E-003    -4.6672290344113703E-024
  -6.3000000000000000E-003    -1.1641263238235204E-023
  -6.0000000000000001E-003     3.3230410164125555E-024
  -5.6999999999999985E-003     6.9858515040388154E-023
  -5.3999999999999986E-003     4.9910135812001032E-023
  -5.1000000000000004E-003    -2.7187451021127343E-022
  -4.7999999999999987E-003    -3.5622820534314305E-022
  -4.5000000000000005E-003     6.2417564461844665E-022
  -4.1999999999999989E-003     1.3623857666080658E-021
  -3.8999999999999990E-003     1.0272127992631198E-022
  -3.5999999999999990E-003    -2.8084466837421496E-021
  -3.2999999999999991E-003    -8.9636075554122257E-021
  -2.9999999999999992E-003     1.0627695575320380E-021
  -2.6999999999999993E-003     4.3361439105882538E-020
  -2.3999999999999994E-003     1.5688630252973738E-020
  -2.0999999999999977E-003    -1.1030234573610174E-019
  -1.7999999999999995E-003    -4.7046937712627631E-020
  -1.4999999999999979E-003     3.5426978603556945E-020
  -1.1999999999999997E-003     8.7188701027138193E-020
  -8.9999999999999976E-004     8.0997720810659962E-019
  -5.9999999999999810E-004    -1.5892065794594380E-019
  -2.9999999999999992E-004    -3.2051885119866301E-018
   0.0000000000000000          1.6527906857013424E-019
   3.0000000000000165E-004     6.1029140683434254E-018
   5.9999999999999984E-004    -1.5181528879007341E-018
   9.0000000000000149E-004     2.1292232078624235E-018
   1.2000000000000031E-003     5.8014107583710132E-018
   1.5000000000000013E-003    -5.0665024619135842E-017
   1.8000000000000030E-003    -1.9813870320168010E-018
   2.1000000000000012E-003     1.4869329087395440E-016
   2.3999999999999994E-003    -5.1051360413500426E-017
   2.7000000000000010E-003    -1.5633924607441852E-016
   2.9999999999999992E-003     2.1138822474499252E-016
   3.3000000000000008E-003    -3.9165642971358353E-016
   3.6000000000000025E-003    -3.0609358623436621E-016
   3.9000000000000007E-003     1.8686016892261749E-015
   4.2000000000000023E-003    -3.9281741593932973E-016
   4.5000000000000005E-003    -2.7573424431693673E-015
   4.7999999999999987E-003     2.3336575242570676E-015
   5.1000000000000004E-003    -1.7260313098493934E-015
   5.4000000000000020E-003    -2.9331610893383914E-015
   5.7000000000000037E-003     1.4538693339866940E-014
   5.9999999999999984E-003    -4.8112615963013189E-015
   6.3000000000000000E-003    -2.0316121862154634E-014
   6.6000000000000017E-003     2.0591061726792744E-014
   6.9000000000000034E-003    -2.3444588510484715E-014
   7.2000000000000015E-003    -5.9706379389442863E-015
   7.5000000000000032E-003     1.3024939822305699E-013
   7.8000000000000014E-003    -1.2069964253288350E-013
   8.0999999999999996E-003    -1.4359091262554904E-013
   8.4000000000000012E-003     3.6772569416410020E-013
   8.7000000000000029E-003    -3.2501944561796128E-013
   9.0000000000000011E-003    -4.0884766587887638E-013
   9.2999999999999992E-003     1.5225251279654496E-012
   9.6000000000000009E-003    -5.6553504236347656E-013
   9.8999999999999991E-003    -2.6123914443083354E-012
   1.0200000000000001E-002     3.3216236486362528E-012
   1.0500000000000002E-002     9.7834373242252103E-013
   1.0800000000000004E-002    -7.0552548556309741E-012
   1.1099999999999999E-002     6.5339148210165732E-012
   1.1400000000000000E-002     7.5622168039574997E-012
   1.1700000000000002E-002    -1.9474535200816436E-011
   1.2000000000000004E-002     2.8657829256131698E-012
   1.2300000000000002E-002     2.8455802275364023E-011
   1.2600000000000000E-002    -3.0708846787935703E-011
   1.2900000000000002E-002    -1.3309320354835379E-011
   1.3200000000000000E-002     6.8810244389833231E-011
   1.3500000000000002E-002    -4.8712874267485133E-011
   1.3800000000000003E-002    -7.9511677084011911E-011
   1.4100000000000001E-002     1.5432047898246149E-010
   1.4400000000000000E-002     1.1781599507927639E-011
   1.4700000000000001E-002    -2.3424813364409134E-010
   1.4999999999999999E-002     3.6260659435122086E-012
   1.5300000000000001E-002     3.2435215284557088E-010
   1.5600000000000003E-002     9.2711758627278208E-010
   1.5899999999999997E-002    -1.9051152623293188E-009
   1.6199999999999999E-002    -5.0843856998760717E-009
   1.6500000000000001E-002     1.2791305425062813E-008
   1.6800000000000002E-002     1.4638926882710318E-008
   1.7100000000000004E-002    -6.1291852566860359E-008
   1.7400000000000006E-002    -2.5353705046563808E-008
   1.7700000000000000E-002     2.3700045893981494E-007
   1.8000000000000002E-002    -2.5725627871851580E-009
   1.8300000000000004E-002    -9.3560058474262384E-007
   1.8600000000000005E-002     4.0904689484118449E-007
   1.8900000000000000E-002     8.0541476836115925E-006
   1.9200000000000002E-002     2.1350491648810165E-005
   1.9500000000000003E-002     3.5511878705127960E-005
   1.9799999999999998E-002     4.8459194117847466E-005
   2.0100000000000000E-002     6.2824335421759222E-005
   2.0400000000000001E-002     8.2880905300100488E-005
   2.0700000000000003E-002     1.1556957060643030E-004
   2.0999999999999998E-002     1.7173249041453484E-004
   2.1299999999999999E-002     2.5993169155368078E-004
   2.1600000000000001E-002     3.8167202380911505E-004
   2.1900000000000003E-002     5.3473159837593429E-004
   2.2200000000000004E-002     7.1798112852482969E-004
   2.2500000000000006E-002     9.3835567975738957E-004
   2.2800000000000001E-002     1.2142147048424287E-003
   2.3100000000000002E-002     1.5521818845964815E-003
   2.3400000000000004E-002     1.9181138860106151E-003
   2.3699999999999999E-002     2.2494073240778649E-003
   2.4000000000000000E-002     2.4669032722478995E-003
   2.4300000000000002E-002     2.4294617739010101E-003
   2.4599999999999997E-002     1.9133707691018408E-003
   2.4900000000000005E-002     6.5514594889761520E-004
   2.5200000000000000E-002    -1.6727602331740152E-003
   2.5499999999999995E-002    -5.5517367686346662E-003
   2.5800000000000003E-002    -1.1616154485666167E-002
   2.6099999999999998E-002    -2.0590396425887825E-002
   2.6400000000000007E-002    -3.3265903300154984E-002
   2.6700000000000002E-002    -5.0460285980850873E-002
   2.6999999999999996E-002    -7.2939305820344177E-002
   2.7300000000000005E-002   -0.10135637873041126     
   2.7600000000000000E-002   -0.13613422084601132     
   2.7900000000000008E-002   -0.17723837323002509     
   2.8200000000000003E-002   -0.22396720726541633     
   2.8499999999999998E-002   -0.27481716600003536     
   2.8800000000000006E-002   -0.32733100327297637     
   2.9100000000000001E-002   -0.37789335469003710     
   2.9400000000000003E-002   -0.42165100151528340     
   2.9700000000000004E-002   -0.45256655953263514     
   3.0000000000000006E-002   -0.46362939010850729     
   3.0300000000000001E-002   -0.44709965139883046     
   3.0600000000000002E-002   -0.39497711865236673     
   3.0900000000000004E-002   -0.29971787048474646     
   3.1199999999999999E-002   -0.15506403022887735     
   3.1500000000000007E-002     4.3154179113057016E-002
   3.1800000000000002E-002    0.29605513438968489     
   3.2099999999999997E-002    0.60076313500613276     
   3.2400000000000005E-002    0.94978462551499510     
   3.2700000000000000E-002     1.3305544701130811     
   3.3000000000000002E-002     1.7252888483588515     
   3.3300000000000003E-002     2.1115054845309107     
   3.3599999999999998E-002     2.4629168232678826     
   3.3900000000000000E-002     2.7506873298387005     
   3.4200000000000001E-002     2.9453637269663964     
   3.4500000000000003E-002     3.0192258020711877     
   3.4799999999999998E-002     2.9487285286604541     
   3.5099999999999999E-002     2.7165548501980674     
   3.5400000000000001E-002     2.3144592987086434     
   3.5699999999999996E-002     1.7445913368668431     
   3.6000000000000004E-002     1.0203890700015905     
   3.6299999999999999E-002    0.16744095070971632     
   3.6600000000000008E-002   -0.77779482715706516     
   3.6900000000000002E-002    -1.7696310060019418     
   3.7199999999999997E-002    -2.7553200387358334     
   3.7500000000000006E-002    -3.6789650477487807     
   3.7800000000000000E-002    -4.4852523273513523     
   3.8100000000000009E-002    -5.1230453843730794     
   3.8400000000000004E-002    -5.5498403855470926     
   3.8699999999999998E-002    -5.7347497274750294     
   3.9000000000000007E-002    -5.6609968485374011     
   3.9300000000000002E-002    -5.3276399953861961     
   3.9600000000000003E-002    -4.7497324400772056     
   3.9900000000000005E-002    -3.9571334866134844     
   4.0200000000000000E-002    -2.9928576609429545     
   4.0500000000000001E-002    -1.9097330359533613     
   4.0800000000000003E-002   -0.76656632825583626     
   4.1100000000000005E-002    0.37547474572070516     
   4.1399999999999999E-002     1.4574194968984648     
   4.1700000000000008E-002     2.4259679028661205     
   4.2000000000000003E-002     3.2364413355694852     
   4.2299999999999997E-002     3.8556370280773349     
   4.2600000000000006E-002     4.2624663804163747     
   4.2900000000000001E-002     4.4490160416833229     
   4.3200000000000002E-002     4.4197983218191323     
   4.3500000000000004E-002     4.1906356312543123     
   4.3799999999999999E-002     3.7869977497646743     
   4.4100000000000000E-002     3.2417854872087783     
   4.4400000000000002E-002     2.5929805916928439     
   4.4700000000000004E-002     1.8818051585155844     
   4.4999999999999998E-002     1.1494775869579199     
   4.5300000000000000E-002    0.43583741259811010     
   4.5600000000000002E-002   -0.22266307140899669     
   4.5899999999999996E-002   -0.79544417957719626     
   4.6200000000000005E-002    -1.2583617990867277     
   4.6500000000000000E-002    -1.5952363981519140     
   4.6799999999999994E-002    -1.7995813827293374     
   4.7100000000000003E-002    -1.8734732592029895     
   4.7399999999999998E-002    -1.8284496985721119     
   4.7700000000000006E-002    -1.6854819992697185     
   4.8000000000000001E-002    -1.4719377526152961     
   4.8300000000000010E-002    -1.2209707305814421     
   4.8600000000000004E-002   -0.96912615011829628     
   4.8899999999999999E-002   -0.75190560978046594     
   4.9200000000000008E-002   -0.60231798256199442     
   4.9500000000000002E-002   -0.54686134762874461     
   4.9800000000000011E-002   -0.60215890329416000     
   5.0100000000000006E-002   -0.77402216184341299     
   5.0400000000000000E-002    -1.0556129209097267     
   5.0700000000000009E-002    -1.4266778199849472     
   5.1000000000000004E-002    -1.8560190134263190     
   5.1299999999999998E-002    -2.3027310260805214     
   5.1600000000000007E-002    -2.7199435074094120     
   5.1900000000000002E-002    -3.0588130741325203     
   5.2200000000000010E-002    -3.2728512034834809     
   5.2500000000000005E-002    -3.3222152902627302     
   5.2800000000000000E-002    -3.1780094799827001     
   5.3099999999999994E-002    -2.8246552647235772     
   5.3400000000000003E-002    -2.2617828573498233     
   5.3699999999999998E-002    -1.5050169003198681     
   5.4000000000000006E-002   -0.58428649500000984     
   5.4300000000000001E-002    0.45758030555201606     
   5.4599999999999996E-002     1.5692925428025772     
   5.4900000000000004E-002     2.6944663390969352     
   5.5199999999999999E-002     3.7760560265652048     
   5.5499999999999994E-002     4.7611465095984569     
   5.5800000000000002E-002     5.6040257945390541     
   5.6099999999999997E-002     6.2694787422259797     
   5.6400000000000006E-002     6.7345418295420751     
   5.6700000000000000E-002     6.9893092414062785     
   5.6999999999999995E-002     7.0356744983096009     
   5.7300000000000004E-002     6.8871106344962234     
   5.7599999999999998E-002     6.5647653777167152     
   5.7900000000000007E-002     6.0960010745093962     
   5.8200000000000002E-002     5.5108188883604123     
   5.8499999999999996E-002     4.8393463444083391     
   5.8800000000000005E-002     4.1096076388460139     
   5.9100000000000000E-002     3.3463725546134278     
   5.9400000000000008E-002     2.5701605865899375     
   5.9700000000000003E-002     1.7958535835363245     
   6.0000000000000012E-002     1.0363523746804124     
   6.0300000000000006E-002    0.30190574007653204     
   6.0600000000000001E-002   -0.39934387919243297     
   6.0900000000000010E-002    -1.0585158979586247     
   6.1200000000000004E-002    -1.6650941197977733     
   6.1500000000000013E-002    -2.2083453878645463     
   6.1800000000000008E-002    -2.6750683464047866     
   6.2100000000000002E-002    -3.0516066176914949     
   6.2399999999999997E-002    -3.3263926095211076     
   6.2700000000000006E-002    -3.4893896151089279     
   6.3000000000000000E-002    -3.5352413223693415     
   6.3300000000000009E-002    -3.4655603949108129     
   6.3600000000000004E-002    -3.2880937672303800     
   6.3899999999999998E-002    -3.0182256362569237     
   6.4199999999999993E-002    -2.6784214692435357     
   6.4500000000000002E-002    -2.2961985843726027     
   6.4800000000000010E-002    -1.9019526082384206     
   6.5100000000000005E-002    -1.5270217552564587     
   6.5400000000000000E-002    -1.1996660177100595     
   6.5700000000000008E-002   -0.94403892577891013     
   6.5999999999999989E-002   -0.77719700404247616     
   6.6299999999999998E-002   -0.70957118452237722     
   6.6600000000000006E-002   -0.74425006064854227     
   6.6900000000000001E-002   -0.87925833433789469     
   6.7199999999999996E-002    -1.1092604368003649     
   6.7500000000000004E-002    -1.4274290727147783     
   6.7800000000000013E-002    -1.8290279976448796     
   6.8099999999999994E-002    -2.3116428659631727     
   6.8400000000000002E-002    -2.8739757263299963     
   6.8700000000000011E-002    -3.5173077210406909     
   6.8999999999999992E-002    -4.2394136893659233     
   6.9300000000000000E-002    -5.0299743980109559     
   6.9600000000000009E-002    -5.8681010419119213     
   6.9900000000000004E-002    -6.7140459067105862     
   7.0199999999999999E-002    -7.5082796883532525     
   7.0500000000000007E-002    -8.1701716094085306     
   7.0800000000000016E-002    -8.5994614138407037     
   7.1099999999999997E-002    -8.6836107659376403     
   7.1400000000000005E-002    -8.3089474117674396     
   7.1700000000000000E-002    -7.3718846798342401     
   7.1999999999999995E-002    -5.7959440905496562     
   7.2300000000000003E-002    -3.5449530166154735     
   7.2600000000000012E-002   -0.63896681237981856     
   7.2900000000000006E-002     2.8401746645437065     
   7.3200000000000001E-002     6.7432460020573437     
   7.3499999999999996E-002     10.857358784107044     
   7.3800000000000004E-002     14.919024246272347     
   7.4099999999999999E-002     18.630460449430466     
   7.4400000000000008E-002     21.684394488105401     
   7.4700000000000003E-002     23.790771093357083     
   7.5000000000000011E-002     24.703025404516758     
   7.5299999999999992E-002     24.245549743815420     
   7.5600000000000001E-002     22.332183453877185     
   7.5900000000000009E-002     18.977300313453433     
   7.6200000000000004E-002     14.302563414253264     
   7.6499999999999999E-002     8.5284164782098131     
   7.6800000000000007E-002     1.9603318735180106     
   7.7099999999999988E-002    -5.0340241620261210     
   7.7399999999999997E-002    -12.051896851939546     
   7.7700000000000005E-002    -18.685512232149339     
   7.8000000000000014E-002    -24.551070756648084     
   7.8299999999999995E-002    -29.317204938673811     
   7.8600000000000003E-002    -32.722766329799256     
   7.8900000000000012E-002    -34.593917271079214     
   7.9199999999999993E-002    -34.850055118084313     
   7.9500000000000001E-002    -33.502734587589970     
   7.9800000000000010E-002    -30.650643803419445     
   8.0100000000000018E-002    -26.464980653478502     
   8.0399999999999999E-002    -21.174974106255487     
   8.0700000000000008E-002    -15.052001721094184     
   8.1000000000000003E-002    -8.3889702535670185     
   8.1299999999999997E-002    -1.4847931768832434     
   8.1600000000000006E-002     5.3664134923513949     
   8.1900000000000014E-002     11.896497522152242     
   8.2199999999999995E-002     17.863515557151413     
   8.2500000000000004E-002     23.064014058531225     
   8.2799999999999999E-002     27.339669741473880     
   8.3100000000000007E-002     30.573693742781963     
   8.3400000000000002E-002     32.699695071896407     
   8.3700000000000011E-002     33.699050377339333     
   8.4000000000000005E-002     33.592570738531286     
   8.4300000000000000E-002     32.449985006327623     
   8.4599999999999995E-002     30.374518886544209     
   8.4900000000000003E-002     27.498696866996418     
   8.5199999999999998E-002     23.982040049009640     
   8.5500000000000007E-002     19.994914716075375     
   8.5800000000000001E-002     15.713328136323073     
   8.6100000000000010E-002     11.312622868078266     
   8.6399999999999991E-002     6.9501961772363154     
   8.6699999999999999E-002     2.7677240118605493     
   8.7000000000000008E-002    -1.1184754035019451     
   8.7300000000000003E-002    -4.6246518237122762     
   8.7599999999999997E-002    -7.6921695364087155     
   8.7900000000000006E-002    -10.293857407318431     
   8.8200000000000014E-002    -12.430316728644387     
   8.8499999999999995E-002    -14.120844621905700     
   8.8800000000000004E-002    -15.403752091803677     
   8.9100000000000013E-002    -16.328145735319293     
   8.9399999999999993E-002    -16.947084175238921     
   8.9700000000000002E-002    -17.313441976040096     
   9.0000000000000011E-002    -17.477258428981326     
   9.0299999999999991E-002    -17.476535546440296     
   9.0600000000000000E-002    -17.339526883535456     
   9.0900000000000009E-002    -17.084550617162375     
   9.1200000000000017E-002    -16.714635615459592     
   9.1499999999999998E-002    -16.221780551432492     
   9.1800000000000007E-002    -15.593552374174980     
   9.2100000000000001E-002    -14.807137285631550     
   9.2399999999999996E-002    -13.840192604601835     
   9.2700000000000005E-002    -12.675082033460326     
   9.3000000000000013E-002    -11.296262586948032     
   9.3300000000000008E-002    -9.7000387776117982     
   9.3600000000000003E-002    -7.8979538804593936     
   9.3899999999999997E-002    -5.9084538621524700     
   9.4200000000000006E-002    -3.7707621556363815     
   9.4500000000000001E-002    -1.5358567060443853     
   9.4800000000000009E-002    0.73892067468735867     
   9.5100000000000004E-002     2.9833752655190819     
   9.5399999999999999E-002     5.1263384060740087     
   9.5699999999999993E-002     7.0999754824515371     
   9.6000000000000002E-002     8.8407343542771155     
   9.6300000000000011E-002     10.292269558785540     
   9.6600000000000005E-002     11.416364506356826     
   9.6900000000000000E-002     12.189770525306271     
   9.7200000000000009E-002     12.600488483895278     
   9.7499999999999989E-002     12.659745990914182     
   9.7799999999999998E-002     12.393101518294870     
   9.8100000000000007E-002     11.835829568994814     
   9.8400000000000015E-002     11.039653623951111     
   9.8699999999999996E-002     10.063524107559390     
   9.9000000000000005E-002     8.9650524813235979     
   9.9300000000000013E-002     7.8110216982578375     
   9.9599999999999994E-002     6.6615814273850154     
   9.9900000000000003E-002     5.5663785194512627     
  0.10020000000000001          4.5751017927805746     
  0.10049999999999999          3.7202755940462340     
  0.10080000000000000          3.0176605800732190     
  0.10110000000000001          2.4795384109007035     
  0.10140000000000000          2.0961184260793919     
  0.10170000000000000          1.8434680479679331     
  0.10200000000000001          1.6963851252406028     
  0.10230000000000002          1.6116373348966009     
  0.10260000000000000          1.5440059703277966     
  0.10290000000000001          1.4538113888012660     
  0.10320000000000000          1.2952865195314041     
  0.10350000000000001          1.0328197336925702     
  0.10380000000000000         0.64574354049012084     
  0.10410000000000001         0.11728203138643765     
  0.10440000000000001        -0.55103384709751368     
  0.10470000000000000         -1.3433258345022410     
  0.10500000000000000         -2.2355317759947244     
  0.10530000000000000         -3.1874241385636655     
  0.10560000000000000         -4.1537408248996854     
  0.10590000000000001         -5.0850204716349694     
  0.10620000000000000         -5.9262427458410984     
  0.10650000000000001         -6.6300944362192311     
  0.10679999999999999         -7.1522306407908411     
  0.10710000000000000         -7.4552472989436680     
  0.10740000000000001         -7.5185059466197828     
  0.10770000000000000         -7.3285674044097586     
  0.10800000000000000         -6.8875707635173651     
  0.10830000000000001         -6.2164181817938502     
  0.10859999999999999         -5.3425058598552422     
  0.10890000000000000         -4.3093528169610122     
  0.10920000000000001         -3.1720971649446517     
  0.10950000000000001         -1.9890078062549059     
  0.10979999999999999        -0.82406692864566233     
  0.11009999999999999         0.25593011808451804     
  0.11040000000000001          1.1944446355042349     
  0.11070000000000001          1.9401108909160483     
  0.11100000000000000          2.4523133845920042     
  0.11130000000000000          2.7107772408391564     
  0.11160000000000002          2.7109119485726922     
  0.11190000000000001          2.4649126157758960     
  0.11220000000000001          2.0097620193194898     
  0.11250000000000000          1.3960230160118337     
  0.11280000000000000         0.68387251252233627     
  0.11309999999999999         -5.0061416077230150E-002
  0.11340000000000001        -0.73259548837869792     
  0.11369999999999998         -1.2954106103426946     
  0.11400000000000000         -1.6721324629078009     
  0.11430000000000000         -1.8213582915523217     
  0.11460000000000002         -1.7194944332185809     
  0.11489999999999999         -1.3587920432446348     
  0.11520000000000001        -0.76303552213649495     
  0.11550000000000001          2.5810539907547839E-002
  0.11580000000000000         0.95171253476144291     
  0.11609999999999999          1.9386533203045224     
  0.11640000000000002          2.9091860795297353     
  0.11670000000000001          3.7872073071697030     
  0.11700000000000001          4.4988931923758777     
  0.11730000000000000          4.9877556998375105     
  0.11760000000000000          5.2147444902711344     
  0.11789999999999999          5.1564349372363498     
  0.11820000000000001          4.8159121770878857     
  0.11850000000000001          4.2172159561063509     
  0.11880000000000000          3.3967113038875651     
  0.11910000000000000          2.4106123144625800     
  0.11940000000000002          1.3235005008211718     
  0.11970000000000001         0.20143536071182064     
  0.12000000000000001        -0.88636640824344892     
  0.12030000000000000         -1.8752051260497442     
  0.12060000000000000         -2.7158255136473817     
  0.12089999999999999         -3.3634848076421626     
  0.12119999999999999         -3.7884535217087985     
  0.12150000000000001         -3.9818775073520634     
  0.12180000000000001         -3.9421505370799128     
  0.12210000000000000         -3.6833958112141891     
  0.12239999999999999         -3.2372912928287372     
  0.12270000000000002         -2.6376843116128468     
  0.12300000000000001         -1.9295234443785059     
  0.12330000000000001         -1.1657898309363230     
  0.12360000000000000        -0.39473408388088632     
  0.12390000000000000         0.33422195034402030     
  0.12419999999999999         0.97291592916442604     
  0.12450000000000001          1.4872865431028632     
  0.12480000000000001          1.8470073650997627     
  0.12509999999999999          2.0334598707349065     
  0.12540000000000001          2.0437199767701575     
  0.12570000000000003          1.8835702865429831     
  0.12600000000000000          1.5700822846415550     
  0.12630000000000002          1.1339737025145233     
  0.12659999999999999         0.60882716635394907     
  0.12690000000000001          3.6406797306568678E-002
  0.12719999999999998        -0.53862415832335608     
  0.12750000000000000         -1.0757825208513085     
  0.12780000000000002         -1.5359928379459393     
  0.12809999999999999         -1.8876831257844757     
  0.12840000000000001         -2.1081483063354773     
  0.12869999999999998         -2.1837148359236953     
  0.12900000000000000         -2.1129843896739962     
  0.12930000000000003         -1.9035682419947972     
  0.12959999999999999         -1.5719821240872418     
  0.12990000000000002         -1.1455657334050324     
  0.13019999999999998        -0.65387105139961554     
  0.13050000000000000        -0.13113011300757829     
  0.13080000000000003         0.38563948273941578     
  0.13109999999999999         0.86408160879888429     
  0.13140000000000002          1.2756851742161088     
  0.13169999999999998          1.5936833405794411     
  0.13200000000000001          1.8033441066997991     
  0.13229999999999997          1.8979720829629345     
  0.13260000000000000          1.8744963168584963     
  0.13290000000000002          1.7431913395747081     
  0.13319999999999999          1.5213331998943762     
  0.13350000000000001          1.2262939070122822     
  0.13380000000000003         0.88817345104127277     
  0.13410000000000000         0.53521078408102118     
  0.13440000000000002         0.19117045310423528     
  0.13469999999999999        -0.11284767536210225     
  0.13500000000000001        -0.35391023062241533     
  0.13529999999999998        -0.52099352337645355     
  0.13560000000000000        -0.59736256980877322     
  0.13590000000000002        -0.58163844695926281     
  0.13619999999999999        -0.48263707247160414     
  0.13650000000000001        -0.30557316281548519     
  0.13680000000000003         -6.9356061477519340E-002
  0.13710000000000000         0.19998514104896006     
  0.13740000000000002         0.48588015740873114     
  0.13769999999999999         0.76051079046823622     
  0.13800000000000001         0.99755309375381807     
  0.13829999999999998          1.1827305375610471     
  0.13860000000000000          1.2974223906430375     
  0.13890000000000002          1.3279082576568793     
  0.13919999999999999          1.2754220783514103     
  0.13950000000000001          1.1386055795319721     
  0.13979999999999998         0.92118482490395259     
  0.14010000000000000         0.64083480023847794     
  0.14040000000000002         0.31041761941510537     
  0.14069999999999999         -5.3145064880583105E-002
  0.14100000000000001        -0.42444761903458472     
  0.14130000000000004        -0.78519504073574564     
  0.14160000000000000         -1.1171909416844010     
  0.14189999999999997         -1.3978814883283537     
  0.14219999999999999         -1.6153296009034470     
  0.14250000000000002         -1.7588689093629140     
  0.14279999999999998         -1.8201832528777413     
  0.14310000000000000         -1.7999883653277191     
  0.14339999999999997         -1.7017881653781395     
  0.14369999999999999         -1.5330608888137975     
  0.14400000000000002         -1.3089382487994636     
  0.14429999999999998         -1.0432247991475563     
  0.14460000000000001        -0.75454281904544340     
  0.14490000000000003        -0.46197938464548816     
  0.14520000000000000        -0.18239076308961938     
  0.14550000000000002          6.7040776790177878E-002
  0.14579999999999999         0.27429076573472605     
  0.14610000000000001         0.43115645089493726     
  0.14640000000000003         0.52929007313501519     
  0.14670000000000000         0.57020031685399852     
  0.14699999999999996         0.55858563794480776     
  0.14729999999999999         0.49654757431260249     
  0.14760000000000001         0.39759271929434453     
  0.14789999999999998         0.27443185322101221     
  0.14820000000000000         0.13519333247912477     