  -1.4999999999999999E-002     0.0000000000000000     
  -1.4700000000000000E-002     0.0000000000000000     
  -1.4400000000000000E-002     0.0000000000000000     
  -1.4100000000000000E-002     0.0000000000000000     
  -1.3800000000000000E-002     0.0000000000000000     
  -1.3500000000000000E-002     0.0000000000000000     
  -1.3200000000000000E-002     0.0000000000000000     
  -1.2899999999999998E-002     0.0000000000000000     
  -1.2600000000000000E-002     0.0000000000000000     
  -1.2299999999999998E-002     0.0000000000000000     
  -1.2000000000000000E-002     0.0000000000000000     
  -1.1699999999999999E-002     0.0000000000000000     
  -1.1399999999999999E-002     0.0000000000000000     
  -1.1099999999999999E-002     0.0000000000000000     
  -1.0799999999999999E-002     0.0000000000000000     
  -1.0499999999999999E-002     0.0000000000000000     
  -1.0199999999999999E-002     0.0000000000000000     
  -9.8999999999999991E-003     0.0000000000000000     
  -9.5999999999999992E-003     0.0000000000000000     
  -9.2999999999999992E-003     0.0000000000000000     
  -8.9999999999999993E-003     0.0000000000000000     
  -8.6999999999999994E-003     0.0000000000000000     
  -8.3999999999999995E-003     0.0000000000000000     
  -8.0999999999999996E-003     0.0000000000000000     
  -7.7999999999999988E-003     0.0000000000000000     
  -7.4999999999999997E-003     0.0000000000000000     
  -7.1999999999999998E-003     0.0000000000000000     
  -6.8999999999999981E-003     0.0000000000000000     
  -6.5999999999999982E-003     0.0000000000000000     
  -6.3000000000000000E-003     0.0000000000000000     
  -6.0000000000000001E-003     0.0000000000000000     
  -5.6999999999999985E-003     0.0000000000000000     
  -5.3999999999999986E-003     0.0000000000000000     
  -5.1000000000000004E-003     0.0000000000000000     
  -4.7999999999999987E-003     0.0000000000000000     
  -4.5000000000000005E-003     0.0000000000000000     
  -4.1999999999999989E-003     0.0000000000000000     
  -3.8999999999999990E-003     0.0000000000000000     
  -3.5999999999999990E-003     0.0000000000000000     
  -3.2999999999999991E-003     0.0000000000000000     
  -2.9999999999999992E-003     0.0000000000000000     
  -2.6999999999999993E-003     0.0000000000000000     
  -2.3999999999999994E-003     0.0000000000000000     
  -2.0999999999999977E-003     0.0000000000000000     
  -1.7999999999999995E-003     0.0000000000000000     
  -1.4999999999999979E-003     0.0000000000000000     
  -1.1999999999999997E-003     0.0000000000000000     
  -8.9999999999999976E-004     0.0000000000000000     
  -5.9999999999999810E-004     0.0000000000000000     
  -2.9999999999999992E-004     0.0000000000000000     
   0.0000000000000000          0.0000000000000000     
   3.0000000000000165E-004     0.0000000000000000     
   5.9999999999999984E-004     0.0000000000000000     
   9.0000000000000149E-004     0.0000000000000000     
   1.2000000000000031E-003     0.0000000000000000     
   1.5000000000000013E-003     0.0000000000000000     
   1.8000000000000030E-003     0.0000000000000000     
   2.1000000000000012E-003     0.0000000000000000     
   2.3999999999999994E-003     0.0000000000000000     
   2.7000000000000010E-003     0.0000000000000000     
   2.9999999999999992E-003     0.0000000000000000     
   3.3000000000000008E-003     0.0000000000000000     
   3.6000000000000025E-003     0.0000000000000000     
   3.9000000000000007E-003     0.0000000000000000     
   4.2000000000000023E-003     0.0000000000000000     
   4.5000000000000005E-003     0.0000000000000000     
   4.7999999999999987E-003     0.0000000000000000     
   5.1000000000000004E-003     0.0000000000000000     
   5.4000000000000020E-003     0.0000000000000000     
   5.7000000000000037E-003     0.0000000000000000     
   5.9999999999999984E-003     0.0000000000000000     
   6.3000000000000000E-003     0.0000000000000000     
   6.6000000000000017E-003     0.0000000000000000     
   6.9000000000000034E-003     0.0000000000000000     
   7.2000000000000015E-003     0.0000000000000000     
   7.5000000000000032E-003     0.0000000000000000     
   7.8000000000000014E-003     0.0000000000000000     
   8.0999999999999996E-003     0.0000000000000000     
   8.4000000000000012E-003     0.0000000000000000     
   8.7000000000000029E-003     0.0000000000000000     
   9.0000000000000011E-003     0.0000000000000000     
   9.2999999999999992E-003     0.0000000000000000     
   9.6000000000000009E-003     0.0000000000000000     
   9.8999999999999991E-003     0.0000000000000000     
   1.0200000000000001E-002     0.0000000000000000     
   1.0500000000000002E-002     0.0000000000000000     
   1.0800000000000004E-002     0.0000000000000000     
   1.1099999999999999E-002     0.0000000000000000     
   1.1400000000000000E-002     0.0000000000000000     
   1.1700000000000002E-002     0.0000000000000000     
   1.2000000000000004E-002     0.0000000000000000     
   1.2300000000000002E-002     0.0000000000000000     
   1.2600000000000000E-002     0.0000000000000000     
   1.2900000000000002E-002     0.0000000000000000     
   1.3200000000000000E-002     0.0000000000000000     
   1.3500000000000002E-002     0.0000000000000000     
   1.3800000000000003E-002     0.0000000000000000     
   1.4100000000000001E-002     0.0000000000000000     
   1.4400000000000000E-002     0.0000000000000000     
   1.4700000000000001E-002     0.0000000000000000     
   1.4999999999999999E-002     0.0000000000000000     
   1.5300000000000001E-002     0.0000000000000000     
   1.5600000000000003E-002     0.0000000000000000     
   1.5899999999999997E-002     0.0000000000000000     
   1.6199999999999999E-002     0.0000000000000000     
   1.6500000000000001E-002     0.0000000000000000     
   1.6800000000000002E-002     0.0000000000000000     
   1.7100000000000004E-002     0.0000000000000000     
   1.7400000000000006E-002     0.0000000000000000     
   1.7700000000000000E-002     0.0000000000000000     
   1.8000000000000002E-002     0.0000000000000000     
   1.8300000000000004E-002     0.0000000000000000     
   1.8600000000000005E-002     0.0000000000000000     
   1.8900000000000000E-002     0.0000000000000000     
   1.9200000000000002E-002     0.0000000000000000     
   1.9500000000000003E-002     0.0000000000000000     
   1.9799999999999998E-002     0.0000000000000000     
   2.0100000000000000E-002     0.0000000000000000     
   2.0400000000000001E-002     0.0000000000000000     
   2.0700000000000003E-002     0.0000000000000000     
   2.0999999999999998E-002     0.0000000000000000     
   2.1299999999999999E-002     0.0000000000000000     
   2.1600000000000001E-002     0.0000000000000000     
   2.1900000000000003E-002     0.0000000000000000     
   2.2200000000000004E-002     0.0000000000000000     
   2.2500000000000006E-002     0.0000000000000000     
   2.2800000000000001E-002     0.0000000000000000     
   2.3100000000000002E-002     0.0000000000000000     
   2.3400000000000004E-002     0.0000000000000000     
   2.3699999999999999E-002     0.0000000000000000     
   2.4000000000000000E-002     0.0000000000000000     
   2.4300000000000002E-002     0.0000000000000000     
   2.4599999999999997E-002     0.0000000000000000     
   2.4900000000000005E-002     0.0000000000000000     
   2.5200000000000000E-002     0.0000000000000000     
   2.5499999999999995E-002     0.0000000000000000     
   2.5800000000000003E-002     0.0000000000000000     
   2.6099999999999998E-002     0.0000000000000000     
   2.6400000000000007E-002     0.0000000000000000     
   2.6700000000000002E-002     0.0000000000000000     
   2.6999999999999996E-002     0.0000000000000000     
   2.7300000000000005E-002     0.0000000000000000     
   2.7600000000000000E-002    -3.9673896801566229E-073
   2.7900000000000008E-002     3.0039814575712777E-072
   2.8200000000000003E-002     4.4417235821514581E-072
   2.8499999999999998E-002     1.3536933629419713E-043
   2.8800000000000006E-002    -1.1538694166842215E-042
   2.9100000000000001E-002     1.1081386760995871E-036
   2.9400000000000003E-002    -1.1787475331593308E-035
   2.9700000000000004E-002     5.3188688417441329E-035
   3.0000000000000006E-002    -1.2584501342116596E-034
   3.0300000000000001E-002    -3.4853489800874435E-034
   3.0600000000000002E-002     1.9655696692951020E-033
   3.0900000000000004E-002    -4.3891116785457916E-033
   3.1199999999999999E-002     2.2952627118857644E-034
   3.1500000000000007E-002     3.7166638803651028E-032
   3.1800000000000002E-002    -1.9442613922741971E-031
   3.2099999999999997E-002     7.1692686360336983E-031
   3.2400000000000005E-002    -2.1894512166108959E-030
   3.2700000000000000E-002     5.7607705997441656E-030
   3.3000000000000002E-002    -1.2954156149077236E-029
   3.3300000000000003E-002     2.3375721351275458E-029
   3.3599999999999998E-002    -2.5635600774785269E-029
   3.3900000000000000E-002    -2.8435176747036355E-029
   3.4200000000000001E-002     2.8006021953947691E-028
   3.4500000000000003E-002    -1.0489924695079944E-027
   3.4799999999999998E-002     2.8617360354467793E-027
   3.5099999999999999E-002    -6.0806307734140107E-027
   3.5400000000000001E-002     9.2661183240857639E-027
   3.5699999999999996E-002    -4.7908838879409629E-027
   3.6000000000000004E-002    -2.9233821087650337E-026
   3.6299999999999999E-002     1.3636825885657713E-025
   3.6600000000000008E-002    -3.6784755931522296E-025
   3.6900000000000002E-002     6.9531670066997741E-025
   3.7199999999999997E-002    -7.7270318573316626E-025
   3.7500000000000006E-002    -4.6430360237866382E-025
   3.7800000000000000E-002     5.0281841960676476E-024
   3.8100000000000009E-002    -1.4798493059702305E-023
   3.8400000000000004E-002     2.7025080721087350E-023
   3.8699999999999998E-002    -2.5002567278132300E-023
   3.9000000000000007E-002    -3.1068524781051124E-023
   3.9300000000000002E-002     1.9195473923647516E-022
   3.9600000000000003E-002    -4.4602382934319006E-022
   3.9900000000000005E-002     5.5914588047342418E-022
   4.0200000000000000E-002     7.8505082693022388E-023
   4.0500000000000001E-002    -2.2395053893322211E-021
   4.0800000000000003E-002     5.6878354302082072E-021
   4.1100000000000005E-002    -6.8833205981291497E-021
   4.1399999999999999E-002    -2.6317563001854533E-021
   4.1700000000000008E-002     3.1990934423446530E-020
   4.2000000000000003E-002    -7.4437874291713830E-020
   4.2299999999999997E-002     8.0132437637215507E-020
   4.2600000000000006E-002     5.6484197242581597E-020
   4.2900000000000001E-002    -4.3642687922891096E-019
   4.3200000000000002E-002     9.3885115937925471E-019
   4.3500000000000004E-002    -7.6223372249968953E-019
   4.3799999999999999E-002    -2.2261539925292167E-018
   4.4100000000000000E-002     1.1405774595757110E-017
   4.4400000000000002E-002    -2.6572285123280438E-017
   4.4700000000000004E-002     2.5267021039585635E-017
   4.4999999999999998E-002     7.3136300214634081E-017
   4.5300000000000000E-002    -4.0808322167431426E-016
   4.5600000000000002E-002     9.5625243975951739E-016
   4.5899999999999996E-002    -8.7930155263074652E-016
   4.6200000000000005E-002    -1.9610886352277823E-015
   4.6500000000000000E-002     8.5737934813127799E-015
   4.6799999999999994E-002    -1.1137435306831128E-014
   4.7100000000000003E-002    -5.9913993074395843E-015
   4.7399999999999998E-002     8.6100799027349134E-015
   4.7700000000000006E-002     1.9347973797534696E-013
   4.8000000000000001E-002    -6.6534611889141453E-013
   4.8300000000000010E-002    -3.1530996005177053E-013
   4.8600000000000004E-002     7.9394493790515227E-012
   4.8899999999999999E-002    -2.0749936351621888E-011
   4.9200000000000008E-002    -7.5257295198690469E-012
   4.9500000000000002E-002     1.7405021654550843E-010
   4.9800000000000011E-002    -3.4561197495596537E-010
   5.0100000000000006E-002    -4.3548204586948924E-010
   5.0400000000000000E-002     2.9842963875338081E-009
   5.0700000000000009E-002    -2.2341781556809342E-009
   5.1000000000000004E-002    -1.4299651902024601E-008
   5.1299999999999998E-002     2.7305498723647039E-008
   5.1600000000000007E-002     4.7847074154976002E-008
   5.1900000000000002E-002    -1.7789593635077683E-007
   5.2200000000000010E-002    -1.5281829266884433E-007
   5.2500000000000005E-002     1.4913059427046200E-006
   5.2800000000000000E-002     5.0939629613437409E-006
   5.3099999999999994E-002     9.5342334941804221E-006
   5.3400000000000003E-002     1.4352239819070355E-005
   5.3699999999999998E-002     1.9719592567251326E-005
   5.4000000000000006E-002     2.6005697839092063E-005
   5.4300000000000001E-002     3.6498726884700829E-005
   5.4599999999999996E-002     5.6862904982996092E-005
   5.4900000000000004E-002     9.0939723721164911E-005
   5.5199999999999999E-002     1.4034971015784045E-004
   5.5499999999999994E-002     2.0629181431926642E-004
   5.5800000000000002E-002     2.9323790460537516E-004
   5.6099999999999997E-002     4.1271052148796999E-004
   5.6400000000000006E-002     5.7759640494064188E-004
   5.6700000000000000E-002     7.9758445381116416E-004
   5.6999999999999995E-002     1.0841072921809114E-003
   5.7300000000000004E-002     1.4470008503183849E-003
   5.7599999999999998E-002     1.8903093393422595E-003
   5.7900000000000007E-002     2.4194460712917980E-003
   5.8200000000000002E-002     3.0378267883981657E-003
   5.8499999999999996E-002     3.7360809911721718E-003
   5.8800000000000005E-002     4.4904010491116407E-003
   5.9100000000000000E-002     5.2572152696644886E-003
   5.9400000000000008E-002     5.9734074591683891E-003
   5.9700000000000003E-002     6.5616308146159040E-003
   6.0000000000000012E-002     6.9185765200897933E-003
   6.0300000000000006E-002     6.9102770864375882E-003
   6.0600000000000001E-002     6.3901823882724709E-003
   6.0900000000000010E-002     5.2128440545365336E-003
   6.1200000000000004E-002     3.2443337085038388E-003
   6.1500000000000013E-002     3.7163456809994022E-004
   6.1800000000000008E-002    -3.4779691472157279E-003
   6.2100000000000002E-002    -8.3042842260494590E-003
   6.2399999999999997E-002    -1.4006882121329342E-002
   6.2700000000000006E-002    -2.0377543798954352E-002
   6.3000000000000000E-002    -2.7093530613070082E-002
   6.3300000000000009E-002    -3.3713563319145740E-002
   6.3600000000000004E-002    -3.9685650769543404E-002
   6.3899999999999998E-002    -4.4381781678210032E-002
   6.4199999999999993E-002    -4.7161653157772848E-002
   6.4500000000000002E-002    -4.7424394513154534E-002
   6.4800000000000010E-002    -4.4664386989531679E-002
   6.5100000000000005E-002    -3.8569108515072129E-002
   6.5400000000000000E-002    -2.9111787263050672E-002
   6.5700000000000008E-002    -1.6610948557239942E-002
   6.5999999999999989E-002    -1.7494382989317919E-003
   6.6299999999999998E-002     1.4408756653757085E-002
   6.6600000000000006E-002     3.0435841784349552E-002
   6.6900000000000001E-002     4.4599257500686516E-002
   6.7199999999999996E-002     5.4982181801168664E-002
   6.7500000000000004E-002     5.9642650689178546E-002
   6.7800000000000013E-002     5.6744841129657504E-002
   6.8099999999999994E-002     4.4775767437498601E-002
   6.8400000000000002E-002     2.2706133742751350E-002
   6.8700000000000011E-002    -9.8180687483278399E-003
   6.8999999999999992E-002    -5.2372352582292163E-002
   6.9300000000000000E-002   -0.10366896135853480     
   6.9600000000000009E-002   -0.16155895028320350     
   6.9900000000000004E-002   -0.22304657883126761     
   7.0199999999999999E-002   -0.28439789178481106     
   7.0500000000000007E-002   -0.34140541225069870     
   7.0800000000000016E-002   -0.38957517361084210     
   7.1099999999999997E-002   -0.42443721499712878     
   7.1400000000000005E-002   -0.44188990241234138     
   7.1700000000000000E-002   -0.43854036066623553     
   7.1999999999999995E-002   -0.41202887165310431     
   7.2300000000000003E-002   -0.36129545612631930     
   7.2600000000000012E-002   -0.28684284937736043     
   7.2900000000000006E-002   -0.19080041234778031     
   7.3200000000000001E-002    -7.6949515746190730E-002
   7.3499999999999996E-002     4.9416352059527477E-002
   7.3800000000000004E-002    0.18178267173677876     
   7.4099999999999999E-002    0.31273882773205630     
   7.4400000000000008E-002    0.43455340482007559     
   7.4700000000000003E-002    0.53971819970810375     
   7.5000000000000011E-002    0.62154446863672541     
   7.5299999999999992E-002    0.67473684558611302     
   7.5600000000000001E-002    0.69584511569873453     
   7.5900000000000009E-002    0.68362163452220670     
   7.6200000000000004E-002    0.63921611598044936     
   7.6499999999999999E-002    0.56609367600980276     
   7.6800000000000007E-002    0.46978362878023622     
   7.7099999999999988E-002    0.35750746430332520     
   7.7399999999999997E-002    0.23757038934222932     
   7.7700000000000005E-002    0.11864305420205357     
   7.8000000000000014E-002     9.1173811004536080E-003
   7.8299999999999995E-002    -8.3578000745419545E-002
   7.8600000000000003E-002   -0.15363540665206929     
   7.8900000000000012E-002   -0.19715196738330387     
   7.9199999999999993E-002   -0.21255456735694034     
   7.9500000000000001E-002   -0.20050434129217906     
   7.9800000000000010E-002   -0.16381541814508918     
   8.0100000000000018E-002   -0.10717310290781010     
   8.0399999999999999E-002    -3.6582306440490181E-002
   8.0700000000000008E-002     4.1053136711704775E-002
   8.1000000000000003E-002    0.11856858442794231     
   8.1299999999999997E-002    0.18908975861483379     
   8.1600000000000006E-002    0.24651036839606419     
   8.1900000000000014E-002    0.28587770002777341     
   8.2199999999999995E-002    0.30379703063416452     
   8.2500000000000004E-002    0.29843153886417173     
   8.2799999999999999E-002    0.26974161746842251     
   8.3100000000000007E-002    0.21924803429466885     
   8.3400000000000002E-002    0.14990852083929232     
   8.3700000000000011E-002     6.5870591782331428E-002
   8.4000000000000005E-002    -2.7875417362760030E-002
   8.4300000000000000E-002   -0.12591921165859465     
   8.4599999999999995E-002   -0.22268523489390857     
   8.4900000000000003E-002   -0.31288090391565343     
   8.5199999999999998E-002   -0.39179772008459057     
   8.5500000000000007E-002   -0.45538341705839347     
   8.5800000000000001E-002   -0.50071525134253803     
   8.6100000000000010E-002   -0.52567308586100547     
   8.6399999999999991E-002   -0.52934061843026325     
   8.6699999999999999E-002   -0.51155572449252129     
   8.7000000000000008E-002   -0.47304766688268185     
   8.7300000000000003E-002   -0.41515614940259554     
   8.7599999999999997E-002   -0.33969795139805958     
   8.7900000000000006E-002   -0.24886424385576814     
   8.8200000000000014E-002   -0.14503046553978927     
   8.8499999999999995E-002    -3.0911719668035794E-002
   8.8800000000000004E-002     9.0693622785895989E-002
   8.9100000000000013E-002    0.21656574138046450     
   8.9399999999999993E-002    0.34325641062496548     
   8.9700000000000002E-002    0.46684410691314415     
   9.0000000000000011E-002    0.58298736209502888     
   9.0299999999999991E-002    0.68694841163580100     
   9.0600000000000000E-002    0.77375947666530187     
   9.0900000000000009E-002    0.83848964376428248     
   9.1200000000000017E-002    0.87641023808909402     
   9.1499999999999998E-002    0.88353275522330954     
   9.1800000000000007E-002    0.85690801695240970     
   9.2100000000000001E-002    0.79506784164059174     
   9.2399999999999996E-002    0.69834214095742031     
   9.2700000000000005E-002    0.56900715662693513     
   9.3000000000000013E-002    0.41137889069149480     
   9.3300000000000008E-002    0.23169353862017217     
   9.3600000000000003E-002     3.7820738810347851E-002
   9.3899999999999997E-002   -0.16124286571032459     
   9.4200000000000006E-002   -0.35581215360472285     
   9.4500000000000001E-002   -0.53633766365670388     
   9.4800000000000009E-002   -0.69395159570825704     
   9.5100000000000004E-002   -0.82107590470955027     
   9.5399999999999999E-002   -0.91210536989246216     
   9.5699999999999993E-002   -0.96367441499852380     
   9.6000000000000002E-002   -0.97484235950212417     
   9.6300000000000011E-002   -0.94723217820380912     
   9.6600000000000005E-002   -0.88479911604286932     
   9.6900000000000000E-002   -0.79351251849829962     
   9.7200000000000009E-002   -0.68094175809375612     
   9.7499999999999989E-002   -0.55565232016872323     
   9.7799999999999998E-002   -0.42654070450663828     
   9.8100000000000007E-002   -0.30236012126361506     
   9.8400000000000015E-002   -0.19084358759555009     
   9.8699999999999996E-002    -9.8687774595003705E-002
   9.9000000000000005E-002    -3.0595965589257968E-002
   9.9300000000000013E-002     1.0454110651045326E-002
   9.9599999999999994E-002     2.3744072864267173E-002
   9.9900000000000003E-002     1.0613811093842181E-002
  0.10020000000000001         -2.5715850172713148E-002
  0.10049999999999999         -8.0363068960376080E-002
  0.10080000000000000        -0.14733712588091172     
  0.10110000000000001        -0.21959328667525183     
  0.10140000000000000        -0.29013421937466205     
  0.10170000000000000        -0.35171654423243198     
  0.10200000000000001        -0.39814420944221385     
  0.10230000000000002        -0.42403598860764763     
  0.10260000000000000        -0.42553268965582858     
  0.10290000000000001        -0.40041451646373316     
  0.10320000000000000        -0.34816231263496733     
  0.10350000000000001        -0.27015047186363805     
  0.10380000000000000        -0.16938223380544259     
  0.10410000000000001         -5.0504342958752918E-002
  0.10440000000000001          8.0923804646495137E-002
  0.10470000000000000         0.21818993265234332     
  0.10500000000000000         0.35443673156726813     
  0.10530000000000000         0.48263574098031153     
  0.10560000000000000         0.59628123315692116     
  0.10590000000000001         0.68965518554285010     
  0.10620000000000000         0.75804090384902123     
  0.10650000000000001         0.79827969949032440     
  0.10679999999999999         0.80845832303365039     
  0.10710000000000000         0.78829049335666346     
  0.10740000000000001         0.73884724636755728     
  0.10770000000000000         0.66272454315312168     
  0.10800000000000000         0.56350325204966778     
  0.10830000000000001         0.44579400098958222     
  0.10859999999999999         0.31479345083670746     
  0.10890000000000000         0.17607460618195106     
  0.10920000000000001          3.5300869502979448E-002
  0.10950000000000001        -0.10208034903563179     
  0.10979999999999999        -0.23113230208007665     
  0.11009999999999999        -0.34767647299449467     
  0.11040000000000001        -0.44834275556335973     
  0.11070000000000001        -0.53089900052992545     
  0.11100000000000000        -0.59408385449840162     
  0.11130000000000000        -0.63792968287001295     
  0.11160000000000002        -0.66306799710442421     
  0.11190000000000001        -0.67091619578927619     
  0.11220000000000001        -0.66312365889411728     
  0.11250000000000000        -0.64140026509643111     
  0.11280000000000000        -0.60686401898704756     
  0.11309999999999999        -0.56011466261510390     
  0.11340000000000001        -0.50052956608464327     
  0.11369999999999998        -0.42671976246461912     
  0.11400000000000000        -0.33657196910511217     
  0.11430000000000000        -0.22730814766558355     
  0.11460000000000002         -9.6526364983743992E-002
  0.11489999999999999          5.7379947724622751E-002
  0.11520000000000001         0.23440597754444564     
  0.11550000000000001         0.43218166517467516     
  0.11580000000000000         0.64538121667568793     
  0.11609999999999999         0.86602377885790338     
  0.11640000000000002          1.0825815157892631     
  0.11670000000000001          1.2816073813238678     
  0.11700000000000001          1.4479367619698282     
  0.11730000000000000          1.5659880501220906     
  0.11760000000000000          1.6215680686309650     
  0.11789999999999999          1.6031946979908254     
  0.11820000000000001          1.5035598127040908     
  0.11850000000000001          1.3206437689486912     
  0.11880000000000000          1.0588472966148754     
  0.11910000000000000         0.72840123486802733     
  0.11940000000000002         0.34596484319899490     
  0.11970000000000001         -6.7006635350885607E-002
  0.12000000000000001        -0.48541772335742789     
  0.12030000000000000        -0.88259374803699508     
  0.12060000000000000         -1.2322288701729203     
  0.12089999999999999         -1.5106013949081685     
  0.12119999999999999         -1.6982453989996280     
  0.12150000000000001         -1.7819474863686426     
  0.12180000000000001         -1.7557846241523896     
  0.12210000000000000         -1.6212874596094544     
  0.12239999999999999         -1.3880259950377973     
  0.12270000000000002         -1.0721120811176639     
  0.12300000000000001        -0.69583761634471242     
  0.12330000000000001        -0.28537187089348903     
  0.12360000000000000         0.13084317489365940     
  0.12390000000000000         0.52423250308092018     
  0.12419999999999999         0.86824577601667929     
  0.12450000000000001          1.1398986529975978     
  0.12480000000000001          1.3217725705897798     
  0.12509999999999999          1.4027203277511795     
  0.12540000000000001          1.3788837157361236     
  0.12570000000000003          1.2536940546691901     
  0.12600000000000000          1.0375174266634302     
  0.12630000000000002         0.74679189857820005     
  0.12659999999999999         0.40284293935203663     
  0.12690000000000001          3.0459036568813096E-002
  0.12719999999999998        -0.34413745785392619     
  0.12750000000000000        -0.69469839072663597     
  0.12780000000000002        -0.99692183455123606     
  0.12809999999999999         -1.2300020429921874     
  0.12840000000000001         -1.3776029326876917     
  0.12869999999999998         -1.4291043267842600     
  0.12900000000000000         -1.3797533509213888     
  0.12930000000000003         -1.2310686121339047     
  0.12959999999999999        -0.99047035219934665     
  0.12990000000000002        -0.67062127983213671     
  0.13019999999999998        -0.28876853533300856     
  0.13050000000000000         0.13435448021116034     
  0.13080000000000003         0.57570450689761998     
  0.13109999999999999          1.0111517815086821     
  0.13140000000000002          1.4163285396326744     
  0.13169999999999998          1.7685141462589842     
  0.13200000000000001          2.0468308826042594     
  0.13229999999999997          2.2340187932691276     
  0.13260000000000000          2.3171367561671072     
  0.13290000000000002          2.2880251338877926     
  0.13319999999999999          2.1443076083651169     
  0.13350000000000001          1.8894457789105943     
  0.13380000000000003          1.5330703254606337     
  0.13410000000000000          1.0901523850521653     
  0.13440000000000002         0.58122772448989646     
  0.13469999999999999          3.0355963522043165E-002
  0.13500000000000001        -0.53516661198137350     
  0.13529999999999998         -1.0870355258265429     
  0.13560000000000000         -1.5975706455098571     
  0.13590000000000002         -2.0412123073704240     
  0.13619999999999999         -2.3966996537641712     
  0.13650000000000001         -2.6479661334896969     
  0.13680000000000003         -2.7856907720412298     
  0.13710000000000000         -2.8074133280540265     
  0.13740000000000002         -2.7180173291019099     
  0.13769999999999999         -2.5288109682412863     
  0.13800000000000001         -2.2565474421296376     
  0.13829999999999998         -1.9224418317759049     
  0.13860000000000000         -1.5495477833058091     
  0.13890000000000002         -1.1615185654958520     
  0.13919999999999999        -0.78047840924823764     
  0.13950000000000001        -0.42563622273288065     
  0.13979999999999998        -0.11191436418568919     
  0.14010000000000000         0.15092849257256558     
  0.14040000000000002         0.35801730597933629     
  0.14069999999999999         0.51012892540099242     
  0.14100000000000001         0.61144221763443329     
  0.14130000000000004         0.67004228433082691     
  0.14160000000000000         0.69567102789514312     
  0.14189999999999997         0.69899344785181117     
  0.14219999999999999         0.69040191209456192     
  0.14250000000000002         0.67851954405624870     
  0.14279999999999998         0.67066728422140109     
  0.14310000000000000         0.67094676700884393     
  0.14339999999999997         0.68178294782151194     
  0.14369999999999999         0.70267860498372503     
  0.14400000000000002         0.73147318943131601     
  0.14429999999999998         0.76435140794847878     
  0.14460000000000001         0.79606685987047032     
  0.14490000000000003         0.82133070570702671     
  0.14520000000000000         0.83385709942789343     
  0.14550000000000002         0.82861016355773975     
  0.14579999999999999         0.80041114861874507     
  0.14610000000000001         0.74581699212478147     
  0.14640000000000003         0.66301195764029641     
  0.14670000000000000         0.55209600211473597     
  0.14699999999999996         0.41621189937115177     
  0.14729999999999999         0.26085451214212629     
  0.14760000000000001          9.4996142200171052E-002
  0.14789999999999998         -7.0255817889208164E-002
  0.14820000000000000        -0.22105517220808102     