  -1.4999999999999999E-002     0.0000000000000000     
  -1.4700000000000000E-002     0.0000000000000000     
  -1.4400000000000000E-002     0.0000000000000000     
  -1.4100000000000000E-002     0.0000000000000000     
  -1.3800000000000000E-002     0.0000000000000000     
  -1.3500000000000000E-002     0.0000000000000000     
  -1.3200000000000000E-002     0.0000000000000000     
  -1.2899999999999998E-002     0.0000000000000000     
  -1.2600000000000000E-002     0.0000000000000000     
  -1.2299999999999998E-002     0.0000000000000000     
  -1.2000000000000000E-002     0.0000000000000000     
  -1.1699999999999999E-002     0.0000000000000000     
  -1.1399999999999999E-002     0.0000000000000000     
  -1.1099999999999999E-002     0.0000000000000000     
  -1.0799999999999999E-002     0.0000000000000000     
  -1.0499999999999999E-002     0.0000000000000000     
  -1.0199999999999999E-002     0.0000000000000000     
  -9.8999999999999991E-003     0.0000000000000000     
  -9.5999999999999992E-003     0.0000000000000000     
  -9.2999999999999992E-003     0.0000000000000000     
  -8.9999999999999993E-003     0.0000000000000000     
  -8.6999999999999994E-003     0.0000000000000000     
  -8.3999999999999995E-003     0.0000000000000000     
  -8.0999999999999996E-003     0.0000000000000000     
  -7.7999999999999988E-003     0.0000000000000000     
  -7.4999999999999997E-003     0.0000000000000000     
  -7.1999999999999998E-003     0.0000000000000000     
  -6.8999999999999981E-003     0.0000000000000000     
  -6.5999999999999982E-003     0.0000000000000000     
  -6.3000000000000000E-003     0.0000000000000000     
  -6.0000000000000001E-003     0.0000000000000000     
  -5.6999999999999985E-003     0.0000000000000000     
  -5.3999999999999986E-003     0.0000000000000000     
  -5.1000000000000004E-003     0.0000000000000000     
  -4.7999999999999987E-003     0.0000000000000000     
  -4.5000000000000005E-003     0.0000000000000000     
  -4.1999999999999989E-003     0.0000000000000000     
  -3.8999999999999990E-003     0.0000000000000000     
  -3.5999999999999990E-003     0.0000000000000000     
  -3.2999999999999991E-003     0.0000000000000000     
  -2.9999999999999992E-003     0.0000000000000000     
  -2.6999999999999993E-003     0.0000000000000000     
  -2.3999999999999994E-003     0.0000000000000000     
  -2.0999999999999977E-003     0.0000000000000000     
  -1.7999999999999995E-003     0.0000000000000000     
  -1.4999999999999979E-003     0.0000000000000000     
  -1.1999999999999997E-003     0.0000000000000000     
  -8.9999999999999976E-004     0.0000000000000000     
  -5.9999999999999810E-004     0.0000000000000000     
  -2.9999999999999992E-004     0.0000000000000000     
   0.0000000000000000          0.0000000000000000     
   3.0000000000000165E-004     0.0000000000000000     
   5.9999999999999984E-004     0.0000000000000000     
   9.0000000000000149E-004     0.0000000000000000     
   1.2000000000000031E-003     0.0000000000000000     
   1.5000000000000013E-003     0.0000000000000000     
   1.8000000000000030E-003     0.0000000000000000     
   2.1000000000000012E-003     0.0000000000000000     
   2.3999999999999994E-003     0.0000000000000000     
   2.7000000000000010E-003     0.0000000000000000     
   2.9999999999999992E-003     0.0000000000000000     
   3.3000000000000008E-003     0.0000000000000000     
   3.6000000000000025E-003     0.0000000000000000     
   3.9000000000000007E-003     0.0000000000000000     
   4.2000000000000023E-003     0.0000000000000000     
   4.5000000000000005E-003     0.0000000000000000     
   4.7999999999999987E-003     0.0000000000000000     
   5.1000000000000004E-003     0.0000000000000000     
   5.4000000000000020E-003     0.0000000000000000     
   5.7000000000000037E-003     0.0000000000000000     
   5.9999999999999984E-003     0.0000000000000000     
   6.3000000000000000E-003     0.0000000000000000     
   6.6000000000000017E-003     0.0000000000000000     
   6.9000000000000034E-003     0.0000000000000000     
   7.2000000000000015E-003     0.0000000000000000     
   7.5000000000000032E-003     0.0000000000000000     
   7.8000000000000014E-003     0.0000000000000000     
   8.0999999999999996E-003     0.0000000000000000     
   8.4000000000000012E-003     0.0000000000000000     
   8.7000000000000029E-003     0.0000000000000000     
   9.0000000000000011E-003     0.0000000000000000     
   9.2999999999999992E-003     0.0000000000000000     
   9.6000000000000009E-003     0.0000000000000000     
   9.8999999999999991E-003     0.0000000000000000     
   1.0200000000000001E-002     0.0000000000000000     
   1.0500000000000002E-002     0.0000000000000000     
   1.0800000000000004E-002     1.9211637023250557E-037
   1.1099999999999999E-002     4.4097549523239850E-037
   1.1400000000000000E-002    -6.7180840681126005E-036
   1.1700000000000002E-002     2.1864482553911285E-035
   1.2000000000000004E-002    -1.9757818201154300E-035
   1.2300000000000002E-002     4.7945330892844087E-035
   1.2600000000000000E-002     1.4940188377054907E-034
   1.2900000000000002E-002    -6.4496547421672477E-034
   1.3200000000000000E-002     5.9485004229870066E-034
   1.3500000000000002E-002     1.5583084970781433E-033
   1.3800000000000003E-002    -4.7137066387233754E-033
   1.4100000000000001E-002     1.1136040915276159E-033
   1.4400000000000000E-002     1.4249792962089121E-032
   1.4700000000000001E-002    -2.2142152877587780E-032
   1.4999999999999999E-002    -2.0574027467073012E-032
   1.5300000000000001E-002     1.1403140448868768E-031
   1.5600000000000003E-002    -1.0769174045503631E-031
   1.5899999999999997E-002    -2.1446719188255487E-031
   1.6199999999999999E-002     6.6545653618425330E-031
   1.6500000000000001E-002    -2.9042071298582209E-031
   1.6800000000000002E-002    -1.6487939287981018E-030
   1.7100000000000004E-002     3.2163226013172641E-030
   1.7400000000000006E-002     4.2874705521865807E-031
   1.7700000000000000E-002    -9.9898160461236161E-030
   1.8000000000000002E-002     1.2320859834801257E-029
   1.8300000000000004E-002     1.1549519749293720E-029
   1.8600000000000005E-002    -4.8958286342895424E-029
   1.8900000000000000E-002     3.2064271920105589E-029
   1.9200000000000002E-002     8.8220216847719858E-029
   1.9500000000000003E-002    -1.9159948196161258E-028
   1.9799999999999998E-002     8.7584746250868446E-030
   2.0100000000000000E-002     4.6357625618450940E-028
   2.0400000000000001E-002    -5.5145412333947638E-028
   2.0700000000000003E-002    -4.9538003013480330E-028
   2.0999999999999998E-002     1.8308291869983438E-027
   2.1299999999999999E-002    -7.4472890224321757E-028
   2.1600000000000001E-002    -3.5007826272787139E-027
   2.1900000000000003E-002     5.1294715997679923E-027
   2.2200000000000004E-002     3.3376142709329626E-027
   2.2500000000000006E-002    -1.5272532192769351E-026
   2.2800000000000001E-002     6.1063882936015212E-027
   2.3100000000000002E-002     3.1941833812582325E-026
   2.3400000000000004E-002    -4.6225457261535942E-026
   2.3699999999999999E-002    -3.5349358144493895E-026
   2.4000000000000000E-002     1.5692887758463595E-025
   2.4300000000000002E-002    -8.1396305360393571E-026
   2.4599999999999997E-002    -3.1475765894572847E-025
   2.4900000000000005E-002     5.9801622050996103E-025
   2.5200000000000000E-002     4.9515322748490901E-026
   2.5499999999999995E-002    -1.6757647895895603E-024
   2.5800000000000003E-002     2.4341842151664557E-024
   2.6099999999999998E-002     1.1470380589118552E-024
   2.6400000000000007E-002    -1.1604924162073610E-023
   2.6700000000000002E-002     1.9797776140499016E-023
   2.6999999999999996E-002     2.0971854428579895E-023
   2.7300000000000005E-002    -1.7151930815423534E-022
   2.7600000000000000E-002     2.1083252853565977E-022
   2.7900000000000008E-002     8.3873143909789795E-022
   2.8200000000000003E-002    -3.3324347050626684E-021
   2.8499999999999998E-002     5.3993771249059784E-022
   2.8800000000000006E-002     2.3606324112996727E-020
   2.9100000000000001E-002    -5.2515886453076462E-020
   2.9400000000000003E-002    -5.0658926171863316E-020
   2.9700000000000004E-002     4.0243460077153583E-019
   3.0000000000000006E-002    -3.2271094502631436E-019
   3.0300000000000001E-002    -1.7866231203357246E-018
   3.0600000000000002E-002     3.4957635663636282E-018
   3.0900000000000004E-002     8.4951252812869684E-018
   3.1199999999999999E-002    -3.3663555505506828E-017
   3.1500000000000007E-002    -1.8162768845868272E-017
   3.1800000000000002E-002     2.6123016884166729E-016
   3.2099999999999997E-002    -2.7970153276471722E-016
   3.2400000000000005E-002    -1.1303664613921124E-015
   3.2700000000000000E-002     3.0195936548125145E-015
   3.3000000000000002E-002     2.3085960812757723E-015
   3.3300000000000003E-002    -1.7578697832644630E-014
   3.3599999999999998E-002     3.7385661579332880E-015
   3.3900000000000000E-002     9.2566165871182623E-014
   3.4200000000000001E-002    -1.1507215331664096E-013
   3.4500000000000003E-002    -3.8933112419486338E-013
   3.4799999999999998E-002     1.1387903411814421E-012
   3.5099999999999999E-002     4.1645889830517064E-013
   3.5400000000000001E-002    -6.0740000328273543E-012
   3.5699999999999996E-002     6.9851809874624252E-012
   3.6000000000000004E-002     1.5000723898042194E-011
   3.6299999999999999E-002    -4.8579091516021375E-011
   3.6600000000000008E-002     1.5954677074654413E-011
   3.6900000000000002E-002     1.4032552675942525E-010
   3.7199999999999997E-002    -2.5262485402138559E-010
   3.7500000000000006E-002    -5.4393939763190552E-011
   3.7800000000000000E-002     8.2588260976983967E-010
   3.8100000000000009E-002    -1.1258968487907952E-009
   3.8400000000000004E-002    -7.3943375569855555E-010
   3.8699999999999998E-002     4.7730322704850620E-009
   3.9000000000000007E-002    -4.0278744206168971E-009
   3.9300000000000002E-002    -1.1755315323074524E-008
   3.9600000000000003E-002     1.5712100126771442E-008
   3.9900000000000005E-002     2.8181721746367715E-008
   4.0200000000000000E-002    -2.3059420353319832E-008
   4.0500000000000001E-002    -2.0242034130107024E-007
   4.0800000000000003E-002     4.5145679143396934E-007
   4.1100000000000005E-002     7.5552668110580339E-006
   4.1399999999999999E-002     2.9594577522112423E-005
   4.1700000000000008E-002     6.3943120396167192E-005
   4.2000000000000003E-002     9.3353772559811560E-005
   4.2299999999999997E-002     1.1345580379005242E-004
   4.2600000000000006E-002     1.5249392968561714E-004
   4.2900000000000001E-002     2.4322766514403191E-004
   4.3200000000000002E-002     3.9125466130732748E-004
   4.3500000000000004E-002     5.9258352620674467E-004
   4.3799999999999999E-002     8.6698993607620383E-004
   4.4100000000000000E-002     1.2591190190733587E-003
   4.4400000000000002E-002     1.8195296950806504E-003
   4.4700000000000004E-002     2.5940392792305781E-003
   4.4999999999999998E-002     3.6294687750989436E-003
   4.5300000000000000E-002     4.9868565453414860E-003
   4.5600000000000002E-002     6.7404398069157148E-003
   4.5899999999999996E-002     8.9571299759493989E-003
   4.6200000000000005E-002     1.1677185692225851E-002
   4.6500000000000000E-002     1.4908594325275113E-002
   4.6799999999999994E-002     1.8623750477902552E-002
   4.7100000000000003E-002     2.2735375343014817E-002
   4.7399999999999998E-002     2.7050908366545091E-002
   4.7700000000000006E-002     3.1248070405839934E-002
   4.8000000000000001E-002     3.4884912571688680E-002
   4.8300000000000010E-002     3.7370327142597713E-002
   4.8600000000000004E-002     3.7912269533454827E-002
   4.8899999999999999E-002     3.5537376084817385E-002
   4.9200000000000008E-002     2.9204775579687210E-002
   4.9500000000000002E-002     1.7870916457788974E-002
   4.9800000000000011E-002     5.0924851043647381E-004
   5.0100000000000006E-002    -2.3779303005307218E-002
   5.0400000000000000E-002    -5.5526053452859159E-002
   5.0700000000000009E-002    -9.4704911161790251E-002
   5.1000000000000004E-002   -0.14061513516271379     
   5.1299999999999998E-002   -0.19172918495920566     
   5.1600000000000007E-002   -0.24554227695047748     
   5.1900000000000002E-002   -0.29853892383888114     
   5.2200000000000010E-002   -0.34630688169520030     
   5.2500000000000005E-002   -0.38369738901044564     
   5.2800000000000000E-002   -0.40509300659668757     
   5.3099999999999994E-002   -0.40488225260135940     
   5.3400000000000003E-002   -0.37799117523838549     
   5.3699999999999998E-002   -0.32046418877547028     
   5.4000000000000006E-002   -0.23004660862465220     
   5.4300000000000001E-002   -0.10672854768067863     
   5.4599999999999996E-002     4.6808292597942738E-002
   5.4900000000000004E-002    0.22505482747757607     
   5.5199999999999999E-002    0.41972343401306567     
   5.5499999999999994E-002    0.62008351825090124     
   5.5800000000000002E-002    0.81353778552350553     
   5.6099999999999997E-002    0.98659085122273726     
   5.6400000000000006E-002     1.1258420371993370     
   5.6700000000000000E-002     1.2191876705440556     
   5.6999999999999995E-002     1.2569353475933940     
   5.7300000000000004E-002     1.2327553659800565     
   5.7599999999999998E-002     1.1445187853629513     
   5.7900000000000007E-002    0.99460918173766855     
   5.8200000000000002E-002    0.78996243146193557     
   5.8499999999999996E-002    0.54153411841003707     
   5.8800000000000005E-002    0.26377315011432090     
   5.9100000000000000E-002    -2.6776646763830431E-002
   5.9400000000000008E-002   -0.31260166052513216     
   5.9700000000000003E-002   -0.57661411570898025     
   6.0000000000000012E-002   -0.80360628899583508     
   6.0300000000000006E-002   -0.98110249199432742     
   6.0600000000000001E-002    -1.1005435108010957     
   6.0900000000000010E-002    -1.1576329759109665     
   6.1200000000000004E-002    -1.1525924279512909     
   6.1500000000000013E-002    -1.0899524961189444     
   6.1800000000000008E-002   -0.97789358855768205     
   6.2100000000000002E-002   -0.82773307019789844     
   6.2399999999999997E-002   -0.65280138967253265     
   6.2700000000000006E-002   -0.46748004746479022     
   6.3000000000000000E-002   -0.28605422856305940     
   6.3300000000000009E-002   -0.12181126398454470     
   6.3600000000000004E-002     1.3715922636697478E-002
   6.3899999999999998E-002    0.11164693222095601     
   6.4199999999999993E-002    0.16612730884597127     
   6.4500000000000002E-002    0.17460897571925199     
   6.4800000000000010E-002    0.13791566543748884     
   6.5100000000000005E-002     6.0162339295381881E-002
   6.5400000000000000E-002    -5.1640631006281273E-002
   6.5700000000000008E-002   -0.18802481699542536     
   6.5999999999999989E-002   -0.33781175237512778     
   6.6299999999999998E-002   -0.48883121511789240     
   6.6600000000000006E-002   -0.62856803140834405     
   6.6900000000000001E-002   -0.74523957783340444     
   6.7199999999999996E-002   -0.82833647090846896     
   6.7500000000000004E-002   -0.86945248111559315     
   6.7800000000000013E-002   -0.86288854918589830     
   6.8099999999999994E-002   -0.80580332443926628     
   6.8400000000000002E-002   -0.69871548216019819     
   6.8700000000000011E-002   -0.54509650257587028     
   6.8999999999999992E-002   -0.35146453253938870     
   6.9300000000000000E-002   -0.12697652884720004     
   6.9600000000000009E-002    0.11770672138237731     
   6.9900000000000004E-002    0.37039662119910216     
   7.0199999999999999E-002    0.61853400534162994     
   7.0500000000000007E-002    0.84998821239847111     
   7.0800000000000016E-002     1.0534153164047482     
   7.1099999999999997E-002     1.2194481957212149     
   7.1400000000000005E-002     1.3404367401152966     
   7.1700000000000000E-002     1.4113365332644614     
   7.1999999999999995E-002     1.4296379418168856     
   7.2300000000000003E-002     1.3951585804076896     
   7.2600000000000012E-002     1.3102227391245083     
   7.2900000000000006E-002     1.1789224388414807     
   7.3200000000000001E-002     1.0070712771766483     
   7.3499999999999996E-002    0.80171122451208265     
   7.3800000000000004E-002    0.57060840112795974     
   7.4099999999999999E-002    0.32215669174324812     
   7.4400000000000008E-002     6.4842920642283683E-002
   7.4700000000000003E-002   -0.19273037259634901     
   7.5000000000000011E-002   -0.44219375861404847     
   7.5299999999999992E-002   -0.67530747029877713     
   7.5600000000000001E-002   -0.88402571214913006     
   7.5900000000000009E-002    -1.0607831098451370     
   7.6200000000000004E-002    -1.1984931759760098     
   7.6499999999999999E-002    -1.2907789819277380     
   7.6800000000000007E-002    -1.3321723514838486     
   7.7099999999999988E-002    -1.3186215497469307     
   7.7399999999999997E-002    -1.2479353823492296     
   7.7700000000000005E-002    -1.1199615090501394     
   7.8000000000000014E-002   -0.93700722812489801     
   7.8299999999999995E-002   -0.70415216871188502     
   7.8600000000000003E-002   -0.42932248842345166     
   7.8900000000000012E-002   -0.12293935527043445     
   7.9199999999999993E-002    0.20237544802567606     
   7.9500000000000001E-002    0.53232465200122925     
   7.9800000000000010E-002    0.85181365418236610     
   8.0100000000000018E-002     1.1458352339386799     
   8.0399999999999999E-002     1.4005351376463508     
   8.0700000000000008E-002     1.6037757327181108     
   8.1000000000000003E-002     1.7461426908367261     
   8.1299999999999997E-002     1.8215097226250330     
   8.1600000000000006E-002     1.8270318506701044     
   8.1900000000000014E-002     1.7632507601847824     
   8.2199999999999995E-002     1.6337318046213889     
   8.2500000000000004E-002     1.4446908236890819     
   8.2799999999999999E-002     1.2044179436195499     
   8.3100000000000007E-002    0.92222360108054025     
   8.3400000000000002E-002    0.60836595284500428     
   8.3700000000000011E-002    0.27333435830759389     
   8.4000000000000005E-002    -7.2553143421491148E-002
   8.4300000000000000E-002   -0.41894327682823418     
   8.4599999999999995E-002   -0.75586884912498697     
   8.4900000000000003E-002    -1.0730418099506724     
   8.5199999999999998E-002    -1.3605535487828737     
   8.5500000000000007E-002    -1.6085661874980239     
   8.5800000000000001E-002    -1.8067974195861918     
   8.6100000000000010E-002    -1.9462345984727705     
   8.6399999999999991E-002    -2.0186608342673154     
   8.6699999999999999E-002    -2.0178533410085180     
   8.7000000000000008E-002    -1.9404909341482779     
   8.7300000000000003E-002    -1.7862407627421353     
   8.7599999999999997E-002    -1.5594872458225124     
   8.7900000000000006E-002    -1.2686234963957668     
   8.8200000000000014E-002   -0.92646469375652885     
   8.8499999999999995E-002   -0.54999228043389647     
   8.8800000000000004E-002   -0.15872526979330714     
   8.9100000000000013E-002    0.22567650170679854     
   8.9399999999999993E-002    0.58165326443377818     
   8.9700000000000002E-002    0.88906268283447343     
   9.0000000000000011E-002     1.1303980531895790     
   9.0299999999999991E-002     1.2931372042692375     
   9.0600000000000000E-002     1.3694466145220727     
   9.0900000000000009E-002     1.3577962162285138     
   9.1200000000000017E-002     1.2626681590401838     
   9.1499999999999998E-002     1.0936677265785022     
   9.1800000000000007E-002    0.86568257377458691     
   9.2100000000000001E-002    0.59648007665505576     
   9.2399999999999996E-002    0.30627372497939187     
   9.2700000000000005E-002     1.5963725171760201E-002
   9.3000000000000013E-002   -0.25470936715698045     
   9.3300000000000008E-002   -0.48765048308864434     
   9.3600000000000003E-002   -0.66838362725506351     
   9.3899999999999997E-002   -0.78597427213461513     
   9.4200000000000006E-002   -0.83383237610289651     
   9.4500000000000001E-002   -0.81010528320674258     
   9.4800000000000009E-002   -0.71686095625962221     
   9.5100000000000004E-002   -0.56051979858238887     
   9.5399999999999999E-002   -0.35087474313953493     
   9.5699999999999993E-002   -0.10037607205401006     
   9.6000000000000002E-002    0.17629035745992866     
   9.6300000000000011E-002    0.46360273875906899     
   9.6600000000000005E-002    0.74536124089226252     
   9.6900000000000000E-002     1.0058849362479982     
   9.7200000000000009E-002     1.2309180576345564     
   9.7499999999999989E-002     1.4077879578448282     
   9.7799999999999998E-002     1.5265449634645762     
   9.8100000000000007E-002     1.5801583374252368     
   9.8400000000000015E-002     1.5646462220420607     
   9.8699999999999996E-002     1.4795864010780921     
   9.9000000000000005E-002     1.3275858600582180     
   9.9300000000000013E-002     1.1144429005916558     
   9.9599999999999994E-002    0.84863408586409772     
   9.9900000000000003E-002    0.54064058469092058     
  0.10020000000000001         0.20290721916171151     
  0.10049999999999999        -0.15163470909935750     
  0.10080000000000000        -0.50936854223476669     
  0.10110000000000001        -0.85681507173214744     
  0.10140000000000000         -1.1816565057773303     
  0.10170000000000000         -1.4724168662323052     
  0.10200000000000001         -1.7194532490836008     
  0.10230000000000002         -1.9149032523965932     
  0.10260000000000000         -2.0531585049242342     
  0.10290000000000001         -2.1308008162490211     
  0.10320000000000000         -2.1465509546522208     
  0.10350000000000001         -2.1020682459279474     
  0.10380000000000000         -2.0008454410317542     
  0.10410000000000001         -1.8483268467804512     
  0.10440000000000001         -1.6521252647554441     
  0.10470000000000000         -1.4208819540121440     
  0.10500000000000000         -1.1641325011028125     
  0.10530000000000000        -0.89158040405626870     
  0.10560000000000000        -0.61249409228823326     
  0.10590000000000001        -0.33527229678103976     
  0.10620000000000000         -6.6516278923571218E-002
  0.10650000000000001         0.18868751945271456     
  0.10679999999999999         0.42729912902281247     
  0.10710000000000000         0.64819332951952235     
  0.10740000000000001         0.85164422399405315     
  0.10770000000000000          1.0389285907373595     
  0.10800000000000000          1.2114320062439914     
  0.10830000000000001          1.3704320117870754     
  0.10859999999999999          1.5160268608759089     
  0.10890000000000000          1.6467586449822622     
  0.10920000000000001          1.7598800077321122     
  0.10950000000000001          1.8504699594801195     
  0.10979999999999999          1.9128051333695932     
  0.11009999999999999          1.9400637600543376     
  0.11040000000000001          1.9253837054649612     
  0.11070000000000001          1.8628960143338520     
  0.11100000000000000          1.7479821289793525     
  0.11130000000000000          1.5784415794117825     
  0.11160000000000002          1.3545529777936942     
  0.11190000000000001          1.0798095492599935     
  0.11220000000000001         0.76071997864080809     
  0.11250000000000000         0.40640524121031796     
  0.11280000000000000          2.9162452690114443E-002
  0.11309999999999999        -0.35718163893241628     
  0.11340000000000001        -0.73735470250794566     
  0.11369999999999998         -1.0949729656819063     
  0.11400000000000000         -1.4142237600634164     
  0.11430000000000000         -1.6797204891616395     
  0.11460000000000002         -1.8782545644102719     
  0.11489999999999999         -1.9989180061801859     
  0.11520000000000001         -2.0339347626210529     
  0.11550000000000001         -1.9800715334679766     
  0.11580000000000000         -1.8379216376501053     
  0.11609999999999999         -1.6133945192822157     
  0.11640000000000002         -1.3166735343304210     
  0.11670000000000001        -0.96217535673504928     
  0.11700000000000001        -0.56812692296668699     
  0.11730000000000000        -0.15461145925263309     
  0.11760000000000000         0.25679519282112379     
  0.11789999999999999         0.64555365673814302     
  0.11820000000000001         0.99305317605268817     
  0.11850000000000001          1.2838291766044003     
  0.11880000000000000          1.5074956139015012     
  0.11910000000000000          1.6583958417783808     
  0.11940000000000002          1.7364410094264155     
  0.11970000000000001          1.7466831858780429     
  0.12000000000000001          1.6981007507658701     
  0.12030000000000000          1.6028953674895343     
  0.12060000000000000          1.4750455369878823     
  0.12089999999999999          1.3284934202673222     
  0.12119999999999999          1.1760784824996287     
  0.12150000000000001          1.0282178930412553     
  0.12180000000000001         0.89222541111808829     
  0.12210000000000000         0.77178961734549900     
  0.12239999999999999         0.66713404574737423     
  0.12270000000000002         0.57539225362440727     
  0.12300000000000001         0.49116591476779714     
  0.12330000000000001         0.40743264434523435     
  0.12360000000000000         0.31711805194739295     
  0.12390000000000000         0.21324444577091173     
  0.12419999999999999          8.9957268607349650E-002
  0.12450000000000001         -5.6109290102590179E-002
  0.12480000000000001        -0.22663353715982776     
  0.12509999999999999        -0.42015675305278682     
  0.12540000000000001        -0.63323796094198270     
  0.12570000000000003        -0.86025469709340940     
  0.12600000000000000         -1.0931157156493954     
  0.12630000000000002         -1.3237426561350683     
  0.12659999999999999         -1.5422378195783704     
  0.12690000000000001         -1.7391071630203294     
  0.12719999999999998         -1.9055185236511401     
  0.12750000000000000         -2.0329209532821269     
  0.12780000000000002         -2.1153763247243891     
  0.12809999999999999         -2.1477753148122525     
  0.12840000000000001         -2.1277053593437785     
  0.12869999999999998         -2.0554689541125200     
  0.12900000000000000         -1.9330987633748951     
  0.12930000000000003         -1.7660473420148093     
  0.12959999999999999         -1.5612396069937751     
  0.12990000000000002         -1.3280848410913872     
  0.13019999999999998         -1.0773376205007106     
  0.13050000000000000        -0.81998979282967044     
  0.13080000000000003        -0.56791640479431993     
  0.13109999999999999        -0.33120088004331860     
  0.13140000000000002        -0.11916317147749750     
  0.13169999999999998          6.1555929967354373E-002
  0.13200000000000001         0.20754278361815282     
  0.13229999999999997         0.31786374704225739     
  0.13260000000000000         0.39561092785685814     
  0.13290000000000002         0.44630106248651968     
  0.13319999999999999         0.47775994772793684     
  0.13350000000000001         0.50010302957489627     
  0.13380000000000003         0.52275023679124855     
  0.13410000000000000         0.55506842288773495     
  0.13440000000000002         0.60424137748860463     
  0.13469999999999999         0.67441733890360345     
  0.13500000000000001         0.76653558986223136     
  0.13529999999999998         0.87711333954058812     
  0.13560000000000000         0.99941059479207128     
  0.13590000000000002          1.1235435520380108     
  0.13619999999999999          1.2375690703369702     
  0.13650000000000001          1.3291419870229348     
  0.13680000000000003          1.3866642196813161     
  0.13710000000000000          1.4008780203125548     
  0.13740000000000002          1.3663774131102016     
  0.13769999999999999          1.2819607852564943     
  0.13800000000000001          1.1509670046696279     
  0.13829999999999998         0.98160297017564346     
  0.13860000000000000         0.78478772357867954     
  0.13890000000000002         0.57416949377855286     
  0.13919999999999999         0.36381882802711507     
  0.13950000000000001         0.16599264190459001     
  0.13979999999999998         -8.8878466281977486E-003
  0.14010000000000000        -0.15494854964534824     
  0.14040000000000002        -0.27045431429855638     
  0.14069999999999999        -0.35773435410395638     
  0.14100000000000001        -0.42334829370488819     
  0.14130000000000004        -0.47536903321428614     
  0.14160000000000000        -0.52312779391155062     
  0.14189999999999997        -0.57489382563496405     
  0.14219999999999999        -0.63613341235244047     
  0.14250000000000002        -0.70952941634369937     
  0.14279999999999998        -0.79310848632419462     
  0.14310000000000000        -0.88156757115497197     
  0.14339999999999997        -0.96653372730925646     
  0.14369999999999999         -1.0377095147536732     
  0.14400000000000002         -1.0854981506058161     
  0.14429999999999998         -1.1012212261147081     
  0.14460000000000001         -1.0796978401493125     
  0.14490000000000003         -1.0194387023209421     
  0.14520000000000000        -0.92325226636313240     
  0.14550000000000002        -0.79798632900506117     
  0.14579999999999999        -0.65324994294862848     
  0.14610000000000001        -0.50084216652120161     
  0.14640000000000003        -0.35202278207545651     
  0.14670000000000000        -0.21717847485887459     
  0.14699999999999996        -0.10414757166498115     
  0.14729999999999999         -1.6172655501503291E-002
  0.14760000000000001          4.5757038591261803E-002
  0.14789999999999998          8.5182007866948073E-002
  0.14820000000000000         0.10812782659085399     