  -1.4999999999999999E-002     0.0000000000000000     
  -1.4700000000000000E-002     0.0000000000000000     
  -1.4400000000000000E-002     0.0000000000000000     
  -1.4100000000000000E-002     0.0000000000000000     
  -1.3800000000000000E-002     0.0000000000000000     
  -1.3500000000000000E-002     0.0000000000000000     
  -1.3200000000000000E-002     0.0000000000000000     
  -1.2899999999999998E-002     0.0000000000000000     
  -1.2600000000000000E-002     0.0000000000000000     
  -1.2299999999999998E-002     0.0000000000000000     
  -1.2000000000000000E-002     0.0000000000000000     
  -1.1699999999999999E-002     0.0000000000000000     
  -1.1399999999999999E-002     0.0000000000000000     
  -1.1099999999999999E-002     0.0000000000000000     
  -1.0799999999999999E-002     0.0000000000000000     
  -1.0499999999999999E-002     0.0000000000000000     
  -1.0199999999999999E-002     0.0000000000000000     
  -9.8999999999999991E-003     0.0000000000000000     
  -9.5999999999999992E-003     0.0000000000000000     
  -9.2999999999999992E-003     0.0000000000000000     
  -8.9999999999999993E-003     0.0000000000000000     
  -8.6999999999999994E-003     0.0000000000000000     
  -8.3999999999999995E-003     0.0000000000000000     
  -8.0999999999999996E-003     0.0000000000000000     
  -7.7999999999999988E-003     0.0000000000000000     
  -7.4999999999999997E-003     0.0000000000000000     
  -7.1999999999999998E-003     0.0000000000000000     
  -6.8999999999999981E-003     0.0000000000000000     
  -6.5999999999999982E-003     0.0000000000000000     
  -6.3000000000000000E-003     0.0000000000000000     
  -6.0000000000000001E-003     0.0000000000000000     
  -5.6999999999999985E-003     0.0000000000000000     
  -5.3999999999999986E-003     0.0000000000000000     
  -5.1000000000000004E-003     0.0000000000000000     
  -4.7999999999999987E-003     0.0000000000000000     
  -4.5000000000000005E-003     0.0000000000000000     
  -4.1999999999999989E-003     0.0000000000000000     
  -3.8999999999999990E-003     0.0000000000000000     
  -3.5999999999999990E-003     0.0000000000000000     
  -3.2999999999999991E-003     0.0000000000000000     
  -2.9999999999999992E-003     0.0000000000000000     
  -2.6999999999999993E-003     0.0000000000000000     
  -2.3999999999999994E-003     0.0000000000000000     
  -2.0999999999999977E-003     0.0000000000000000     
  -1.7999999999999995E-003     0.0000000000000000     
  -1.4999999999999979E-003     0.0000000000000000     
  -1.1999999999999997E-003     0.0000000000000000     
  -8.9999999999999976E-004     0.0000000000000000     
  -5.9999999999999810E-004     0.0000000000000000     
  -2.9999999999999992E-004     0.0000000000000000     
   0.0000000000000000          0.0000000000000000     
   3.0000000000000165E-004     0.0000000000000000     
   5.9999999999999984E-004     0.0000000000000000     
   9.0000000000000149E-004     0.0000000000000000     
   1.2000000000000031E-003     0.0000000000000000     
   1.5000000000000013E-003     0.0000000000000000     
   1.8000000000000030E-003     0.0000000000000000     
   2.1000000000000012E-003     0.0000000000000000     
   2.3999999999999994E-003     0.0000000000000000     
   2.7000000000000010E-003     0.0000000000000000     
   2.9999999999999992E-003     0.0000000000000000     
   3.3000000000000008E-003     0.0000000000000000     
   3.6000000000000025E-003     0.0000000000000000     
   3.9000000000000007E-003     0.0000000000000000     
   4.2000000000000023E-003     0.0000000000000000     
   4.5000000000000005E-003     0.0000000000000000     
   4.7999999999999987E-003     0.0000000000000000     
   5.1000000000000004E-003     0.0000000000000000     
   5.4000000000000020E-003     0.0000000000000000     
   5.7000000000000037E-003     0.0000000000000000     
   5.9999999999999984E-003     0.0000000000000000     
   6.3000000000000000E-003     0.0000000000000000     
   6.6000000000000017E-003     0.0000000000000000     
   6.9000000000000034E-003     0.0000000000000000     
   7.2000000000000015E-003     0.0000000000000000     
   7.5000000000000032E-003     0.0000000000000000     
   7.8000000000000014E-003     0.0000000000000000     
   8.0999999999999996E-003     0.0000000000000000     
   8.4000000000000012E-003     0.0000000000000000     
   8.7000000000000029E-003     0.0000000000000000     
   9.0000000000000011E-003     0.0000000000000000     
   9.2999999999999992E-003     0.0000000000000000     
   9.6000000000000009E-003     0.0000000000000000     
   9.8999999999999991E-003     0.0000000000000000     
   1.0200000000000001E-002     0.0000000000000000     
   1.0500000000000002E-002     0.0000000000000000     
   1.0800000000000004E-002     0.0000000000000000     
   1.1099999999999999E-002     0.0000000000000000     
   1.1400000000000000E-002     0.0000000000000000     
   1.1700000000000002E-002     0.0000000000000000     
   1.2000000000000004E-002     0.0000000000000000     
   1.2300000000000002E-002     0.0000000000000000     
   1.2600000000000000E-002     0.0000000000000000     
   1.2900000000000002E-002     0.0000000000000000     
   1.3200000000000000E-002     0.0000000000000000     
   1.3500000000000002E-002     0.0000000000000000     
   1.3800000000000003E-002     0.0000000000000000     
   1.4100000000000001E-002     0.0000000000000000     
   1.4400000000000000E-002     0.0000000000000000     
   1.4700000000000001E-002     0.0000000000000000     
   1.4999999999999999E-002     0.0000000000000000     
   1.5300000000000001E-002     0.0000000000000000     
   1.5600000000000003E-002     0.0000000000000000     
   1.5899999999999997E-002     0.0000000000000000     
   1.6199999999999999E-002     0.0000000000000000     
   1.6500000000000001E-002     0.0000000000000000     
   1.6800000000000002E-002     0.0000000000000000     
   1.7100000000000004E-002     0.0000000000000000     
   1.7400000000000006E-002     0.0000000000000000     
   1.7700000000000000E-002     0.0000000000000000     
   1.8000000000000002E-002     0.0000000000000000     
   1.8300000000000004E-002     0.0000000000000000     
   1.8600000000000005E-002     0.0000000000000000     
   1.8900000000000000E-002     0.0000000000000000     
   1.9200000000000002E-002     0.0000000000000000     
   1.9500000000000003E-002     0.0000000000000000     
   1.9799999999999998E-002     0.0000000000000000     
   2.0100000000000000E-002     0.0000000000000000     
   2.0400000000000001E-002     0.0000000000000000     
   2.0700000000000003E-002     0.0000000000000000     
   2.0999999999999998E-002     0.0000000000000000     
   2.1299999999999999E-002     0.0000000000000000     
   2.1600000000000001E-002     0.0000000000000000     
   2.1900000000000003E-002     0.0000000000000000     
   2.2200000000000004E-002     0.0000000000000000     
   2.2500000000000006E-002     0.0000000000000000     
   2.2800000000000001E-002     0.0000000000000000     
   2.3100000000000002E-002     0.0000000000000000     
   2.3400000000000004E-002     0.0000000000000000     
   2.3699999999999999E-002     0.0000000000000000     
   2.4000000000000000E-002     0.0000000000000000     
   2.4300000000000002E-002     0.0000000000000000     
   2.4599999999999997E-002     0.0000000000000000     
   2.4900000000000005E-002     0.0000000000000000     
   2.5200000000000000E-002     0.0000000000000000     
   2.5499999999999995E-002     0.0000000000000000     
   2.5800000000000003E-002     0.0000000000000000     
   2.6099999999999998E-002     0.0000000000000000     
   2.6400000000000007E-002     0.0000000000000000     
   2.6700000000000002E-002     0.0000000000000000     
   2.6999999999999996E-002     0.0000000000000000     
   2.7300000000000005E-002     0.0000000000000000     
   2.7600000000000000E-002     0.0000000000000000     
   2.7900000000000008E-002     0.0000000000000000     
   2.8200000000000003E-002     0.0000000000000000     
   2.8499999999999998E-002     0.0000000000000000     
   2.8800000000000006E-002     0.0000000000000000     
   2.9100000000000001E-002     0.0000000000000000     
   2.9400000000000003E-002     0.0000000000000000     
   2.9700000000000004E-002     0.0000000000000000     
   3.0000000000000006E-002     0.0000000000000000     
   3.0300000000000001E-002     0.0000000000000000     
   3.0600000000000002E-002     0.0000000000000000     
   3.0900000000000004E-002     0.0000000000000000     
   3.1199999999999999E-002     0.0000000000000000     
   3.1500000000000007E-002     0.0000000000000000     
   3.1800000000000002E-002     0.0000000000000000     
   3.2099999999999997E-002     0.0000000000000000     
   3.2400000000000005E-002     0.0000000000000000     
   3.2700000000000000E-002     0.0000000000000000     
   3.3000000000000002E-002     0.0000000000000000     
   3.3300000000000003E-002     0.0000000000000000     
   3.3599999999999998E-002    -4.7287804594845031E-044
   3.3900000000000000E-002     1.5608523482308391E-042
   3.4200000000000001E-002    -8.3095199012072683E-042
   3.4500000000000003E-002    -9.1830327612337418E-038
   3.4799999999999998E-002     2.7145162130706878E-037
   3.5099999999999999E-002    -2.6964018894675735E-037
   3.5400000000000001E-002     7.0239571494254672E-037
   3.5699999999999996E-002     6.9150261892415311E-035
   3.6000000000000004E-002    -4.6337568212851419E-034
   3.6299999999999999E-002     1.6390259746143032E-033
   3.6600000000000008E-002    -3.3435914795978869E-033
   3.6900000000000002E-002     4.7146180640614288E-033
   3.7199999999999997E-002    -4.9379461139825170E-033
   3.7500000000000006E-002    -2.0533078216981254E-034
   3.7800000000000000E-002     2.3180956109868367E-032
   3.8100000000000009E-002    -9.6962487291177469E-032
   3.8400000000000004E-002     2.8079458654967248E-031
   3.8699999999999998E-002    -6.4406291743090268E-031
   3.9000000000000007E-002     1.2043897768418585E-030
   3.9300000000000002E-002    -1.7787851323078076E-030
   3.9600000000000003E-002     1.7408033410321932E-030
   3.9900000000000005E-002     3.1291466244730197E-031
   4.0200000000000000E-002    -7.4343979166252674E-030
   4.0500000000000001E-002     2.7807279583002651E-029
   4.0800000000000003E-002    -8.5936921451596233E-029
   4.1100000000000005E-002     2.4571961559640360E-028
   4.1399999999999999E-002    -6.2333090521139159E-028
   4.1700000000000008E-002     1.2735610901793289E-027
   4.2000000000000003E-002    -1.6531800689886238E-027
   4.2299999999999997E-002    -6.8859392091910812E-028
   4.2600000000000006E-002     1.1576929371230377E-026
   4.2900000000000001E-002    -3.7271491859420902E-026
   4.3200000000000002E-002     6.3832735307730807E-026
   4.3500000000000004E-002     2.3299385700133553E-027
   4.3799999999999999E-002    -4.2381870902510725E-025
   4.4100000000000000E-002     1.5340070174192760E-024
   4.4400000000000002E-002    -2.3544455847299005E-024
   4.4700000000000004E-002    -6.4818127480924660E-024
   4.4999999999999998E-002     7.1934486172933983E-023
   4.5300000000000000E-002    -3.8774706450944768E-022
   4.5600000000000002E-002     1.6714676267554255E-021
   4.5899999999999996E-002    -6.3489179046726634E-021
   4.6200000000000005E-002     2.1820518752453742E-020
   4.6500000000000000E-002    -6.7759359027222977E-020
   4.6799999999999994E-002     1.8588662145164916E-019
   4.7100000000000003E-002    -4.2462890955849779E-019
   4.7399999999999998E-002     6.6372616701137813E-019
   4.7700000000000006E-002     1.7698375739669548E-019
   4.8000000000000001E-002    -6.6520494635214935E-018
   4.8300000000000010E-002     3.2448885041829287E-017
   4.8600000000000004E-002    -1.0618110787057747E-016
   4.8899999999999999E-002     2.5024140345267615E-016
   4.9200000000000008E-002    -3.3296449932423149E-016
   4.9500000000000002E-002    -4.2308435728083962E-016
   4.9800000000000011E-002     4.3799660528267694E-015
   5.0100000000000006E-002    -1.5486812811335242E-014
   5.0400000000000000E-002     3.1803624715446611E-014
   5.0700000000000009E-002    -1.5827553954239920E-014
   5.1000000000000004E-002    -1.6128707068292696E-013
   5.1299999999999998E-002     6.9970864374113071E-013
   5.1600000000000007E-002    -1.3833649398748706E-012
   5.1900000000000002E-002     7.4683217699375085E-014
   5.2200000000000010E-002     8.6362526483858641E-012
   5.2500000000000005E-002    -2.6890550773191937E-011
   5.2800000000000000E-002     2.4894536885118451E-011
   5.3099999999999994E-002     9.3656601332430445E-011
   5.3400000000000003E-002    -3.8764785906125716E-010
   5.3699999999999998E-002     3.9247139838447379E-010
   5.4000000000000006E-002     1.3078079736521812E-009
   5.4300000000000001E-002    -4.8346257470629105E-009
   5.4599999999999996E-002     1.9528888960201408E-009
   5.4900000000000004E-002     2.2135700220549258E-008
   5.5199999999999999E-002    -4.2103359226443130E-008
   5.5499999999999994E-002    -5.9840547867560312E-008
   5.5800000000000002E-002     2.6065344334591279E-007
   5.6099999999999997E-002     8.3211585323046343E-008
   5.6400000000000006E-002    -1.2924183058625173E-006
   5.6700000000000000E-002    -6.5271206336057234E-008
   5.6999999999999995E-002     8.4671080055755563E-006
   5.7300000000000004E-002     1.9580069341246140E-005
   5.7599999999999998E-002     2.4385007122768356E-005
   5.7900000000000007E-002     2.6112791208524313E-005
   5.8200000000000002E-002     3.5909156240355192E-005
   5.8499999999999996E-002     5.6838453619958125E-005
   5.8800000000000005E-002     8.7010875891253701E-005
   5.9100000000000000E-002     1.3024741953896000E-004
   5.9400000000000008E-002     1.9366128440146695E-004
   5.9700000000000003E-002     2.8272297690200082E-004
   6.0000000000000012E-002     4.0461369613768359E-004
   6.0300000000000006E-002     5.7193311071504016E-004
   6.0600000000000001E-002     7.9521555821657674E-004
   6.0900000000000010E-002     1.0765561787256703E-003
   6.1200000000000004E-002     1.4232464173793561E-003
   6.1500000000000013E-002     1.8511419101144627E-003
   6.1800000000000008E-002     2.3589032189387463E-003
   6.2100000000000002E-002     2.9222572100694286E-003
   6.2399999999999997E-002     3.5106600235542754E-003
   6.2700000000000006E-002     4.0775371278315084E-003
   6.3000000000000000E-002     4.5418282423646712E-003
   6.3300000000000009E-002     4.7867466223346375E-003
   6.3600000000000004E-002     4.6578914126395397E-003
   6.3899999999999998E-002     3.9654520425731641E-003
   6.4199999999999993E-002     2.4925181966450618E-003
   6.4500000000000002E-002    -1.3151122961861271E-006
   6.4800000000000010E-002    -3.7673058515003939E-003
   6.5100000000000005E-002    -9.0441867243619481E-003
   6.5400000000000000E-002    -1.6018713837253222E-002
   6.5700000000000008E-002    -2.4764116941429739E-002
   6.5999999999999989E-002    -3.5190337063399392E-002
   6.6299999999999998E-002    -4.7019005872208808E-002
   6.6600000000000006E-002    -5.9746567567284317E-002
   6.6900000000000001E-002    -7.2595551129056898E-002
   6.7199999999999996E-002    -8.4495276457966173E-002
   6.7500000000000004E-002    -9.4118722171236971E-002
   6.7800000000000013E-002    -9.9956432229856715E-002
   6.8099999999999994E-002   -0.10039881005498495     
   6.8400000000000002E-002    -9.3868627852894099E-002
   6.8700000000000011E-002    -7.8990624158425254E-002
   6.8999999999999992E-002    -5.4804708949999337E-002
   6.9300000000000000E-002    -2.0942465245113128E-002
   6.9600000000000009E-002     2.2211781043486534E-002
   6.9900000000000004E-002     7.3401640585551209E-002
   7.0199999999999999E-002    0.13042722085156483     
   7.0500000000000007E-002    0.19020169571975618     
   7.0800000000000016E-002    0.24887395316125049     
   7.1099999999999997E-002    0.30211206095367860     
   7.1400000000000005E-002    0.34543498222733127     
   7.1700000000000000E-002    0.37458641001164916     
   7.1999999999999995E-002    0.38602519778715239     
   7.2300000000000003E-002    0.37732996733097041     
   7.2600000000000012E-002    0.34753945245340812     
   7.2900000000000006E-002    0.29740976001830183     
   7.3200000000000001E-002    0.22949944864640404     
   7.3499999999999996E-002    0.14804404722873948     
   7.3800000000000004E-002     5.8718446971207094E-002
   7.4099999999999999E-002    -3.1869099885087793E-002
   7.4400000000000008E-002   -0.11671864903929105     
   7.4700000000000003E-002   -0.18912530802396166     
   7.5000000000000011E-002   -0.24339195477017728     
   7.5299999999999992E-002   -0.27537772569200680     
   7.5600000000000001E-002   -0.28301717597839338     
   7.5900000000000009E-002   -0.26661349882946844     
   7.6200000000000004E-002   -0.22883305113035024     
   7.6499999999999999E-002   -0.17453702303675972     
   7.6800000000000007E-002   -0.11036371072611217     
   7.7099999999999988E-002    -4.4045941335530636E-002
   7.7399999999999997E-002     1.6317707223101524E-002
   7.7700000000000005E-002     6.3100439529613833E-002
   7.8000000000000014E-002     8.9926797208836048E-002
   7.8299999999999995E-002     9.2354684469456105E-002
   7.8600000000000003E-002     6.8390019494324300E-002
   7.8900000000000012E-002     1.8706965400269653E-002
   7.9199999999999993E-002    -5.3346840760764826E-002
   7.9500000000000001E-002   -0.14200748215146303     
   7.9800000000000010E-002   -0.23966707896583406     
   8.0100000000000018E-002   -0.33754133750864007     
   8.0399999999999999E-002   -0.42644435087411953     
   8.0700000000000008E-002   -0.49769633851527029     
   8.1000000000000003E-002   -0.54391744903282235     
   8.1299999999999997E-002   -0.55968479571075425     
   8.1600000000000006E-002   -0.54201288249451907     
   8.1900000000000014E-002   -0.49066294567986835     
   8.2199999999999995E-002   -0.40815726457295287     
   8.2500000000000004E-002   -0.29951433310006526     
   8.2799999999999999E-002   -0.17190664107060252     
   8.3100000000000007E-002    -3.3953670999165728E-002
   8.3400000000000002E-002    0.10488376219028087     
   8.3700000000000011E-002    0.23507938696143671     
   8.4000000000000005E-002    0.34781365305958950     
   8.4300000000000000E-002    0.43547269794126131     
   8.4599999999999995E-002    0.49229330782080405     
   8.4900000000000003E-002    0.51474507645011525     
   8.5199999999999998E-002    0.50149989713442455     
   8.5500000000000007E-002    0.45368480195778771     
   8.5800000000000001E-002    0.37464247632470671     
   8.6100000000000010E-002    0.26954422412023016     
   8.6399999999999991E-002    0.14521116402495038     
   8.6699999999999999E-002     9.5047418509534992E-003
   8.7000000000000008E-002   -0.12912256441753100     
   8.7300000000000003E-002   -0.26203602071007459     
   8.7599999999999997E-002   -0.38103210405023852     
   8.7900000000000006E-002   -0.47867066264654456     
   8.8200000000000014E-002   -0.54867030609339151     
   8.8499999999999995E-002   -0.58632935807639730     
   8.8800000000000004E-002   -0.58859455957081064     
   8.9100000000000013E-002   -0.55432496493216643     
   8.9399999999999993E-002   -0.48442365333294313     
   8.9700000000000002E-002   -0.38170878984245576     
   9.0000000000000011E-002   -0.25084575136531884     
   9.0299999999999991E-002    -9.8139207608090057E-002
   9.0600000000000000E-002     6.8717649311675788E-002
   9.0900000000000009E-002    0.24109543392493876     
   9.1200000000000017E-002    0.40986420730357198     
   9.1499999999999998E-002    0.56584618829919742     
   9.1800000000000007E-002    0.70036653203644650     
   9.2100000000000001E-002    0.80580905363216326     
   9.2399999999999996E-002    0.87599310821658616     
   9.2700000000000005E-002    0.90676265342901030     
   9.3000000000000013E-002    0.89615309731040438     
   9.3300000000000008E-002    0.84460235691712504     
   9.3600000000000003E-002    0.75516533851810985     
   9.3899999999999997E-002    0.63315626453324214     
   9.4200000000000006E-002    0.48605671138263618     
   9.4500000000000001E-002    0.32306326363782545     
   9.4800000000000009E-002    0.15439778351453753     
   9.5100000000000004E-002    -9.2042295862033198E-003
   9.5399999999999999E-002   -0.15727232523421189     
   9.5699999999999993E-002   -0.28044562775143511     
   9.6000000000000002E-002   -0.37109216266179829     
   9.6300000000000011E-002   -0.42387741785755872     
   9.6600000000000005E-002   -0.43631681674553036     
   9.6900000000000000E-002   -0.40889266242775540     
   9.7200000000000009E-002   -0.34514056668992216     
   9.7499999999999989E-002   -0.25133405474594711     
   9.7799999999999998E-002   -0.13598047050212253     
   9.8100000000000007E-002    -9.2245737630813444E-003
   9.8400000000000015E-002    0.11806302477357282     
   9.8699999999999996E-002    0.23514701243457620     
   9.9000000000000005E-002    0.33232939802499684     
   9.9300000000000013E-002    0.40174454470552823     
   9.9599999999999994E-002    0.43784005515053581     
   9.9900000000000003E-002    0.43798326902850471     
  0.10020000000000001         0.40241895064473232     
  0.10049999999999999         0.33404025287320227     
  0.10080000000000000         0.23821107574270750     
  0.10110000000000001         0.12199360664769660     
  0.10140000000000000         -6.5908860594005268E-003
  0.10170000000000000        -0.13918188401877532     
  0.10200000000000001        -0.26794034878314299     
  0.10230000000000002        -0.38627864148424629     
  0.10260000000000000        -0.48905747255017573     
  0.10290000000000001        -0.57303198992998805     
  0.10320000000000000        -0.63692792278497168     
  0.10350000000000001        -0.68110570212194677     
  0.10380000000000000        -0.70740509807440344     
  0.10410000000000001        -0.71862315723182224     
  0.10440000000000001        -0.71783372168492188     
  0.10470000000000000        -0.70828487582907951     
  0.10500000000000000        -0.69259371969063366     
  0.10530000000000000        -0.67245927361204116     
  0.10560000000000000        -0.64881663811239376     
  0.10590000000000001        -0.62137564790769872     
  0.10620000000000000        -0.58898144920284756     
  0.10650000000000001        -0.54992652709391332     
  0.10679999999999999        -0.50203827579514171     
  0.10710000000000000        -0.44333123511332240     
  0.10740000000000001        -0.37235703203708037     
  0.10770000000000000        -0.28831493790315688     
  0.10800000000000000        -0.19154962622087979     
  0.10830000000000001         -8.3531394149561636E-002
  0.10859999999999999          3.3111421334707722E-002
  0.10890000000000000         0.15468820525815252     
  0.10920000000000001         0.27686357626209823     
  0.10950000000000001         0.39472198621328525     
  0.10979999999999999         0.50347021241177559     
  0.11009999999999999         0.59850876042830847     
  0.11040000000000001         0.67598344264686205     
  0.11070000000000001         0.73319407190543662     
  0.11100000000000000         0.76837203158755407     
  0.11130000000000000         0.78122302117762055     
  0.11160000000000002         0.77263731295087945     
  0.11190000000000001         0.74445868930567283     
  0.11220000000000001         0.69963778449797787     
  0.11250000000000000         0.64148647332163600     
  0.11280000000000000         0.57356386739438736     
  0.11309999999999999         0.49950875641687709     
  0.11340000000000001         0.42228851190902411     
  0.11369999999999998         0.34451421361327816     
  0.11400000000000000         0.26814936856501764     
  0.11430000000000000         0.19408547574891780     
  0.11460000000000002         0.12284930706084471     
  0.11489999999999999          5.4414647447887710E-002
  0.11520000000000001         -1.1609848153049088E-002
  0.11550000000000001         -7.5333682626359769E-002
  0.11580000000000000        -0.13684590151767476     
  0.11609999999999999        -0.19548371953019389     
  0.11640000000000002        -0.24962747251844797     
  0.11670000000000001        -0.29735936764458337     
  0.11700000000000001        -0.33569970555464657     
  0.11730000000000000        -0.36099589499219997     
  0.11760000000000000        -0.36967773754213262     
  0.11789999999999999        -0.35807921621582617     
  0.11820000000000001        -0.32320667921685386     
  0.11850000000000001        -0.26315965221208765     
  0.11880000000000000        -0.17731965790421239     
  0.11910000000000000         -6.6951795376851905E-002
  0.11940000000000002          6.4964921749446694E-002
  0.11970000000000001         0.21369839417162964     
  0.12000000000000001         0.37263387664254827     
  0.12030000000000000         0.53411213360784171     
  0.12060000000000000         0.68977639660580048     
  0.12089999999999999         0.83083394768975138     
  0.12119999999999999         0.94890110813727824     
  0.12150000000000001          1.0366385371010249     
  0.12180000000000001          1.0881050248847772     
  0.12210000000000000          1.0989510280801627     
  0.12239999999999999          1.0669836688924972     
  0.12270000000000002         0.99208334461784231     
  0.12300000000000001         0.87597575722783327     
  0.12330000000000001         0.72214056506224744     
  0.12360000000000000         0.53583489793167960     
  0.12390000000000000         0.32331205308593625     
  0.12419999999999999          9.1642659943725696E-002
  0.12450000000000001        -0.15145124256421844     
  0.12480000000000001        -0.39816092820288917     
  0.12509999999999999        -0.64067565673752702     
  0.12540000000000001        -0.87137674742979510     
  0.12570000000000003         -1.0831778515442685     
  0.12600000000000000         -1.2696315581733315     
  0.12630000000000002         -1.4248862947496985     
  0.12659999999999999         -1.5440608907435411     
  0.12690000000000001         -1.6232666937112668     
  0.12719999999999998         -1.6597160761058345     
  0.12750000000000000         -1.6520098344147081     
  0.12780000000000002         -1.6000665163029293     
  0.12809999999999999         -1.5050745634240479     
  0.12840000000000001         -1.3698680526972149     
  0.12869999999999998         -1.1987148772891645     
  0.12900000000000000        -0.99704910892956877     
  0.12930000000000003        -0.77147157855336801     
  0.12959999999999999        -0.52954171662749938     
  0.12990000000000002        -0.27933750334873847     
  0.13019999999999998         -2.9308888553760654E-002
  0.13050000000000000         0.21214618225926607     
  0.13080000000000003         0.43715502008540297     
  0.13109999999999999         0.63834834465043777     
  0.13140000000000002         0.80941550308342758     
  0.13169999999999998         0.94539559556822383     
  0.13200000000000001          1.0424637975694055     
  0.13229999999999997          1.0984566009708967     
  0.13260000000000000          1.1129315086528020     
  0.13290000000000002          1.0867258395227566     
  0.13319999999999999          1.0222405605718443     
  0.13350000000000001         0.92333716525358467     
  0.13380000000000003         0.79468847994518166     
  0.13410000000000000         0.64218988398438293     
  0.13440000000000002         0.47234288395296276     
  0.13469999999999999         0.29186384852416636     
  0.13500000000000001         0.10796192804587518     
  0.13529999999999998         -7.2380096450454068E-002
  0.13560000000000000        -0.24233700085039603     
  0.13590000000000002        -0.39536193292439725     
  0.13619999999999999        -0.52560316535476992     
  0.13650000000000001        -0.62776292650448584     
  0.13680000000000003        -0.69753177438100988     
  0.13710000000000000        -0.73169747849660138     
  0.13740000000000002        -0.72815954084211454     
  0.13769999999999999        -0.68641198734850684     
  0.13800000000000001        -0.60768673022848840     
  0.13829999999999998        -0.49485224854290510     
  0.13860000000000000        -0.35292560764145137     
  0.13890000000000002        -0.18864277299004403     
  0.13919999999999999         -1.0475653481606978E-002
  0.13950000000000001         0.17159486622567932     
  0.13979999999999998         0.34694597421885487     
  0.14010000000000000         0.50458144272111050     
  0.14040000000000002         0.63395672142574300     
  0.14069999999999999         0.72595272442318337     
  0.14100000000000001         0.77350646993797256     
  0.14130000000000004         0.77233457943165884     
  0.14160000000000000         0.72121770279276542     
  0.14189999999999997         0.62265233023368760     
  0.14219999999999999         0.48265446851386096     
  0.14250000000000002         0.31014373521491351     
  0.14279999999999998         0.11694017662913683     
  0.14310000000000000         -8.3580566337549123E-002
  0.14339999999999997        -0.27733658955215812     
  0.14369999999999999        -0.45033603244192960     
  0.14400000000000002        -0.59042554886039156     
  0.14429999999999998        -0.68763328017712433     
  0.14460000000000001        -0.73488688183226525     
  0.14490000000000003        -0.72922981346178883     
  0.14520000000000000        -0.67105676930330393     
  0.14550000000000002        -0.56452070555256262     
  0.14579999999999999        -0.41727478764345011     
  0.14610000000000001        -0.23889288341116727     
  0.14640000000000003         -4.1100933247319490E-002
  0.14670000000000000         0.16372187536692259     
  0.14699999999999996         0.36374143045049595     
  0.14729999999999999         0.54761201967088480     
  0.14760000000000001         0.70600243391295436     
  0.14789999999999998         0.83182699012249584     
  0.14820000000000000         0.92012292342972568     