  -1.4999999999999999E-002     0.0000000000000000     
  -1.4700000000000000E-002     0.0000000000000000     
  -1.4400000000000000E-002     0.0000000000000000     
  -1.4100000000000000E-002     0.0000000000000000     
  -1.3800000000000000E-002     0.0000000000000000     
  -1.3500000000000000E-002     0.0000000000000000     
  -1.3200000000000000E-002     0.0000000000000000     
  -1.2899999999999998E-002     0.0000000000000000     
  -1.2600000000000000E-002     0.0000000000000000     
  -1.2299999999999998E-002     0.0000000000000000     
  -1.2000000000000000E-002     0.0000000000000000     
  -1.1699999999999999E-002     0.0000000000000000     
  -1.1399999999999999E-002     0.0000000000000000     
  -1.1099999999999999E-002     0.0000000000000000     
  -1.0799999999999999E-002     0.0000000000000000     
  -1.0499999999999999E-002     0.0000000000000000     
  -1.0199999999999999E-002     0.0000000000000000     
  -9.8999999999999991E-003     0.0000000000000000     
  -9.5999999999999992E-003     0.0000000000000000     
  -9.2999999999999992E-003     0.0000000000000000     
  -8.9999999999999993E-003     0.0000000000000000     
  -8.6999999999999994E-003     0.0000000000000000     
  -8.3999999999999995E-003     0.0000000000000000     
  -8.0999999999999996E-003     0.0000000000000000     
  -7.7999999999999988E-003     0.0000000000000000     
  -7.4999999999999997E-003     0.0000000000000000     
  -7.1999999999999998E-003     0.0000000000000000     
  -6.8999999999999981E-003     0.0000000000000000     
  -6.5999999999999982E-003     0.0000000000000000     
  -6.3000000000000000E-003     0.0000000000000000     
  -6.0000000000000001E-003     0.0000000000000000     
  -5.6999999999999985E-003     0.0000000000000000     
  -5.3999999999999986E-003     0.0000000000000000     
  -5.1000000000000004E-003     0.0000000000000000     
  -4.7999999999999987E-003     0.0000000000000000     
  -4.5000000000000005E-003     0.0000000000000000     
  -4.1999999999999989E-003     0.0000000000000000     
  -3.8999999999999990E-003     0.0000000000000000     
  -3.5999999999999990E-003     0.0000000000000000     
  -3.2999999999999991E-003     0.0000000000000000     
  -2.9999999999999992E-003     0.0000000000000000     
  -2.6999999999999993E-003     0.0000000000000000     
  -2.3999999999999994E-003     0.0000000000000000     
  -2.0999999999999977E-003     0.0000000000000000     
  -1.7999999999999995E-003     0.0000000000000000     
  -1.4999999999999979E-003     0.0000000000000000     
  -1.1999999999999997E-003     0.0000000000000000     
  -8.9999999999999976E-004     0.0000000000000000     
  -5.9999999999999810E-004     0.0000000000000000     
  -2.9999999999999992E-004     0.0000000000000000     
   0.0000000000000000          0.0000000000000000     
   3.0000000000000165E-004     0.0000000000000000     
   5.9999999999999984E-004     0.0000000000000000     
   9.0000000000000149E-004     0.0000000000000000     
   1.2000000000000031E-003     0.0000000000000000     
   1.5000000000000013E-003     0.0000000000000000     
   1.8000000000000030E-003     0.0000000000000000     
   2.1000000000000012E-003     0.0000000000000000     
   2.3999999999999994E-003     0.0000000000000000     
   2.7000000000000010E-003     0.0000000000000000     
   2.9999999999999992E-003     0.0000000000000000     
   3.3000000000000008E-003     0.0000000000000000     
   3.6000000000000025E-003     0.0000000000000000     
   3.9000000000000007E-003     0.0000000000000000     
   4.2000000000000023E-003     0.0000000000000000     
   4.5000000000000005E-003     0.0000000000000000     
   4.7999999999999987E-003     0.0000000000000000     
   5.1000000000000004E-003     0.0000000000000000     
   5.4000000000000020E-003     0.0000000000000000     
   5.7000000000000037E-003     0.0000000000000000     
   5.9999999999999984E-003     0.0000000000000000     
   6.3000000000000000E-003     0.0000000000000000     
   6.6000000000000017E-003     0.0000000000000000     
   6.9000000000000034E-003     0.0000000000000000     
   7.2000000000000015E-003     0.0000000000000000     
   7.5000000000000032E-003     0.0000000000000000     
   7.8000000000000014E-003     0.0000000000000000     
   8.0999999999999996E-003     0.0000000000000000     
   8.4000000000000012E-003     0.0000000000000000     
   8.7000000000000029E-003     0.0000000000000000     
   9.0000000000000011E-003     0.0000000000000000     
   9.2999999999999992E-003     0.0000000000000000     
   9.6000000000000009E-003     0.0000000000000000     
   9.8999999999999991E-003     0.0000000000000000     
   1.0200000000000001E-002     0.0000000000000000     
   1.0500000000000002E-002     0.0000000000000000     
   1.0800000000000004E-002     0.0000000000000000     
   1.1099999999999999E-002     0.0000000000000000     
   1.1400000000000000E-002     0.0000000000000000     
   1.1700000000000002E-002     0.0000000000000000     
   1.2000000000000004E-002     0.0000000000000000     
   1.2300000000000002E-002     0.0000000000000000     
   1.2600000000000000E-002     0.0000000000000000     
   1.2900000000000002E-002     0.0000000000000000     
   1.3200000000000000E-002     0.0000000000000000     
   1.3500000000000002E-002     0.0000000000000000     
   1.3800000000000003E-002     0.0000000000000000     
   1.4100000000000001E-002     0.0000000000000000     
   1.4400000000000000E-002     0.0000000000000000     
   1.4700000000000001E-002     0.0000000000000000     
   1.4999999999999999E-002     0.0000000000000000     
   1.5300000000000001E-002     0.0000000000000000     
   1.5600000000000003E-002     0.0000000000000000     
   1.5899999999999997E-002     0.0000000000000000     
   1.6199999999999999E-002     0.0000000000000000     
   1.6500000000000001E-002     0.0000000000000000     
   1.6800000000000002E-002     0.0000000000000000     
   1.7100000000000004E-002     0.0000000000000000     
   1.7400000000000006E-002     0.0000000000000000     
   1.7700000000000000E-002     0.0000000000000000     
   1.8000000000000002E-002     0.0000000000000000     
   1.8300000000000004E-002     0.0000000000000000     
   1.8600000000000005E-002     0.0000000000000000     
   1.8900000000000000E-002     0.0000000000000000     
   1.9200000000000002E-002     0.0000000000000000     
   1.9500000000000003E-002     0.0000000000000000     
   1.9799999999999998E-002     0.0000000000000000     
   2.0100000000000000E-002     0.0000000000000000     
   2.0400000000000001E-002     0.0000000000000000     
   2.0700000000000003E-002     0.0000000000000000     
   2.0999999999999998E-002     0.0000000000000000     
   2.1299999999999999E-002     0.0000000000000000     
   2.1600000000000001E-002     0.0000000000000000     
   2.1900000000000003E-002     0.0000000000000000     
   2.2200000000000004E-002     0.0000000000000000     
   2.2500000000000006E-002     0.0000000000000000     
   2.2800000000000001E-002     0.0000000000000000     
   2.3100000000000002E-002     0.0000000000000000     
   2.3400000000000004E-002     0.0000000000000000     
   2.3699999999999999E-002     0.0000000000000000     
   2.4000000000000000E-002     0.0000000000000000     
   2.4300000000000002E-002     0.0000000000000000     
   2.4599999999999997E-002     0.0000000000000000     
   2.4900000000000005E-002     0.0000000000000000     
   2.5200000000000000E-002     0.0000000000000000     
   2.5499999999999995E-002     0.0000000000000000     
   2.5800000000000003E-002     0.0000000000000000     
   2.6099999999999998E-002     0.0000000000000000     
   2.6400000000000007E-002     0.0000000000000000     
   2.6700000000000002E-002     0.0000000000000000     
   2.6999999999999996E-002     0.0000000000000000     
   2.7300000000000005E-002     0.0000000000000000     
   2.7600000000000000E-002     0.0000000000000000     
   2.7900000000000008E-002     0.0000000000000000     
   2.8200000000000003E-002     0.0000000000000000     
   2.8499999999999998E-002     0.0000000000000000     
   2.8800000000000006E-002     0.0000000000000000     
   2.9100000000000001E-002     2.0624882613922579E-044
   2.9400000000000003E-002     1.1863511799608577E-041
   2.9700000000000004E-002    -6.1456023382614660E-041
   3.0000000000000006E-002    -1.0459116164729192E-037
   3.0300000000000001E-002     1.3219287519629261E-036
   3.0600000000000002E-002    -3.9797858181558835E-036
   3.0900000000000004E-002     2.9372143089538101E-036
   3.1199999999999999E-002     5.6558974577227587E-035
   3.1500000000000007E-002    -3.4620961351019050E-034
   3.1800000000000002E-002     9.6597375999706729E-034
   3.2099999999999997E-002    -2.5692809075113369E-033
   3.2400000000000005E-002     7.8341062347883141E-033
   3.2700000000000000E-002    -2.6462749402214396E-032
   3.3000000000000002E-002     8.3946957773711189E-032
   3.3300000000000003E-002    -2.3869313108867238E-031
   3.3599999999999998E-002     5.9956062057846640E-031
   3.3900000000000000E-002    -1.2931732679281870E-030
   3.4200000000000001E-002     2.2035135033218634E-030
   3.4500000000000003E-002    -1.9645782412617218E-030
   3.4799999999999998E-002    -4.8959266362670707E-030
   3.5099999999999999E-002     3.4355435742478623E-029
   3.5400000000000001E-002    -1.2333737162462383E-028
   3.5699999999999996E-002     3.3615685783683960E-028
   3.6000000000000004E-002    -7.3080991872775620E-028
   3.6299999999999999E-002     1.1841771886243480E-027
   3.6600000000000008E-002    -8.7767826785838242E-028
   3.6900000000000002E-002    -2.7751798661426525E-027
   3.7199999999999997E-002     1.5522512613431209E-026
   3.7500000000000006E-002    -4.5941162566828600E-026
   3.7800000000000000E-002     9.7081641210480933E-026
   3.8100000000000009E-002    -1.3787108326127020E-025
   3.8400000000000004E-002     4.2682266480340412E-026
   3.8699999999999998E-002     4.8101715284401665E-025
   3.9000000000000007E-002    -1.8540453042248004E-024
   3.9300000000000002E-002     4.1643288345297076E-024
   3.9600000000000003E-002    -5.8462598824626565E-024
   3.9900000000000005E-002     1.5368968994186934E-024
   4.0200000000000000E-002     1.8832203776099709E-023
   4.0500000000000001E-002    -6.3666675872096897E-023
   4.0800000000000003E-002     1.1715934661730672E-022
   4.1100000000000005E-002    -1.0062686200654760E-022
   4.1399999999999999E-002    -1.4446132614263280E-022
   4.1700000000000008E-002     7.4647483185487683E-022
   4.2000000000000003E-002    -1.4330259922685428E-021
   4.2299999999999997E-002     9.6548524893586168E-022
   4.2600000000000006E-002     2.9156589552578886E-021
   4.2900000000000001E-002    -1.1469349489919473E-020
   4.3200000000000002E-002     1.9726913804619940E-020
   4.3500000000000004E-002    -1.2118575189031093E-020
   4.3799999999999999E-002    -2.2611644840391988E-020
   4.4100000000000000E-002     1.4405793001632783E-020
   4.4400000000000002E-002     3.8682695545094829E-019
   4.4700000000000004E-002    -2.1092061414515349E-018
   4.4999999999999998E-002     6.4999528185833156E-018
   4.5300000000000000E-002    -1.2150371755475105E-017
   4.5600000000000002E-002     9.6279818748330836E-019
   4.5899999999999996E-002     1.0108874500028982E-016
   4.6200000000000005E-002    -4.8788040476624393E-016
   4.6500000000000000E-002     1.4302161289644539E-015
   4.6799999999999994E-002    -2.5447661993499747E-015
   4.7100000000000003E-002    -1.3696981461380562E-017
   4.7399999999999998E-002     1.9344779094924744E-014
   4.7700000000000006E-002    -7.8650875321666640E-014
   4.8000000000000001E-002     1.6845221922998591E-013
   4.8300000000000010E-002    -7.8207704896597506E-014
   4.8600000000000004E-002    -8.8496228158674127E-013
   4.8899999999999999E-002     3.5963930662108275E-012
   4.9200000000000008E-002    -6.0178685490300528E-012
   4.9500000000000002E-002    -4.3912719224316547E-012
   4.9800000000000011E-002     5.1108777376606942E-011
   5.0100000000000006E-002    -1.1605666402556407E-010
   5.0400000000000000E-002    -2.9923103493123851E-012
   5.0700000000000009E-002     6.8815916525849842E-010
   5.1000000000000004E-002    -1.5349153476452696E-009
   5.1299999999999998E-002    -6.6070725962028365E-010
   5.1600000000000007E-002     9.5306560056582701E-009
   5.1900000000000002E-002    -1.2241901206983717E-008
   5.2200000000000010E-002    -3.1682110174059435E-008
   5.2500000000000005E-002     9.5840069173281423E-008
   5.2800000000000000E-002     5.7708151025585829E-008
   5.3099999999999994E-002    -4.9390105667335738E-007
   5.3400000000000003E-002     1.4407684022729677E-008
   5.3699999999999998E-002     3.4548578432848803E-006
   5.4000000000000006E-002     7.3977353436378492E-006
   5.4300000000000001E-002     8.2046894052122656E-006
   5.4599999999999996E-002     8.3601537292300205E-006
   5.4900000000000004E-002     1.3146599705237260E-005
   5.5199999999999999E-002     2.3283024302314176E-005
   5.5499999999999994E-002     3.6680843913269149E-005
   5.5800000000000002E-002     5.3260993361256236E-005
   5.6099999999999997E-002     7.7018089851646455E-005
   5.6400000000000006E-002     1.1415226286313072E-004
   5.6700000000000000E-002     1.6819640831497191E-004
   5.6999999999999995E-002     2.4218235070620536E-004
   5.7300000000000004E-002     3.4167874210379496E-004
   5.7599999999999998E-002     4.6984081850221979E-004
   5.7900000000000007E-002     6.3067330908478381E-004
   5.8200000000000002E-002     8.3493631918386195E-004
   5.8499999999999996E-002     1.0928406840137927E-003
   5.8800000000000005E-002     1.4088066318034187E-003
   5.9100000000000000E-002     1.7780292717315682E-003
   5.9400000000000008E-002     2.1844959083504056E-003
   5.9700000000000003E-002     2.6131246279934009E-003
   6.0000000000000012E-002     3.0475124956166571E-003
   6.0300000000000006E-002     3.4498516381438107E-003
   6.0600000000000001E-002     3.7633557170554223E-003
   6.0900000000000010E-002     3.9185281187047840E-003
   6.1200000000000004E-002     3.8315529800875730E-003
   6.1500000000000013E-002     3.4097230705140585E-003
   6.1800000000000008E-002     2.5491822413276715E-003
   6.2100000000000002E-002     1.1411576044366026E-003
   6.2399999999999997E-002    -9.0241945329720653E-004
   6.2700000000000006E-002    -3.6427262285686603E-003
   6.3000000000000000E-002    -7.1098279421363741E-003
   6.3300000000000009E-002    -1.1277933250816195E-002
   6.3600000000000004E-002    -1.6053432339371714E-002
   6.3899999999999998E-002    -2.1267939938335267E-002
   6.4199999999999993E-002    -2.6670082047775528E-002
   6.4500000000000002E-002    -3.1936635917426438E-002
   6.4800000000000010E-002    -3.6679029615818162E-002
   6.5100000000000005E-002    -4.0459780882788669E-002
   6.5400000000000000E-002    -4.2825292908034718E-002
   6.5700000000000008E-002    -4.3350047798303058E-002
   6.5999999999999989E-002    -4.1676344327433321E-002
   6.6299999999999998E-002    -3.7552580290106635E-002
   6.6600000000000006E-002    -3.0877304897993466E-002
   6.6900000000000001E-002    -2.1746506520977940E-002
   6.7199999999999996E-002    -1.0470226867382455E-002
   6.7500000000000004E-002     2.3957461467866395E-003
   6.7800000000000013E-002     1.6082379277141474E-002
   6.8099999999999994E-002     2.9622126668644305E-002
   6.8400000000000002E-002     4.1882766547606122E-002
   6.8700000000000011E-002     5.1597595895862561E-002
   6.8999999999999992E-002     5.7457667631490739E-002
   6.9300000000000000E-002     5.8187854493881475E-002
   6.9600000000000009E-002     5.2637628871211997E-002
   6.9900000000000004E-002     3.9864290123326970E-002
   7.0199999999999999E-002     1.9224230142768372E-002
   7.0500000000000007E-002    -9.5187676400155085E-003
   7.0800000000000016E-002    -4.6107552684673800E-002
   7.1099999999999997E-002    -8.9703781545357367E-002
   7.1400000000000005E-002   -0.13888762368814508     
   7.1700000000000000E-002   -0.19158180369798164     
   7.1999999999999995E-002   -0.24510234018065297     
   7.2300000000000003E-002   -0.29624708658395787     
   7.2600000000000012E-002   -0.34141564765512167     
   7.2900000000000006E-002   -0.37681848958059216     
   7.3200000000000001E-002   -0.39874284042001895     
   7.3499999999999996E-002   -0.40380124091011438     
   7.3800000000000004E-002   -0.38931366725714278     
   7.4099999999999999E-002   -0.35359591312083222     
   7.4400000000000008E-002   -0.29621247395654560     
   7.4700000000000003E-002   -0.21816692729591991     
   7.5000000000000011E-002   -0.12202368813750852     
   7.5299999999999992E-002    -1.1781282518650581E-002
   7.5600000000000001E-002    0.10722650679684395     
   7.5900000000000009E-002    0.22874971518068574     
   7.6200000000000004E-002    0.34600565167133412     
   7.6499999999999999E-002    0.45212515576021028     
   7.6800000000000007E-002    0.54090952711399687     
   7.7099999999999988E-002    0.60709499601665962     
   7.7399999999999997E-002    0.64696688280919668     
   7.7700000000000005E-002    0.65854487451874744     
   7.8000000000000014E-002    0.64179847041656357     
   7.8299999999999995E-002    0.59861753533921402     
   7.8600000000000003E-002    0.53258649091280930     
   7.8900000000000012E-002    0.44867312394310410     
   7.9199999999999993E-002    0.35274535326918011     
   7.9500000000000001E-002    0.25124348617353609     
   7.9800000000000010E-002    0.15047005544946238     
   8.0100000000000018E-002     5.6354901485118403E-002
   8.0399999999999999E-002    -2.6054182676754738E-002
   8.0700000000000008E-002    -9.2752296772954990E-002
   8.1000000000000003E-002   -0.14100951905575465     
   8.1299999999999997E-002   -0.16937402594459608     
   8.1600000000000006E-002   -0.17769136650040143     
   8.1900000000000014E-002   -0.16695032121551756     
   8.2199999999999995E-002   -0.13924156507456309     
   8.2500000000000004E-002    -9.7499591657154536E-002
   8.2799999999999999E-002    -4.5351573395829230E-002
   8.3100000000000007E-002     1.2958638788238327E-002
   8.3400000000000002E-002     7.2932838593581975E-002
   8.3700000000000011E-002    0.12994579654809396     
   8.4000000000000005E-002    0.17948403831849247     
   8.4300000000000000E-002    0.21741259415489975     
   8.4599999999999995E-002    0.24022579720605275     
   8.4900000000000003E-002    0.24532271850815512     
   8.5199999999999998E-002    0.23115663026125732     
   8.5500000000000007E-002    0.19748572827645003     
   8.5800000000000001E-002    0.14532587238452921     
   8.6100000000000010E-002     7.7054348652738136E-002
   8.6399999999999991E-002    -3.8868181404140504E-003
   8.6699999999999999E-002    -9.3064873542820684E-002
   8.7000000000000008E-002   -0.18541646478502941     
   8.7300000000000003E-002   -0.27569481666242035     
   8.7599999999999997E-002   -0.35873992764000967     
   8.7900000000000006E-002   -0.42988182510937090     
   8.8200000000000014E-002   -0.48517796349354048     
   8.8499999999999995E-002   -0.52162747023713918     
   8.8800000000000004E-002   -0.53723799413806894     
   8.9100000000000013E-002   -0.53104793867821320     
   8.9399999999999993E-002   -0.50303885217947431     
   8.9700000000000002E-002   -0.45397953954698944     
   9.0000000000000011E-002   -0.38536951740667275     
   9.0299999999999991E-002   -0.29912947710295690     
   9.0600000000000000E-002   -0.19775639336160880     
   9.0900000000000009E-002    -8.4054668578274705E-002
   9.1200000000000017E-002     3.8656509378301375E-002
   9.1499999999999998E-002    0.16667167621867035     
   9.1800000000000007E-002    0.29575193951702794     
   9.2100000000000001E-002    0.42124578687754882     
   9.2399999999999996E-002    0.53799151477871776     
   9.2700000000000005E-002    0.64054006362208149     
   9.3000000000000013E-002    0.72347593151178891     
   9.3300000000000008E-002    0.78160037033452612     
   9.3600000000000003E-002    0.81046270986314572     
   9.3899999999999997E-002    0.80660263756536976     
   9.4200000000000006E-002    0.76812569890031224     
   9.4500000000000001E-002    0.69482463939400119     
   9.4800000000000009E-002    0.58862267861712037     
   9.5100000000000004E-002    0.45333348321474731     
   9.5399999999999999E-002    0.29477551452494127     
   9.5699999999999993E-002    0.12034923994199181     
   9.6000000000000002E-002    -6.1368495220687894E-002
   9.6300000000000011E-002   -0.24109806571106029     
   9.6600000000000005E-002   -0.40967175718890736     
   9.6900000000000000E-002   -0.55842068157838609     
   9.7200000000000009E-002   -0.68002063386485623     
   9.7499999999999989E-002   -0.76867997104549701     
   9.7799999999999998E-002   -0.82089317242171944     
   9.8100000000000007E-002   -0.83541218336137313     
   9.8400000000000015E-002   -0.81337325027474616     
   9.8699999999999996E-002   -0.75822351743260696     
   9.9000000000000005E-002   -0.67545694695713765     
   9.9300000000000013E-002   -0.57221957783799215     
   9.9599999999999994E-002   -0.45684416879089562     
   9.9900000000000003E-002   -0.33818919925772217     
  0.10020000000000001        -0.22510824022103765     
  0.10049999999999999        -0.12586713651952508     
  0.10080000000000000         -4.7505092126224675E-002
  0.10110000000000001          4.5786574176733714E-003
  0.10140000000000000          2.7147182547133709E-002
  0.10170000000000000          1.9165119390543151E-002
  0.10200000000000001         -1.7930575858539577E-002
  0.10230000000000002         -8.0389915075132573E-002
  0.10260000000000000        -0.16232372158959063     
  0.10290000000000001        -0.25614212423338223     
  0.10320000000000000        -0.35313079563161609     
  0.10350000000000001        -0.44396451406906257     
  0.10380000000000000        -0.51954662956532871     
  0.10410000000000001        -0.57153309040793177     
  0.10440000000000001        -0.59328679609392287     
  0.10470000000000000        -0.58009691817701681     
  0.10500000000000000        -0.52978990585911956     
  0.10530000000000000        -0.44288008739827012     
  0.10560000000000000        -0.32266490879713627     
  0.10590000000000001        -0.17492649676604002     
  0.10620000000000000         -7.4392131275753046E-003
  0.10650000000000001         0.17042878986663543     
  0.10679999999999999         0.34861841050851011     
  0.10710000000000000         0.51693810602273094     
  0.10740000000000001         0.66608135930032453     
  0.10770000000000000         0.78805806796661859     
  0.10800000000000000         0.87689717583371074     
  0.10830000000000001         0.92883689244573908     
  0.10859999999999999         0.94252985477321860     
  0.10890000000000000         0.91902285397318551     
  0.10920000000000001         0.86130806410711136     
  0.10950000000000001         0.77412544128838068     
  0.10979999999999999         0.66327546307911733     
  0.11009999999999999         0.53512977280850060     
  0.11040000000000001         0.39618428081061036     
  0.11070000000000001         0.25256651888692438     
  0.11100000000000000         0.10994014187836604     
  0.11130000000000000         -2.7073575604811946E-002
  0.11160000000000002        -0.15448419260141846     
  0.11190000000000001        -0.26934243427911103     
  0.11220000000000001        -0.36915576353751484     
  0.11250000000000000        -0.45228147425726323     
  0.11280000000000000        -0.51739387167259143     
  0.11309999999999999        -0.56367587973355282     
  0.11340000000000001        -0.59078142421654567     
  0.11369999999999998        -0.59886460198744096     
  0.11400000000000000        -0.58844819985544250     
  0.11430000000000000        -0.56076709844312289     
  0.11460000000000002        -0.51747974103520489     
  0.11489999999999999        -0.46082181364181507     
  0.11520000000000001        -0.39311790661639118     
  0.11550000000000001        -0.31690719997300976     
  0.11580000000000000        -0.23423015505751299     
  0.11609999999999999        -0.14691187345857959     
  0.11640000000000002         -5.5982021613359967E-002
  0.11670000000000001          3.8395444106272048E-002
  0.11700000000000001         0.13665525956550362     
  0.11730000000000000         0.23972590134848493     
  0.11760000000000000         0.34852673380317545     
  0.11789999999999999         0.46356113737099480     
  0.11820000000000001         0.58413488638104627     
  0.11850000000000001         0.70838172691769130     
  0.11880000000000000         0.83217555894674755     
  0.11910000000000000         0.94963809769021701     
  0.11940000000000002          1.0531109780187293     
  0.11970000000000001          1.1335399775843633     
  0.12000000000000001          1.1812459781671034     
  0.12030000000000000          1.1871815548331890     
  0.12060000000000000          1.1437113385777333     
  0.12089999999999999          1.0456988301984835     
  0.12119999999999999         0.89162404749135105     
  0.12150000000000001         0.68396898042278287     
  0.12180000000000001         0.42959320177772686     
  0.12210000000000000         0.13959979106627096     
  0.12239999999999999        -0.17129920907996776     
  0.12270000000000002        -0.48591976437551032     
  0.12300000000000001        -0.78549308768543746     
  0.12330000000000001         -1.0513723826887675     
  0.12360000000000000         -1.2664111478556057     
  0.12390000000000000         -1.4162493234495090     
  0.12419999999999999         -1.4905934348319958     
  0.12450000000000001         -1.4839334632364598     
  0.12480000000000001         -1.3958639782951756     
  0.12509999999999999         -1.2314289405698524     
  0.12540000000000001         -1.0006740708482253     
  0.12570000000000003        -0.71775279831146466     
  0.12600000000000000        -0.40075902039828065     
  0.12630000000000002         -6.9535053230428551E-002
  0.12659999999999999         0.25465592695545353     
  0.12690000000000001         0.55099815833660448     
  0.12719999999999998         0.80032400404925719     
  0.12750000000000000         0.98605007030918501     
  0.12780000000000002          1.0957062596139546     
  0.12809999999999999          1.1214312185580653     
  0.12840000000000001          1.0608439109088597     
  0.12869999999999998         0.91710743523993821     
  0.12900000000000000         0.69921828404207953     
  0.12930000000000003         0.42109659106985731     
  0.12959999999999999         0.10137302662286629     
  0.12990000000000002        -0.23816566131303307     
  0.13019999999999998        -0.57362598595951653     
  0.13050000000000000        -0.88059303349847418     
  0.13080000000000003         -1.1361072842666697     
  0.13109999999999999         -1.3196461547129319     
  0.13140000000000002         -1.4151070179624388     
  0.13169999999999998         -1.4116788351572231     
  0.13200000000000001         -1.3048224020118120     
  0.13229999999999997         -1.0966486493906586     
  0.13260000000000000        -0.79582385327392413     
  0.13290000000000002        -0.41727470459130156     
  0.13319999999999999          1.8975605150420696E-002
  0.13350000000000001         0.48858939627539844     
  0.13380000000000003         0.96489935245023961     
  0.13410000000000000          1.4199536244060011     
  0.13440000000000002          1.8267771780135913     
  0.13469999999999999          2.1604548485782042     
  0.13500000000000001          2.3999854997932668     
  0.13529999999999998          2.5291333616224954     
  0.13560000000000000          2.5379252457505821     
  0.13590000000000002          2.4226487320652295     
  0.13619999999999999          2.1865792539652582     
  0.13650000000000001          1.8392290561893416     
  0.13680000000000003          1.3966354719668392     
  0.13710000000000000         0.87953289933621326     
  0.13740000000000002         0.31329244678120904     
  0.13769999999999999        -0.27460324457942409     
  0.13800000000000001        -0.85536695741667435     
  0.13829999999999998         -1.4008909842256116     
  0.13860000000000000         -1.8853233336932371     
  0.13890000000000002         -2.2863787565836944     
  0.13919999999999999         -2.5873647087521396     
  0.13950000000000001         -2.7768833709223930     
  0.13979999999999998         -2.8509006906258194     
  0.14010000000000000         -2.8116394864089584     
  0.14040000000000002         -2.6678939519163491     
  0.14069999999999999         -2.4339530478027758     
  0.14100000000000001         -2.1283524884450955     
  0.14130000000000004         -1.7727353744451428     
  0.14160000000000000         -1.3894512001754040     
  0.14189999999999997         -1.0006808410064403     
  0.14219999999999999        -0.62628492611191311     
  0.14250000000000002        -0.28299757800491082     
  0.14279999999999998          1.6518457097099662E-002
  0.14310000000000000         0.26469501737013379     
  0.14339999999999997         0.45757662466827059     
  0.14369999999999999         0.59598015912826097     
  0.14400000000000002         0.68348109890527531     
  0.14429999999999998         0.72632495491729732     
  0.14460000000000001         0.73161776784278032     
  0.14490000000000003         0.70749612610407642     
  0.14520000000000000         0.66148067424201762     
  0.14550000000000002         0.60077384146348112     
  0.14579999999999999         0.53165530955022566     
  0.14610000000000001         0.45989267190926808     
  0.14640000000000003         0.39056131416001894     
  0.14670000000000000         0.32902216092635417     
  0.14699999999999996         0.27988808212244098     
  0.14729999999999999         0.24849349418211253     
  0.14760000000000001         0.23909917803511921     
  0.14789999999999998         0.25600864233681020     
  0.14820000000000000         0.30190502753418652     