  -1.4999999999999999E-002     0.0000000000000000     
  -1.4700000000000000E-002     0.0000000000000000     
  -1.4400000000000000E-002     0.0000000000000000     
  -1.4100000000000000E-002     0.0000000000000000     
  -1.3800000000000000E-002     0.0000000000000000     
  -1.3500000000000000E-002     0.0000000000000000     
  -1.3200000000000000E-002     0.0000000000000000     
  -1.2899999999999998E-002     0.0000000000000000     
  -1.2600000000000000E-002     0.0000000000000000     
  -1.2299999999999998E-002     0.0000000000000000     
  -1.2000000000000000E-002     0.0000000000000000     
  -1.1699999999999999E-002     0.0000000000000000     
  -1.1399999999999999E-002     0.0000000000000000     
  -1.1099999999999999E-002     0.0000000000000000     
  -1.0799999999999999E-002     0.0000000000000000     
  -1.0499999999999999E-002     0.0000000000000000     
  -1.0199999999999999E-002     0.0000000000000000     
  -9.8999999999999991E-003     0.0000000000000000     
  -9.5999999999999992E-003     0.0000000000000000     
  -9.2999999999999992E-003     0.0000000000000000     
  -8.9999999999999993E-003     0.0000000000000000     
  -8.6999999999999994E-003     0.0000000000000000     
  -8.3999999999999995E-003     0.0000000000000000     
  -8.0999999999999996E-003     0.0000000000000000     
  -7.7999999999999988E-003     0.0000000000000000     
  -7.4999999999999997E-003     0.0000000000000000     
  -7.1999999999999998E-003     0.0000000000000000     
  -6.8999999999999981E-003     0.0000000000000000     
  -6.5999999999999982E-003     0.0000000000000000     
  -6.3000000000000000E-003     0.0000000000000000     
  -6.0000000000000001E-003     0.0000000000000000     
  -5.6999999999999985E-003     0.0000000000000000     
  -5.3999999999999986E-003     0.0000000000000000     
  -5.1000000000000004E-003     0.0000000000000000     
  -4.7999999999999987E-003     0.0000000000000000     
  -4.5000000000000005E-003     0.0000000000000000     
  -4.1999999999999989E-003     0.0000000000000000     
  -3.8999999999999990E-003     0.0000000000000000     
  -3.5999999999999990E-003     0.0000000000000000     
  -3.2999999999999991E-003     0.0000000000000000     
  -2.9999999999999992E-003     0.0000000000000000     
  -2.6999999999999993E-003     0.0000000000000000     
  -2.3999999999999994E-003     0.0000000000000000     
  -2.0999999999999977E-003     0.0000000000000000     
  -1.7999999999999995E-003     0.0000000000000000     
  -1.4999999999999979E-003     0.0000000000000000     
  -1.1999999999999997E-003     0.0000000000000000     
  -8.9999999999999976E-004     0.0000000000000000     
  -5.9999999999999810E-004     0.0000000000000000     
  -2.9999999999999992E-004     0.0000000000000000     
   0.0000000000000000          0.0000000000000000     
   3.0000000000000165E-004     0.0000000000000000     
   5.9999999999999984E-004     0.0000000000000000     
   9.0000000000000149E-004     0.0000000000000000     
   1.2000000000000031E-003     0.0000000000000000     
   1.5000000000000013E-003     0.0000000000000000     
   1.8000000000000030E-003     0.0000000000000000     
   2.1000000000000012E-003     0.0000000000000000     
   2.3999999999999994E-003     0.0000000000000000     
   2.7000000000000010E-003     0.0000000000000000     
   2.9999999999999992E-003     0.0000000000000000     
   3.3000000000000008E-003     0.0000000000000000     
   3.6000000000000025E-003     0.0000000000000000     
   3.9000000000000007E-003     0.0000000000000000     
   4.2000000000000023E-003     0.0000000000000000     
   4.5000000000000005E-003     0.0000000000000000     
   4.7999999999999987E-003     0.0000000000000000     
   5.1000000000000004E-003     0.0000000000000000     
   5.4000000000000020E-003     0.0000000000000000     
   5.7000000000000037E-003     0.0000000000000000     
   5.9999999999999984E-003     0.0000000000000000     
   6.3000000000000000E-003     0.0000000000000000     
   6.6000000000000017E-003     0.0000000000000000     
   6.9000000000000034E-003     0.0000000000000000     
   7.2000000000000015E-003     0.0000000000000000     
   7.5000000000000032E-003     0.0000000000000000     
   7.8000000000000014E-003     0.0000000000000000     
   8.0999999999999996E-003     0.0000000000000000     
   8.4000000000000012E-003     0.0000000000000000     
   8.7000000000000029E-003     0.0000000000000000     
   9.0000000000000011E-003     0.0000000000000000     
   9.2999999999999992E-003     0.0000000000000000     
   9.6000000000000009E-003     0.0000000000000000     
   9.8999999999999991E-003     0.0000000000000000     
   1.0200000000000001E-002     0.0000000000000000     
   1.0500000000000002E-002     0.0000000000000000     
   1.0800000000000004E-002     0.0000000000000000     
   1.1099999999999999E-002     0.0000000000000000     
   1.1400000000000000E-002     0.0000000000000000     
   1.1700000000000002E-002     0.0000000000000000     
   1.2000000000000004E-002     0.0000000000000000     
   1.2300000000000002E-002     0.0000000000000000     
   1.2600000000000000E-002     0.0000000000000000     
   1.2900000000000002E-002     0.0000000000000000     
   1.3200000000000000E-002     0.0000000000000000     
   1.3500000000000002E-002     0.0000000000000000     
   1.3800000000000003E-002     0.0000000000000000     
   1.4100000000000001E-002     0.0000000000000000     
   1.4400000000000000E-002     0.0000000000000000     
   1.4700000000000001E-002     0.0000000000000000     
   1.4999999999999999E-002     0.0000000000000000     
   1.5300000000000001E-002     0.0000000000000000     
   1.5600000000000003E-002     0.0000000000000000     
   1.5899999999999997E-002     0.0000000000000000     
   1.6199999999999999E-002     0.0000000000000000     
   1.6500000000000001E-002     0.0000000000000000     
   1.6800000000000002E-002     0.0000000000000000     
   1.7100000000000004E-002     0.0000000000000000     
   1.7400000000000006E-002     0.0000000000000000     
   1.7700000000000000E-002     0.0000000000000000     
   1.8000000000000002E-002     0.0000000000000000     
   1.8300000000000004E-002     0.0000000000000000     
   1.8600000000000005E-002     0.0000000000000000     
   1.8900000000000000E-002     0.0000000000000000     
   1.9200000000000002E-002     0.0000000000000000     
   1.9500000000000003E-002    -3.6126868394239143E-037
   1.9799999999999998E-002    -2.9108459118523675E-036
   2.0100000000000000E-002    -5.5149024236404417E-035
   2.0400000000000001E-002    -3.4540380611949204E-035
   2.0700000000000003E-002     2.3971937419368451E-034
   2.0999999999999998E-002    -3.9778859533967475E-034
   2.1299999999999999E-002     5.5979888835922155E-034
   2.1600000000000001E-002     3.9911106091542466E-034
   2.1900000000000003E-002    -2.7611440185153750E-033
   2.2200000000000004E-002     3.4750675887235246E-033
   2.2500000000000006E-002     8.1801527436234672E-034
   2.2800000000000001E-002    -7.2201335403590812E-033
   2.3100000000000002E-002     3.7201860845489047E-033
   2.3400000000000004E-002     1.5128438612911027E-032
   2.3699999999999999E-002    -2.5191761155142115E-032
   2.4000000000000000E-002    -1.1847327357670978E-032
   2.4300000000000002E-002     4.6305135880687405E-032
   2.4599999999999997E-002     2.0231023264893684E-031
   2.4900000000000005E-002    -1.3195489989571509E-030
   2.5200000000000000E-002     4.3471493903300416E-030
   2.5499999999999995E-002    -1.1718475232491444E-029
   2.5800000000000003E-002     2.9560921590850695E-029
   2.6099999999999998E-002    -6.9279276287585027E-029
   2.6400000000000007E-002     1.3938996544632618E-028
   2.6700000000000002E-002    -2.0542893973162890E-028
   2.6999999999999996E-002     7.3207717711803549E-029
   2.7300000000000005E-002     8.7718860036375325E-028
   2.7600000000000000E-002    -4.1541099268347299E-027
   2.7900000000000008E-002     1.2568284495786384E-026
   2.8200000000000003E-002    -2.9334420899560300E-026
   2.8499999999999998E-002     5.2375628002688219E-026
   2.8800000000000006E-002    -5.7615134314513059E-026
   2.9100000000000001E-002    -3.3162494964001811E-026
   2.9400000000000003E-002     3.8323567326962624E-025
   2.9700000000000004E-002    -1.1872250120063019E-024
   3.0000000000000006E-002     2.3224604985356817E-024
   3.0300000000000001E-002    -2.4016141476241481E-024
   3.0600000000000002E-002    -2.7494629088428079E-024
   3.0900000000000004E-002     2.0614506680365120E-023
   3.1199999999999999E-002    -5.6300871517797305E-023
   3.1500000000000007E-002     8.9664179517553820E-023
   3.1800000000000002E-002    -1.7741395957409503E-023
   3.2099999999999997E-002    -4.5530351115150870E-022
   3.2400000000000005E-002     1.9499048068685529E-021
   3.2700000000000000E-002    -5.2753666053448980E-021
   3.3000000000000002E-002     9.9512447281802999E-021
   3.3300000000000003E-002    -8.8726289525648101E-021
   3.3599999999999998E-002    -2.4458646289553004E-020
   3.3900000000000000E-002     1.5717474537924303E-019
   3.4200000000000001E-002    -5.1279991976192647E-019
   3.4500000000000003E-002     1.2051873316648329E-018
   3.4799999999999998E-002    -1.8919148217637116E-018
   3.5099999999999999E-002     1.0506024554849181E-019
   3.5400000000000001E-002     1.2892875705082648E-017
   3.5699999999999996E-002    -5.6708516786525869E-017
   3.6000000000000004E-002     1.4717174893693794E-016
   3.6299999999999999E-002    -1.9895923281647970E-016
   3.6600000000000008E-002    -2.4060951048947943E-016
   3.6900000000000002E-002     2.2481926980887023E-015
   3.7199999999999997E-002    -6.5154880050328190E-015
   3.7500000000000006E-002     8.2393985509900433E-015
   3.7800000000000000E-002     1.2368541550135078E-014
   3.8100000000000009E-002    -8.6518145020783525E-014
   3.8400000000000004E-002     1.8988396655110764E-013
   3.8699999999999998E-002    -8.1129079899048415E-014
   3.9000000000000007E-002    -7.4902524647668444E-013
   3.9300000000000002E-002     2.3545551604061604E-012
   3.9600000000000003E-002    -2.3755567189188740E-012
   3.9900000000000005E-002    -4.8618336226758319E-012
   4.0200000000000000E-002     2.1268075646358971E-011
   4.0500000000000001E-002    -2.6913487616762729E-011
   4.0800000000000003E-002    -2.5010668404021084E-011
   4.1100000000000005E-002     1.4877392673673968E-010
   4.1399999999999999E-002    -2.1393076661555177E-010
   4.1700000000000008E-002    -4.5473546909865759E-011
   4.2000000000000003E-002     7.9038816301525632E-010
   4.2299999999999997E-002    -1.8258731000963704E-009
   4.2600000000000006E-002     1.6919808230582043E-009
   4.2900000000000001E-002     5.6806713123924833E-009
   4.3200000000000002E-002    -2.7088851327065756E-008
   4.3500000000000004E-002     8.6094043427826508E-009
   4.3799999999999999E-002     1.3323843752971253E-007
   4.4100000000000000E-002    -2.1100283867997679E-007
   4.4400000000000002E-002    -2.8116291468867542E-007
   4.4700000000000004E-002     4.6033361031793819E-006
   4.4999999999999998E-002     1.8664490264200432E-005
   4.5300000000000000E-002     3.7664180852024468E-005
   4.5600000000000002E-002     5.2815202075165508E-005
   4.5899999999999996E-002     6.4608016704291774E-005
   4.6200000000000005E-002     8.6547410316260620E-005
   4.6500000000000000E-002     1.3419664665994792E-004
   4.6799999999999994E-002     2.1499011489714396E-004
   4.7100000000000003E-002     3.3204867450339367E-004
   4.7399999999999998E-002     4.9692478000419604E-004
   4.7700000000000006E-002     7.3212085803442579E-004
   4.8000000000000001E-002     1.0620338966278002E-003
   4.8300000000000010E-002     1.5127157822100844E-003
   4.8600000000000004E-002     2.1202610248936033E-003
   4.8899999999999999E-002     2.9302259687022233E-003
   4.9200000000000008E-002     3.9885872177114487E-003
   4.9500000000000002E-002     5.3343841844967470E-003
   4.9800000000000011E-002     7.0025319221693081E-003
   5.0100000000000006E-002     9.0324356259525087E-003
   5.0400000000000000E-002     1.1455685763048534E-002
   5.0700000000000009E-002     1.4263545137994063E-002
   5.1000000000000004E-002     1.7397824724095293E-002
   5.1299999999999998E-002     2.0759524940237306E-002
   5.1600000000000007E-002     2.4203252373283815E-002
   5.1900000000000002E-002     2.7520472732102105E-002
   5.2200000000000010E-002     3.0432083547063910E-002
   5.2500000000000005E-002     3.2595270568210447E-002
   5.2800000000000000E-002     3.3615952098710343E-002
   5.3099999999999994E-002     3.3075606661235268E-002
   5.3400000000000003E-002     3.0567935443836691E-002
   5.3699999999999998E-002     2.5756732823360128E-002
   5.4000000000000006E-002     1.8412178150948560E-002
   5.4300000000000001E-002     8.4453188939812712E-003
   5.4599999999999996E-002    -4.0277603216349409E-003
   5.4900000000000004E-002    -1.8664842290656024E-002
   5.5199999999999999E-002    -3.4889962733152591E-002
   5.5499999999999994E-002    -5.1914026060378295E-002
   5.5800000000000002E-002    -6.8799762322140065E-002
   5.6099999999999997E-002    -8.4586352103886500E-002
   5.6400000000000006E-002    -9.8406138016396014E-002
   5.6700000000000000E-002   -0.10960270151278037     
   5.6999999999999995E-002   -0.11788754112060337     
   5.7300000000000004E-002   -0.12346184472545327     
   5.7599999999999998E-002   -0.12706178168836868     
   5.7900000000000007E-002   -0.12999039876670454     
   5.8200000000000002E-002   -0.13403123810649345     
   5.8499999999999996E-002   -0.14125866037853091     
   5.8800000000000005E-002   -0.15371938463900733     
   5.9100000000000000E-002   -0.17310361969436555     
   5.9400000000000008E-002   -0.20040940054679385     
   5.9700000000000003E-002   -0.23555672289223656     
   6.0000000000000012E-002   -0.27715091262995645     
   6.0300000000000006E-002   -0.32230366290472651     
   6.0600000000000001E-002   -0.36661905683978074     
   6.0900000000000010E-002   -0.40441572891100197     
   6.1200000000000004E-002   -0.42911290933370505     
   6.1500000000000013E-002   -0.43387501841698933     
   6.1800000000000008E-002   -0.41224392289033818     
   6.2100000000000002E-002   -0.35895045308468865     
   6.2399999999999997E-002   -0.27064730165569506     
   6.2700000000000006E-002   -0.14657261696128013     
   6.3000000000000000E-002     1.1078139341863533E-002
   6.3300000000000009E-002    0.19696254057881560     
   6.3600000000000004E-002    0.40270622641715048     
   6.3899999999999998E-002    0.61728986182301637     
   6.4199999999999993E-002    0.82787295230183766     
   6.4500000000000002E-002     1.0205619532844714     
   6.4800000000000010E-002     1.1816253851433691     
   6.5100000000000005E-002     1.2984724223349446     
   6.5400000000000000E-002     1.3606894181730262     
   6.5700000000000008E-002     1.3609583527661007     
   6.5999999999999989E-002     1.2956144941645482     
   6.6299999999999998E-002     1.1651407591519638     
   6.6600000000000006E-002    0.97406215358190751     
   6.6900000000000001E-002    0.73079968129703976     
   6.7199999999999996E-002    0.44709548715325809     
   6.7500000000000004E-002    0.13730302535368136     
   6.7800000000000013E-002   -0.18241132996547080     
   6.8099999999999994E-002   -0.49521023510490020     
   6.8400000000000002E-002   -0.78452772634378987     
   6.8700000000000011E-002    -1.0350207186968639     
   6.8999999999999992E-002    -1.2335307714446497     
   6.9300000000000000E-002    -1.3697850836153542     
   6.9600000000000009E-002    -1.4371127032992932     
   6.9900000000000004E-002    -1.4327790885921312     
   7.0199999999999999E-002    -1.3581776768740090     
   7.0500000000000007E-002    -1.2187924530862577     
   7.0800000000000016E-002    -1.0238990921266902     
   7.1099999999999997E-002   -0.78615595164944885     
   7.1400000000000005E-002   -0.52069986972402516     
   7.1700000000000000E-002   -0.24430837675250749     
   7.1999999999999995E-002     2.5745056377811819E-002
   7.2300000000000003E-002    0.27287393208634275     
   7.2600000000000012E-002    0.48229068061645075     
   7.2900000000000006E-002    0.64206611765835120     
   7.3200000000000001E-002    0.74408095793682405     
   7.3499999999999996E-002    0.78441565958900550     
   7.3800000000000004E-002    0.76394956981273021     
   7.4099999999999999E-002    0.68807786266165782     
   7.4400000000000008E-002    0.56627195466561486     
   7.4700000000000003E-002    0.41123943695743731     
   7.5000000000000011E-002    0.23782258155439026     
   7.5299999999999992E-002     6.1949884260333467E-002
   7.5600000000000001E-002   -0.10106445920067163     
   7.5900000000000009E-002   -0.23730871336971079     
   7.6200000000000004E-002   -0.33588822542107710     
   7.6499999999999999E-002   -0.38935469432287184     
   7.6800000000000007E-002   -0.39409108654898373     
   7.7099999999999988E-002   -0.35095862925773996     
   7.7399999999999997E-002   -0.26430041498718682     
   7.7700000000000005E-002   -0.14187366043113878     
   7.8000000000000014E-002     6.1913242842114215E-003
   7.8299999999999995E-002    0.16839498165336189     
   7.8600000000000003E-002    0.33298509639358326     
   7.8900000000000012E-002    0.48862865834564245     
   7.9199999999999993E-002    0.62551895939449897     
   7.9500000000000001E-002    0.73599385155066721     
   7.9800000000000010E-002    0.81457513106540258     
   8.0100000000000018E-002    0.85865676306496863     
   8.0399999999999999E-002    0.86798948063783288     
   8.0700000000000008E-002    0.84448546023455551     
   8.1000000000000003E-002    0.79189878121059809     
   8.1299999999999997E-002    0.71529309677001662     
   8.1600000000000006E-002    0.62045577992492917     
   8.1900000000000014E-002    0.51352318902222593     
   8.2199999999999995E-002    0.40055529906607285     
   8.2500000000000004E-002    0.28686294431171450     
   8.2799999999999999E-002    0.17722921926742516     
   8.3100000000000007E-002     7.5351639043709520E-002
   8.3400000000000002E-002    -1.6391631934541986E-002
   8.3700000000000011E-002    -9.6551166841172265E-002
   8.4000000000000005E-002   -0.16501989129357278     
   8.4300000000000000E-002   -0.22279361824353786     
   8.4599999999999995E-002   -0.27176536166387272     
   8.4900000000000003E-002   -0.31480942164710679     
   8.5199999999999998E-002   -0.35508719919515480     
   8.5500000000000007E-002   -0.39602447162415655     
   8.5800000000000001E-002   -0.44085476148385788     
   8.6100000000000010E-002   -0.49213165135088949     
   8.6399999999999991E-002   -0.55153736328309266     
   8.6699999999999999E-002   -0.61926874182755687     
   8.7000000000000008E-002   -0.69414153200457163     
   8.7300000000000003E-002   -0.77314653373808839     
   8.7599999999999997E-002   -0.85211338849642415     
   8.7900000000000006E-002   -0.92530324174982381     
   8.8200000000000014E-002   -0.98637165556421325     
   8.8499999999999995E-002    -1.0288871692316937     
   8.8800000000000004E-002    -1.0466410052629689     
   8.9100000000000013E-002    -1.0348562087622233     
   8.9399999999999993E-002   -0.99027359786480540     
   8.9700000000000002E-002   -0.91193157090668231     
   9.0000000000000011E-002   -0.80105261955728158     
   9.0299999999999991E-002   -0.66141377122568912     
   9.0600000000000000E-002   -0.49868813693970238     
   9.0900000000000009E-002   -0.32030329042985495     
   9.1200000000000017E-002   -0.13455919385071441     
   9.1499999999999998E-002     5.0242640852311615E-002
   9.1800000000000007E-002    0.22605767264349458     
   9.2100000000000001E-002    0.38638047149357591     
   9.2399999999999996E-002    0.52648982798783639     
   9.2700000000000005E-002    0.64354231783422322     
   9.3000000000000013E-002    0.73718889644780738     
   9.3300000000000008E-002    0.80875779438155004     
   9.3600000000000003E-002    0.86131650568362628     
   9.3899999999999997E-002    0.89894163111533654     
   9.4200000000000006E-002    0.92590897017093887     
   9.4500000000000001E-002    0.94627181798617177     
   9.4800000000000009E-002    0.96285722347410929     
   9.5100000000000004E-002    0.97736409793631929     
   9.5399999999999999E-002    0.98939118306329898     
   9.5699999999999993E-002    0.99681101010154616     
   9.6000000000000002E-002    0.99596969476531605     
   9.6300000000000011E-002    0.98188840104091812     
   9.6600000000000005E-002    0.94907104357659278     
   9.6900000000000000E-002    0.89199608586857282     
   9.7200000000000009E-002    0.80600947740158291     
   9.7499999999999989E-002    0.68802029952133481     
   9.7799999999999998E-002    0.53687329453444366     
   9.8100000000000007E-002    0.35370792413964819     
   9.8400000000000015E-002    0.14216418428013028     
   9.8699999999999996E-002    -9.1901470529006851E-002
   9.9000000000000005E-002   -0.34050231581826546     
   9.9300000000000013E-002   -0.59466123582684460     
   9.9599999999999994E-002   -0.84431154206839198     
   9.9900000000000003E-002    -1.0794268983071262     
  0.10020000000000001         -1.2907895051509464     
  0.10049999999999999         -1.4700562021308630     
  0.10080000000000000         -1.6109258240376887     
  0.10110000000000001         -1.7085435725036888     
  0.10140000000000000         -1.7603915087162334     
  0.10170000000000000         -1.7658433071036532     
  0.10200000000000001         -1.7260947562709756     
  0.10230000000000002         -1.6440936637155399     
  0.10260000000000000         -1.5241021195016062     
  0.10290000000000001         -1.3717153310451631     
  0.10320000000000000         -1.1932356553468544     
  0.10350000000000001        -0.99561883543534835     
  0.10380000000000000        -0.78622282634026286     
  0.10410000000000001        -0.57253277939100022     
  0.10440000000000001        -0.36184957816382562     
  0.10470000000000000        -0.16105888526441203     
  0.10500000000000000          2.3795891230933688E-002
  0.10530000000000000         0.18756133005574635     
  0.10560000000000000         0.32641525719617426     
  0.10590000000000001         0.43790336555609050     
  0.10620000000000000         0.52075793888052413     
  0.10650000000000001         0.57586464204820342     
  0.10679999999999999         0.60475924849048945     
  0.10710000000000000         0.61066374646576094     
  0.10740000000000001         0.59727433912755268     
  0.10770000000000000         0.56896207338857585     
  0.10800000000000000         0.53048280369481460     
  0.10830000000000001         0.48617956319147165     
  0.10859999999999999         0.44081926292722684     
  0.10890000000000000         0.39830582870942510     
  0.10920000000000001         0.36247797861701725     
  0.10950000000000001         0.33696152298452936     
  0.10979999999999999         0.32529748466631114     
  0.11009999999999999         0.33099621981365246     
  0.11040000000000001         0.35729572137341004     
  0.11070000000000001         0.40759023550032319     
  0.11100000000000000         0.48455291171070675     
  0.11130000000000000         0.59026490599192660     
  0.11160000000000002         0.72535787873325852     
  0.11190000000000001         0.88857667552567166     
  0.11220000000000001          1.0763717802644412     
  0.11250000000000000          1.2824026296233075     
  0.11280000000000000          1.4971344473582959     
  0.11309999999999999          1.7083139487036321     
  0.11340000000000001          1.9011000536512559     
  0.11369999999999998          2.0589277964835633     
  0.11400000000000000          2.1646991073645614     
  0.11430000000000000          2.2019043335808668     
  0.11460000000000002          2.1562421744167835     
  0.11489999999999999          2.0171890715207121     
  0.11520000000000001          1.7792090641738965     
  0.11550000000000001          1.4427789892027898     
  0.11580000000000000          1.0151782424505675     
  0.11609999999999999         0.51060542506985884     
  0.11640000000000002         -5.0588693333283051E-002
  0.11670000000000001        -0.64218663696652711     
  0.11700000000000001         -1.2344272246797681     
  0.11730000000000000         -1.7952094355610837     
  0.11760000000000000         -2.2925825565024098     
  0.11789999999999999         -2.6970883020605045     
  0.11820000000000001         -2.9834149631119198     
  0.11850000000000001         -3.1331098942346909     
  0.11880000000000000         -3.1351750843459247     
  0.11910000000000000         -2.9877930680065035     
  0.11940000000000002         -2.6981884047135107     
  0.11970000000000001         -2.2822369108972609     
  0.12000000000000001         -1.7640596324557696     
  0.12030000000000000         -1.1733784261572870     
  0.12060000000000000        -0.54484796908992950     
  0.12089999999999999          8.5329791554428311E-002
  0.12119999999999999         0.68126479004308516     
  0.12150000000000001          1.2098481579470730     
  0.12180000000000001          1.6427594552955938     
  0.12210000000000000          1.9579004383058902     
  0.12239999999999999          2.1412315896469116     
  0.12270000000000002          2.1863971463926872     
  0.12300000000000001          2.0954342754737247     
  0.12330000000000001          1.8780833290256920     
  0.12360000000000000          1.5508038909567539     
  0.12390000000000000          1.1356763824313854     
  0.12419999999999999         0.65896815287226662     
  0.12450000000000001         0.14933832243481168     
  0.12480000000000001        -0.36325052461419238     
  0.12509999999999999        -0.84931040588747808     
  0.12540000000000001         -1.2813890161625952     
  0.12570000000000003         -1.6347086747968418     
  0.12600000000000000         -1.8892133719547686     
  0.12630000000000002         -2.0296253640709541     
  0.12659999999999999         -2.0469829729459192     
  0.12690000000000001         -1.9388892567017642     
  0.12719999999999998         -1.7094512132830644     
  0.12750000000000000         -1.3701824323967935     
  0.12780000000000002        -0.93858981088694926     
  0.12809999999999999        -0.43811707659607219     
  0.12840000000000001         0.10343707391450191     
  0.12869999999999998         0.65545023351158005     
  0.12900000000000000          1.1861805898754243     
  0.12930000000000003          1.6647443691648680     
  0.12959999999999999          2.0632814068616767     
  0.12990000000000002          2.3585375469112693     
  0.13019999999999998          2.5338293296787762     
  0.13050000000000000          2.5798069317798507     
  0.13080000000000003          2.4950963465267004     
  0.13109999999999999          2.2869199871023325     
  0.13140000000000002          1.9698638249064657     
  0.13169999999999998          1.5659106480612839     
  0.13200000000000001          1.1018548898255387     
  0.13229999999999997         0.60855750996734426     
  0.13260000000000000         0.11816309930210771     
  0.13290000000000002        -0.33784524350281214     
  0.13319999999999999        -0.73037686096905396     
  0.13350000000000001         -1.0354959433861706     
  0.13380000000000003         -1.2356784868063897     
  0.13410000000000000         -1.3211920660471519     
  0.13440000000000002         -1.2909227895845827     
  0.13469999999999999         -1.1528411096308238     
  0.13500000000000001        -0.92298395419564749     
  0.13529999999999998        -0.62523389117603811     
  0.13560000000000000        -0.28859525649781054     
  0.13590000000000002          5.4073421356394966E-002
  0.13619999999999999         0.36901146761064385     
  0.13650000000000001         0.62459606198527029     
  0.13680000000000003         0.79291396917711587     
  0.13710000000000000         0.85325561420590423     
  0.13740000000000002         0.79267415309332612     
  0.13769999999999999         0.60828543604993146     
  0.13800000000000001         0.30637381967935401     
  0.13829999999999998         -9.7564709665422217E-002
  0.13860000000000000        -0.58022875835345478     
  0.13890000000000002         -1.1130665972127904     
  0.13919999999999999         -1.6634583017886992     
  0.13950000000000001         -2.1989356107762164     
  0.13979999999999998         -2.6883169487636782     
  0.14010000000000000         -3.1047202617991734     
  0.14040000000000002         -3.4272958438368097     
  0.14069999999999999         -3.6417230823390567     
  0.14100000000000001         -3.7413624962149701     
  0.14130000000000004         -3.7263013471650446     
  0.14160000000000000         -3.6030265289314736     
  0.14189999999999997         -3.3832405804386165     
  0.14219999999999999         -3.0820208562545557     
  0.14250000000000002         -2.7165761733341509     
  0.14279999999999998         -2.3051105075650296     
  0.14310000000000000         -1.8650635843496259     
  0.14339999999999997         -1.4133938801677617     
  0.14369999999999999        -0.96480329927910302     
  0.14400000000000002        -0.53243961333354684     
  0.14429999999999998        -0.12777242429629010     
  0.14460000000000001         0.23976821807492552     
  0.14490000000000003         0.56230395279641221     
  0.14520000000000000         0.83369723248429084     
  0.14550000000000002          1.0495430383455993     
  0.14579999999999999          1.2075850991108479     
  0.14610000000000001          1.3085310433155519     
  0.14640000000000003          1.3552303331411604     
  0.14670000000000000          1.3546843692502071     
  0.14699999999999996          1.3168502270734115     
  0.14729999999999999          1.2548425967872292     
  0.14760000000000001          1.1851578959850562     
  0.14789999999999998          1.1251554985523582     
  0.14820000000000000          1.0938075590251204     