  -1.4999999999999999E-002     0.0000000000000000     
  -1.4700000000000000E-002     0.0000000000000000     
  -1.4400000000000000E-002     0.0000000000000000     
  -1.4100000000000000E-002     0.0000000000000000     
  -1.3800000000000000E-002     0.0000000000000000     
  -1.3500000000000000E-002     0.0000000000000000     
  -1.3200000000000000E-002     0.0000000000000000     
  -1.2899999999999998E-002     0.0000000000000000     
  -1.2600000000000000E-002     0.0000000000000000     
  -1.2299999999999998E-002     0.0000000000000000     
  -1.2000000000000000E-002     0.0000000000000000     
  -1.1699999999999999E-002     0.0000000000000000     
  -1.1399999999999999E-002     0.0000000000000000     
  -1.1099999999999999E-002     0.0000000000000000     
  -1.0799999999999999E-002     0.0000000000000000     
  -1.0499999999999999E-002     0.0000000000000000     
  -1.0199999999999999E-002     0.0000000000000000     
  -9.8999999999999991E-003     0.0000000000000000     
  -9.5999999999999992E-003     0.0000000000000000     
  -9.2999999999999992E-003     0.0000000000000000     
  -8.9999999999999993E-003     0.0000000000000000     
  -8.6999999999999994E-003     0.0000000000000000     
  -8.3999999999999995E-003     0.0000000000000000     
  -8.0999999999999996E-003     0.0000000000000000     
  -7.7999999999999988E-003     0.0000000000000000     
  -7.4999999999999997E-003     0.0000000000000000     
  -7.1999999999999998E-003     0.0000000000000000     
  -6.8999999999999981E-003     0.0000000000000000     
  -6.5999999999999982E-003     0.0000000000000000     
  -6.3000000000000000E-003     0.0000000000000000     
  -6.0000000000000001E-003     0.0000000000000000     
  -5.6999999999999985E-003     0.0000000000000000     
  -5.3999999999999986E-003     0.0000000000000000     
  -5.1000000000000004E-003     0.0000000000000000     
  -4.7999999999999987E-003     0.0000000000000000     
  -4.5000000000000005E-003     0.0000000000000000     
  -4.1999999999999989E-003     0.0000000000000000     
  -3.8999999999999990E-003     0.0000000000000000     
  -3.5999999999999990E-003     0.0000000000000000     
  -3.2999999999999991E-003     0.0000000000000000     
  -2.9999999999999992E-003     0.0000000000000000     
  -2.6999999999999993E-003     0.0000000000000000     
  -2.3999999999999994E-003     0.0000000000000000     
  -2.0999999999999977E-003     0.0000000000000000     
  -1.7999999999999995E-003     0.0000000000000000     
  -1.4999999999999979E-003     0.0000000000000000     
  -1.1999999999999997E-003     0.0000000000000000     
  -8.9999999999999976E-004     0.0000000000000000     
  -5.9999999999999810E-004     0.0000000000000000     
  -2.9999999999999992E-004     0.0000000000000000     
   0.0000000000000000          0.0000000000000000     
   3.0000000000000165E-004     0.0000000000000000     
   5.9999999999999984E-004     0.0000000000000000     
   9.0000000000000149E-004     0.0000000000000000     
   1.2000000000000031E-003     0.0000000000000000     
   1.5000000000000013E-003     0.0000000000000000     
   1.8000000000000030E-003     0.0000000000000000     
   2.1000000000000012E-003     0.0000000000000000     
   2.3999999999999994E-003     0.0000000000000000     
   2.7000000000000010E-003     0.0000000000000000     
   2.9999999999999992E-003     0.0000000000000000     
   3.3000000000000008E-003     0.0000000000000000     
   3.6000000000000025E-003     0.0000000000000000     
   3.9000000000000007E-003     0.0000000000000000     
   4.2000000000000023E-003     0.0000000000000000     
   4.5000000000000005E-003     0.0000000000000000     
   4.7999999999999987E-003     0.0000000000000000     
   5.1000000000000004E-003     0.0000000000000000     
   5.4000000000000020E-003     0.0000000000000000     
   5.7000000000000037E-003     0.0000000000000000     
   5.9999999999999984E-003     0.0000000000000000     
   6.3000000000000000E-003     0.0000000000000000     
   6.6000000000000017E-003     0.0000000000000000     
   6.9000000000000034E-003     0.0000000000000000     
   7.2000000000000015E-003     0.0000000000000000     
   7.5000000000000032E-003     0.0000000000000000     
   7.8000000000000014E-003     0.0000000000000000     
   8.0999999999999996E-003     0.0000000000000000     
   8.4000000000000012E-003     0.0000000000000000     
   8.7000000000000029E-003     0.0000000000000000     
   9.0000000000000011E-003     0.0000000000000000     
   9.2999999999999992E-003     0.0000000000000000     
   9.6000000000000009E-003     0.0000000000000000     
   9.8999999999999991E-003     0.0000000000000000     
   1.0200000000000001E-002     0.0000000000000000     
   1.0500000000000002E-002     0.0000000000000000     
   1.0800000000000004E-002     0.0000000000000000     
   1.1099999999999999E-002     0.0000000000000000     
   1.1400000000000000E-002     0.0000000000000000     
   1.1700000000000002E-002     0.0000000000000000     
   1.2000000000000004E-002     0.0000000000000000     
   1.2300000000000002E-002     0.0000000000000000     
   1.2600000000000000E-002     0.0000000000000000     
   1.2900000000000002E-002     0.0000000000000000     
   1.3200000000000000E-002     0.0000000000000000     
   1.3500000000000002E-002     0.0000000000000000     
   1.3800000000000003E-002     0.0000000000000000     
   1.4100000000000001E-002     0.0000000000000000     
   1.4400000000000000E-002     0.0000000000000000     
   1.4700000000000001E-002     0.0000000000000000     
   1.4999999999999999E-002     0.0000000000000000     
   1.5300000000000001E-002     0.0000000000000000     
   1.5600000000000003E-002     0.0000000000000000     
   1.5899999999999997E-002     0.0000000000000000     
   1.6199999999999999E-002     0.0000000000000000     
   1.6500000000000001E-002     0.0000000000000000     
   1.6800000000000002E-002     0.0000000000000000     
   1.7100000000000004E-002     0.0000000000000000     
   1.7400000000000006E-002     0.0000000000000000     
   1.7700000000000000E-002     0.0000000000000000     
   1.8000000000000002E-002     0.0000000000000000     
   1.8300000000000004E-002     0.0000000000000000     
   1.8600000000000005E-002     0.0000000000000000     
   1.8900000000000000E-002     0.0000000000000000     
   1.9200000000000002E-002     0.0000000000000000     
   1.9500000000000003E-002     0.0000000000000000     
   1.9799999999999998E-002     0.0000000000000000     
   2.0100000000000000E-002     0.0000000000000000     
   2.0400000000000001E-002     0.0000000000000000     
   2.0700000000000003E-002     0.0000000000000000     
   2.0999999999999998E-002     0.0000000000000000     
   2.1299999999999999E-002     0.0000000000000000     
   2.1600000000000001E-002     0.0000000000000000     
   2.1900000000000003E-002     0.0000000000000000     
   2.2200000000000004E-002     0.0000000000000000     
   2.2500000000000006E-002     0.0000000000000000     
   2.2800000000000001E-002     0.0000000000000000     
   2.3100000000000002E-002     0.0000000000000000     
   2.3400000000000004E-002     0.0000000000000000     
   2.3699999999999999E-002     0.0000000000000000     
   2.4000000000000000E-002     0.0000000000000000     
   2.4300000000000002E-002     0.0000000000000000     
   2.4599999999999997E-002     0.0000000000000000     
   2.4900000000000005E-002     0.0000000000000000     
   2.5200000000000000E-002     0.0000000000000000     
   2.5499999999999995E-002     0.0000000000000000     
   2.5800000000000003E-002     0.0000000000000000     
   2.6099999999999998E-002     0.0000000000000000     
   2.6400000000000007E-002     0.0000000000000000     
   2.6700000000000002E-002     0.0000000000000000     
   2.6999999999999996E-002     0.0000000000000000     
   2.7300000000000005E-002     0.0000000000000000     
   2.7600000000000000E-002     0.0000000000000000     
   2.7900000000000008E-002     0.0000000000000000     
   2.8200000000000003E-002     0.0000000000000000     
   2.8499999999999998E-002     0.0000000000000000     
   2.8800000000000006E-002     0.0000000000000000     
   2.9100000000000001E-002     9.0528777593443650E-043
   2.9400000000000003E-002     1.4466867071294128E-042
   2.9700000000000004E-002    -2.9761325975572914E-041
   3.0000000000000006E-002     4.5789057409150871E-039
   3.0300000000000001E-002     3.4678926034698229E-037
   3.0600000000000002E-002    -2.1989708618909190E-036
   3.0900000000000004E-002    -4.4928250513654574E-036
   3.1199999999999999E-002     9.9787110099153556E-035
   3.1500000000000007E-002    -4.1298217767358699E-034
   3.1800000000000002E-002    -6.2705681730570827E-035
   3.2099999999999997E-002     1.0362788660490633E-034
   3.2400000000000005E-002     1.4980846254085458E-033
   3.2700000000000000E-002    -1.2574958584762878E-032
   3.3000000000000002E-002     5.4504017650002075E-032
   3.3300000000000003E-002    -1.8489207299452099E-031
   3.3599999999999998E-002     5.3365090887451659E-031
   3.3900000000000000E-002    -1.3342468790074335E-030
   3.4200000000000001E-002     2.8366515777397279E-030
   3.4500000000000003E-002    -4.6802172491196499E-030
   3.4799999999999998E-002     3.6903780641733510E-030
   3.5099999999999999E-002     1.1957434979247741E-029
   3.5400000000000001E-002    -7.4606329623965910E-029
   3.5699999999999996E-002     2.5281466363331007E-028
   3.6000000000000004E-002    -6.4784811977792370E-028
   3.6299999999999999E-002     1.2906394889992966E-027
   3.6600000000000008E-002    -1.7508441398157153E-027
   3.6900000000000002E-002     1.7049534354214037E-028
   3.7199999999999997E-002     8.3515299318562205E-027
   3.7500000000000006E-002    -3.2773930922799431E-026
   3.7800000000000000E-002     8.1586861390550253E-026
   3.8100000000000009E-002    -1.4150973911027216E-025
   3.8400000000000004E-002     1.2493102704015824E-025
   3.8699999999999998E-002     2.0815824015571658E-025
   3.9000000000000007E-002    -1.2647018637032578E-024
   3.9300000000000002E-002     3.3061165580806870E-024
   3.9600000000000003E-002    -5.3817337377882106E-024
   3.9900000000000005E-002     3.3791629775855409E-024
   4.0200000000000000E-002     1.1282644723502770E-023
   4.0500000000000001E-002    -4.7192378354969166E-023
   4.0800000000000003E-002     9.4394535991714261E-023
   4.1100000000000005E-002    -8.9970863308461983E-023
   4.1399999999999999E-002    -1.0188123908586711E-022
   4.1700000000000008E-002     6.0398851849607774E-022
   4.2000000000000003E-002    -1.2122776909578432E-021
   4.2299999999999997E-002     8.9808673662964190E-022
   4.2600000000000006E-002     2.2736708125647400E-021
   4.2900000000000001E-002    -9.4780084535334156E-021
   4.3200000000000002E-002     1.6900145460288750E-020
   4.3500000000000004E-002    -1.3276229879450565E-020
   4.3799999999999999E-002    -1.5566522688535904E-021
   4.4100000000000000E-002    -7.1660604937831961E-020
   4.4400000000000002E-002     6.7704468945719374E-019
   4.4700000000000004E-002    -3.0640440080014579E-018
   4.4999999999999998E-002     9.5123653513056846E-018
   4.5300000000000000E-002    -2.0423149190022380E-017
   4.5600000000000002E-002     1.7707935010277062E-017
   4.5899999999999996E-002     9.0560892620609139E-017
   4.6200000000000005E-002    -5.8620055610508866E-016
   4.6500000000000000E-002     1.9917227800359139E-015
   4.6799999999999994E-002    -4.2923760269993779E-015
   4.7100000000000003E-002     3.1065869203958847E-015
   4.7399999999999998E-002     1.9953019663326054E-014
   4.7700000000000006E-002    -1.0490197338803103E-013
   4.8000000000000001E-002     2.6464313518702248E-013
   4.8300000000000010E-002    -2.3871859528051952E-013
   4.8600000000000004E-002    -1.0163863676479119E-012
   4.8899999999999999E-002     5.1785076227496686E-012
   4.9200000000000008E-002    -1.0139540645548094E-011
   4.9500000000000002E-002    -2.8619705249861525E-012
   4.9800000000000011E-002     7.4853343647599821E-011
   5.0100000000000006E-002    -1.9042324927760332E-010
   5.0400000000000000E-002     2.7644373287884346E-011
   5.0700000000000009E-002     1.1020875488504900E-009
   5.1000000000000004E-002    -2.6340287049703896E-009
   5.1299999999999998E-002    -1.0874877444090317E-009
   5.1600000000000007E-002     1.7140368931057131E-008
   5.1900000000000002E-002    -2.1818745631176699E-008
   5.2200000000000010E-002    -6.4592730887919851E-008
   5.2500000000000005E-002     1.8734129001846506E-007
   5.2800000000000000E-002     1.5719868323347422E-007
   5.3099999999999994E-002    -1.0879598273758972E-006
   5.3400000000000003E-002    -1.6999404026338208E-007
   5.3699999999999998E-002     8.8197171614998921E-006
   5.4000000000000006E-002     2.1580187479680313E-005
   5.4300000000000001E-002     2.5563484095340717E-005
   5.4599999999999996E-002     2.3428827985042609E-005
   5.4900000000000004E-002     3.4071526694256981E-005
   5.5199999999999999E-002     6.3528426793023319E-005
   5.5499999999999994E-002     1.0039012984779436E-004
   5.5800000000000002E-002     1.4202191090059764E-004
   5.6099999999999997E-002     2.0247444901676730E-004
   5.6400000000000006E-002     2.9671169814588134E-004
   5.6700000000000000E-002     4.3227209234214178E-004
   5.6999999999999995E-002     6.1570112256618525E-004
   5.7300000000000004E-002     8.5648440628669832E-004
   5.7599999999999998E-002     1.1611778218097396E-003
   5.7900000000000007E-002     1.5378671305938635E-003
   5.8200000000000002E-002     2.0046231835427072E-003
   5.8499999999999996E-002     2.5687680650561947E-003
   5.8800000000000005E-002     3.2089156929138336E-003
   5.9100000000000000E-002     3.8895138168092711E-003
   5.9400000000000008E-002     4.5601409789700204E-003
   5.9700000000000003E-002     5.1385531462998842E-003
   6.0000000000000012E-002     5.5132224001764891E-003
   6.0300000000000006E-002     5.5363823026678017E-003
   6.0600000000000001E-002     5.0039626532956630E-003
   6.0900000000000010E-002     3.6607739053916037E-003
   6.1200000000000004E-002     1.2238740111576133E-003
   6.1500000000000013E-002    -2.5921888107522596E-003
   6.1800000000000008E-002    -8.0622494875082426E-003
   6.2100000000000002E-002    -1.5439934228395541E-002
   6.2399999999999997E-002    -2.4898201178547165E-002
   6.2700000000000006E-002    -3.6449849852845370E-002
   6.3000000000000000E-002    -4.9916899727973141E-002
   6.3300000000000009E-002    -6.4899911513562752E-002
   6.3600000000000004E-002    -8.0716803231563522E-002
   6.3899999999999998E-002    -9.6372259090068330E-002
   6.4199999999999993E-002   -0.11056687098236637     
   6.4500000000000002E-002   -0.12174351206487471     
   6.4800000000000010E-002   -0.12816102124069731     
   6.5100000000000005E-002   -0.12800097960170340     
   6.5400000000000000E-002   -0.11952519486619154     
   6.5700000000000008E-002   -0.10123988963975224     
   6.5999999999999989E-002    -7.2114601131173711E-002
   6.6299999999999998E-002    -3.1748560583494526E-002
   6.6600000000000006E-002     1.9502818255035914E-002
   6.6900000000000001E-002     8.0383756565701792E-002
   6.7199999999999996E-002    0.14871030076090785     
   6.7500000000000004E-002    0.22143869272203814     
   6.7800000000000013E-002    0.29479536349872587     
   6.8099999999999994E-002    0.36450843657291354     
   6.8400000000000002E-002    0.42611539510295621     
   6.8700000000000011E-002    0.47526197385944635     
   6.8999999999999992E-002    0.50807408148305533     
   6.9300000000000000E-002    0.52152207311499699     
   6.9600000000000009E-002    0.51365590675037576     
   6.9900000000000004E-002    0.48379865400507460     
   7.0199999999999999E-002    0.43260814047017387     
   7.0500000000000007E-002    0.36203713405378857     
   7.0800000000000016E-002    0.27519661231405551     
   7.1099999999999997E-002    0.17610596085717067     
   7.1400000000000005E-002     6.9325060528889537E-002
   7.1700000000000000E-002    -4.0378036898694861E-002
   7.1999999999999995E-002   -0.14822006800539778     
   7.2300000000000003E-002   -0.24994211014404943     
   7.2600000000000012E-002   -0.34182359797189377     
   7.2900000000000006E-002   -0.42088696993497565     
   7.3200000000000001E-002   -0.48504666810231667     
   7.3499999999999996E-002   -0.53292491214459337     
   7.3800000000000004E-002   -0.56387026286589792     
   7.4099999999999999E-002   -0.57790704113577407     
   7.4400000000000008E-002   -0.57548386144155583     
   7.4700000000000003E-002   -0.55745946567127946     
   7.5000000000000011E-002   -0.52502388380113163     
   7.5299999999999992E-002   -0.47963039915466354     
   7.5600000000000001E-002   -0.42299849028203040     
   7.5900000000000009E-002   -0.35709519146913077     
   7.6200000000000004E-002   -0.28420387118852181     
   7.6499999999999999E-002   -0.20686928578221048     
   7.6800000000000007E-002   -0.12787348843716301     
   7.7099999999999988E-002    -5.0183304491191433E-002
   7.7399999999999997E-002     2.3202181666543940E-002
   7.7700000000000005E-002     8.9350032275637759E-002
   7.8000000000000014E-002    0.14554689834583595     
   7.8299999999999995E-002    0.18946505017952253     
   7.8600000000000003E-002    0.21929234272174680     
   7.8900000000000012E-002    0.23388052596259734     
   7.9199999999999993E-002    0.23274166330992579     
   7.9500000000000001E-002    0.21609599521664996     
   7.9800000000000010E-002    0.18484846123117263     
   8.0100000000000018E-002    0.14043644640013075     
   8.0399999999999999E-002     8.4854884985401724E-002
   8.0700000000000008E-002     2.0563439507915220E-002
   8.1000000000000003E-002    -4.9702170863927198E-002
   8.1299999999999997E-002   -0.12291727001271385     
   8.1600000000000006E-002   -0.19586323455756155     
   8.1900000000000014E-002   -0.26509685504607694     
   8.2199999999999995E-002   -0.32706807267196375     
   8.2500000000000004E-002   -0.37833199553322205     
   8.2799999999999999E-002   -0.41538937697456335     
   8.3100000000000007E-002   -0.43500170938094762     
   8.3400000000000002E-002   -0.43454484595062493     
   8.3700000000000011E-002   -0.41193443443613970     
   8.4000000000000005E-002   -0.36598575784035964     
   8.4300000000000000E-002   -0.29677984780876909     
   8.4599999999999995E-002   -0.20566047390780109     
   8.4900000000000003E-002    -9.5333191718793911E-002
   8.5199999999999998E-002     3.0019232413068461E-002
   8.5500000000000007E-002    0.16506838125067289     
   8.5800000000000001E-002    0.30342124336494103     
   8.6100000000000010E-002    0.43819578109548085     
   8.6399999999999991E-002    0.56243683807912892     
   8.6699999999999999E-002    0.66943413135492469     
   8.7000000000000008E-002    0.75355283628076686     
   8.7300000000000003E-002    0.81053757079581401     
   8.7599999999999997E-002    0.83763923538322405     
   8.7900000000000006E-002    0.83414895897160624     
   8.8200000000000014E-002    0.80131610410638721     
   8.8499999999999995E-002    0.74210599935727306     
   8.8800000000000004E-002    0.66105419264680343     
   8.9100000000000013E-002    0.56380161318518851     
   8.9399999999999993E-002    0.45670616111977624     
   8.9700000000000002E-002    0.34630505991702776     
   9.0000000000000011E-002    0.23871070801209915     
   9.0299999999999991E-002    0.13944913055385477     
   9.0600000000000000E-002     5.2949903172906265E-002
   9.0900000000000009E-002    -1.7724814523411229E-002
   9.1200000000000017E-002    -7.0722227668297832E-002
   9.1499999999999998E-002   -0.10559705204614853     
   9.1800000000000007E-002   -0.12323829333060696     
   9.2100000000000001E-002   -0.12546277335328071     
   9.2399999999999996E-002   -0.11503046278559181     
   9.2700000000000005E-002    -9.5301229310344515E-002
   9.3000000000000013E-002    -6.9892646457670890E-002
   9.3300000000000008E-002    -4.2605341948168243E-002
   9.3600000000000003E-002    -1.7138320860698691E-002
   9.3899999999999997E-002     3.0201315521808216E-003
   9.4200000000000006E-002     1.4868851667840598E-002
   9.4500000000000001E-002     1.5978502914873280E-002
   9.4800000000000009E-002     4.4811266335450517E-003
   9.5100000000000004E-002    -2.0718358532629887E-002
   9.5399999999999999E-002    -5.9976336443101200E-002
   9.5699999999999993E-002   -0.11279984872761376     
   9.6000000000000002E-002   -0.17789573932148775     
   9.6300000000000011E-002   -0.25334194528149767     
   9.6600000000000005E-002   -0.33630300206564434     
   9.6900000000000000E-002   -0.42346535490492060     
   9.7200000000000009E-002   -0.51124468966585135     
   9.7499999999999989E-002   -0.59547924958377529     
   9.7799999999999998E-002   -0.67205624598029512     
   9.8100000000000007E-002   -0.73709252896301358     
   9.8400000000000015E-002   -0.78677392993115158     
   9.8699999999999996E-002   -0.81794135588991435     
   9.9000000000000005E-002   -0.82803523143306768     
   9.9300000000000013E-002   -0.81516942775508361     
   9.9599999999999994E-002   -0.77849626986350762     
   9.9900000000000003E-002   -0.71795848765512427     
  0.10020000000000001        -0.63450413924493843     
  0.10049999999999999        -0.53023811142264943     
  0.10080000000000000        -0.40794064491091692     
  0.10110000000000001        -0.27137818779159084     
  0.10140000000000000        -0.12515769989209727     
  0.10170000000000000          2.5742743239941156E-002
  0.10200000000000001         0.17571134320510651     
  0.10230000000000002         0.31911790026604436     
  0.10260000000000000         0.45036843057728593     
  0.10290000000000001         0.56426611358660828     
  0.10320000000000000         0.65624506162095075     
  0.10350000000000001         0.72268564258618218     
  0.10380000000000000         0.76118911255267674     
  0.10410000000000001         0.77058352501150451     
  0.10440000000000001         0.75109004460979745     
  0.10470000000000000         0.70431484440592795     
  0.10500000000000000         0.63305926642888755     
  0.10530000000000000         0.54120157261635238     
  0.10560000000000000         0.43319160419602853     
  0.10590000000000001         0.31386450895096163     
  0.10620000000000000         0.18815777093702507     
  0.10650000000000001          6.0483292022354487E-002
  0.10679999999999999         -6.5230875043833778E-002
  0.10710000000000000        -0.18576248000841789     
  0.10740000000000001        -0.29877781268450831     
  0.10770000000000000        -0.40238342526507642     
  0.10800000000000000        -0.49516527391254106     
  0.10830000000000001        -0.57594476878372869     
  0.10859999999999999        -0.64319540786452034     
  0.10890000000000000        -0.69502995283513369     
  0.10920000000000001        -0.72884246415382803     
  0.10950000000000001        -0.74132529940646297     
  0.10979999999999999        -0.72879334160839515     
  0.11009999999999999        -0.68717064119140780     
  0.11040000000000001        -0.61272334240714699     
  0.11070000000000001        -0.50266359636376368     
  0.11100000000000000        -0.35553898246969001     
  0.11130000000000000        -0.17205351924904347     
  0.11160000000000002          4.4709459380525687E-002
  0.11190000000000001         0.28895417313188310     
  0.11220000000000001         0.55231720752587476     
  0.11250000000000000         0.82423961715367977     
  0.11280000000000000          1.0924169179416319     
  0.11309999999999999          1.3439631740364471     
  0.11340000000000001          1.5660926608060426     
  0.11369999999999998          1.7471027708373605     
  0.11400000000000000          1.8776165417809625     
  0.11430000000000000          1.9510861004370899     
  0.11460000000000002          1.9639089935527227     
  0.11489999999999999          1.9160761504298942     
  0.11520000000000001          1.8109388719805186     
  0.11550000000000001          1.6543753120003577     
  0.11580000000000000          1.4543696835556685     
  0.11609999999999999          1.2202973034673126     
  0.11640000000000002         0.96189761406105312     
  0.11670000000000001         0.68862212932677092     
  0.11700000000000001         0.40918694871779765     
  0.11730000000000000         0.13082284574744679     
  0.11760000000000000        -0.14053714068964762     
  0.11789999999999999        -0.40026641113000661     
  0.11820000000000001        -0.64519408734374006     
  0.11850000000000001        -0.87285601914503330     
  0.11880000000000000         -1.0811507224905892     
  0.11910000000000000         -1.2685967004336143     
  0.11940000000000002         -1.4332325649005080     
  0.11970000000000001         -1.5727640262289841     
  0.12000000000000001         -1.6850925725926755     
  0.12030000000000000         -1.7674562797180853     
  0.12060000000000000         -1.8170121442083733     
  0.12089999999999999         -1.8314957713670270     
  0.12119999999999999         -1.8087552133051847     
  0.12150000000000001         -1.7474832614873397     
  0.12180000000000001         -1.6476076741723977     
  0.12210000000000000         -1.5100267301333501     
  0.12239999999999999         -1.3371966473050523     
  0.12270000000000002         -1.1329353129357502     
  0.12300000000000001        -0.90248896512095511     
  0.12330000000000001        -0.65266750042083221     
  0.12360000000000000        -0.39141913743784240     
  0.12390000000000000        -0.12741749014793907     
  0.12419999999999999         0.12962736730863281     
  0.12450000000000001         0.36994860467134788     
  0.12480000000000001         0.58406734219987178     
  0.12509999999999999         0.76281124496525610     
  0.12540000000000001         0.89852100574131766     
  0.12570000000000003         0.98509035736627171     
  0.12600000000000000          1.0184575890699064     
  0.12630000000000002         0.99725437918962956     
  0.12659999999999999         0.92272073855617820     
  0.12690000000000001         0.79910560117178542     
  0.12719999999999998         0.63350435088847445     
  0.12750000000000000         0.43543336846022496     
  0.12780000000000002         0.21679577118332582     
  0.12809999999999999         -9.1640879385751217E-003
  0.12840000000000001        -0.22859547314848566     
  0.12869999999999998        -0.42747216088854129     
  0.12900000000000000        -0.59292208653935097     
  0.12930000000000003        -0.71407799321981491     
  0.12959999999999999        -0.78256934969335634     
  0.12990000000000002        -0.79328135728597649     
  0.13019999999999998        -0.74478338035808089     
  0.13050000000000000        -0.63949965678229603     
  0.13080000000000003        -0.48352064256062777     
  0.13109999999999999        -0.28628393745396541     
  0.13140000000000002         -5.9868155419136315E-002
  0.13169999999999998         0.18158724755617767     
  0.13200000000000001         0.42289335756229895     
  0.13229999999999997         0.64895691248894793     
  0.13260000000000000         0.84560438682378158     
  0.13290000000000002          1.0004222627654589     
  0.13319999999999999          1.1037882086396156     
  0.13350000000000001          1.1491930530402961     
  0.13380000000000003          1.1336026958103251     
  0.13410000000000000          1.0579212566854408     
  0.13440000000000002         0.92631390974893169     
  0.13469999999999999         0.74634126580435445     
  0.13500000000000001         0.52826018124285745     
  0.13529999999999998         0.28411961554849413     
  0.13560000000000000          2.7526801911394408E-002
  0.13590000000000002        -0.22745521400431876     
  0.13619999999999999        -0.46729544784793742     
  0.13650000000000001        -0.67916115851516268     
  0.13680000000000003        -0.85189671400308342     
  0.13710000000000000        -0.97659108999960309     
  0.13740000000000002         -1.0467425902834466     
  0.13769999999999999         -1.0587379632520446     
  0.13800000000000001         -1.0117719338709985     
  0.13829999999999998        -0.90802891619236314     
  0.13860000000000000        -0.75262549771477749     
  0.13890000000000002        -0.55313551505181180     
  0.13919999999999999        -0.31940958197897018     
  0.13950000000000001         -6.3317083862717116E-002
  0.13979999999999998         0.20221300475908952     
  0.14010000000000000         0.46352147981518821     
  0.14040000000000002         0.70691730185572177     
  0.14069999999999999         0.91956507488842032     
  0.14100000000000001          1.0900792457127451     
  0.14130000000000004          1.2091295728961851     
  0.14160000000000000          1.2702104598521897     
  0.14189999999999997          1.2699950125026800     
  0.14219999999999999          1.2084358727933915     
  0.14250000000000002          1.0888963248201993     
  0.14279999999999998         0.91801107318140973     
  0.14310000000000000         0.70521781581037601     
  0.14339999999999997         0.46206634930337553     
  0.14369999999999999         0.20160582854243914     
  0.14400000000000002         -6.2356012769233304E-002
  0.14429999999999998        -0.31632517590247222     
  0.14460000000000001        -0.54748628178531611     
  0.14490000000000003        -0.74468393880975747     
  0.14520000000000000        -0.89899879450820286     
  0.14550000000000002         -1.0038832773188262     
  0.14579999999999999         -1.0556311345301930     
  0.14610000000000001         -1.0534273135234995     
  0.14640000000000003        -0.99913257163226588     
  0.14670000000000000        -0.89755301329029047     
  0.14699999999999996        -0.75574059223986700     
  0.14729999999999999        -0.58272209115163309     
  0.14760000000000001        -0.38938688001846566     
  0.14789999999999998        -0.18769608796992610     
  0.14820000000000000          1.0338570262014943E-002