  -1.4999999999999999E-002     0.0000000000000000     
  -1.4700000000000000E-002     0.0000000000000000     
  -1.4400000000000000E-002     0.0000000000000000     
  -1.4100000000000000E-002     0.0000000000000000     
  -1.3800000000000000E-002     0.0000000000000000     
  -1.3500000000000000E-002     0.0000000000000000     
  -1.3200000000000000E-002     0.0000000000000000     
  -1.2899999999999998E-002     0.0000000000000000     
  -1.2600000000000000E-002     0.0000000000000000     
  -1.2299999999999998E-002     0.0000000000000000     
  -1.2000000000000000E-002     0.0000000000000000     
  -1.1699999999999999E-002     0.0000000000000000     
  -1.1399999999999999E-002     0.0000000000000000     
  -1.1099999999999999E-002     0.0000000000000000     
  -1.0799999999999999E-002     0.0000000000000000     
  -1.0499999999999999E-002     0.0000000000000000     
  -1.0199999999999999E-002     0.0000000000000000     
  -9.8999999999999991E-003     0.0000000000000000     
  -9.5999999999999992E-003     0.0000000000000000     
  -9.2999999999999992E-003     0.0000000000000000     
  -8.9999999999999993E-003     0.0000000000000000     
  -8.6999999999999994E-003     0.0000000000000000     
  -8.3999999999999995E-003     0.0000000000000000     
  -8.0999999999999996E-003     0.0000000000000000     
  -7.7999999999999988E-003     0.0000000000000000     
  -7.4999999999999997E-003     0.0000000000000000     
  -7.1999999999999998E-003     0.0000000000000000     
  -6.8999999999999981E-003     0.0000000000000000     
  -6.5999999999999982E-003     0.0000000000000000     
  -6.3000000000000000E-003     0.0000000000000000     
  -6.0000000000000001E-003     0.0000000000000000     
  -5.6999999999999985E-003     0.0000000000000000     
  -5.3999999999999986E-003     0.0000000000000000     
  -5.1000000000000004E-003     0.0000000000000000     
  -4.7999999999999987E-003     0.0000000000000000     
  -4.5000000000000005E-003     0.0000000000000000     
  -4.1999999999999989E-003     0.0000000000000000     
  -3.8999999999999990E-003     0.0000000000000000     
  -3.5999999999999990E-003     0.0000000000000000     
  -3.2999999999999991E-003     0.0000000000000000     
  -2.9999999999999992E-003     0.0000000000000000     
  -2.6999999999999993E-003     0.0000000000000000     
  -2.3999999999999994E-003     0.0000000000000000     
  -2.0999999999999977E-003     0.0000000000000000     
  -1.7999999999999995E-003     0.0000000000000000     
  -1.4999999999999979E-003     0.0000000000000000     
  -1.1999999999999997E-003     0.0000000000000000     
  -8.9999999999999976E-004     0.0000000000000000     
  -5.9999999999999810E-004     0.0000000000000000     
  -2.9999999999999992E-004     0.0000000000000000     
   0.0000000000000000          0.0000000000000000     
   3.0000000000000165E-004     0.0000000000000000     
   5.9999999999999984E-004     0.0000000000000000     
   9.0000000000000149E-004     0.0000000000000000     
   1.2000000000000031E-003     0.0000000000000000     
   1.5000000000000013E-003     0.0000000000000000     
   1.8000000000000030E-003     0.0000000000000000     
   2.1000000000000012E-003     0.0000000000000000     
   2.3999999999999994E-003     0.0000000000000000     
   2.7000000000000010E-003     0.0000000000000000     
   2.9999999999999992E-003     0.0000000000000000     
   3.3000000000000008E-003     0.0000000000000000     
   3.6000000000000025E-003     0.0000000000000000     
   3.9000000000000007E-003     0.0000000000000000     
   4.2000000000000023E-003     0.0000000000000000     
   4.5000000000000005E-003     0.0000000000000000     
   4.7999999999999987E-003     0.0000000000000000     
   5.1000000000000004E-003     0.0000000000000000     
   5.4000000000000020E-003     0.0000000000000000     
   5.7000000000000037E-003     0.0000000000000000     
   5.9999999999999984E-003     0.0000000000000000     
   6.3000000000000000E-003     0.0000000000000000     
   6.6000000000000017E-003     0.0000000000000000     
   6.9000000000000034E-003     0.0000000000000000     
   7.2000000000000015E-003     0.0000000000000000     
   7.5000000000000032E-003     0.0000000000000000     
   7.8000000000000014E-003     0.0000000000000000     
   8.0999999999999996E-003     0.0000000000000000     
   8.4000000000000012E-003     0.0000000000000000     
   8.7000000000000029E-003     0.0000000000000000     
   9.0000000000000011E-003     0.0000000000000000     
   9.2999999999999992E-003     0.0000000000000000     
   9.6000000000000009E-003     0.0000000000000000     
   9.8999999999999991E-003     0.0000000000000000     
   1.0200000000000001E-002     0.0000000000000000     
   1.0500000000000002E-002     0.0000000000000000     
   1.0800000000000004E-002     0.0000000000000000     
   1.1099999999999999E-002     0.0000000000000000     
   1.1400000000000000E-002     0.0000000000000000     
   1.1700000000000002E-002     0.0000000000000000     
   1.2000000000000004E-002     0.0000000000000000     
   1.2300000000000002E-002     0.0000000000000000     
   1.2600000000000000E-002     0.0000000000000000     
   1.2900000000000002E-002     0.0000000000000000     
   1.3200000000000000E-002     0.0000000000000000     
   1.3500000000000002E-002     0.0000000000000000     
   1.3800000000000003E-002     0.0000000000000000     
   1.4100000000000001E-002     0.0000000000000000     
   1.4400000000000000E-002     0.0000000000000000     
   1.4700000000000001E-002     0.0000000000000000     
   1.4999999999999999E-002     0.0000000000000000     
   1.5300000000000001E-002     0.0000000000000000     
   1.5600000000000003E-002     0.0000000000000000     
   1.5899999999999997E-002     0.0000000000000000     
   1.6199999999999999E-002     0.0000000000000000     
   1.6500000000000001E-002     0.0000000000000000     
   1.6800000000000002E-002     0.0000000000000000     
   1.7100000000000004E-002     0.0000000000000000     
   1.7400000000000006E-002     0.0000000000000000     
   1.7700000000000000E-002     0.0000000000000000     
   1.8000000000000002E-002     0.0000000000000000     
   1.8300000000000004E-002     0.0000000000000000     
   1.8600000000000005E-002     0.0000000000000000     
   1.8900000000000000E-002     0.0000000000000000     
   1.9200000000000002E-002     0.0000000000000000     
   1.9500000000000003E-002     0.0000000000000000     
   1.9799999999999998E-002     0.0000000000000000     
   2.0100000000000000E-002     0.0000000000000000     
   2.0400000000000001E-002     0.0000000000000000     
   2.0700000000000003E-002     0.0000000000000000     
   2.0999999999999998E-002     0.0000000000000000     
   2.1299999999999999E-002     0.0000000000000000     
   2.1600000000000001E-002     0.0000000000000000     
   2.1900000000000003E-002     0.0000000000000000     
   2.2200000000000004E-002     0.0000000000000000     
   2.2500000000000006E-002     0.0000000000000000     
   2.2800000000000001E-002     0.0000000000000000     
   2.3100000000000002E-002     0.0000000000000000     
   2.3400000000000004E-002     0.0000000000000000     
   2.3699999999999999E-002     0.0000000000000000     
   2.4000000000000000E-002     0.0000000000000000     
   2.4300000000000002E-002     0.0000000000000000     
   2.4599999999999997E-002     0.0000000000000000     
   2.4900000000000005E-002     0.0000000000000000     
   2.5200000000000000E-002     2.7278124933700166E-042
   2.5499999999999995E-002    -4.9442034067886223E-041
   2.5800000000000003E-002     1.2357741360165670E-040
   2.6099999999999998E-002    -1.3245658712009552E-037
   2.6400000000000007E-002     9.4046381519095094E-037
   2.6700000000000002E-002     7.7337662402382417E-037
   2.6999999999999996E-002    -1.2524575407942045E-035
   2.7300000000000005E-002     2.2543664374314627E-035
   2.7600000000000000E-002     2.0372275181081403E-034
   2.7900000000000008E-002    -2.0864701640547338E-033
   2.8200000000000003E-002     7.3566925630652147E-033
   2.8499999999999998E-002    -1.9568024070594370E-032
   2.8800000000000006E-002     4.3062777703424611E-032
   2.9100000000000001E-002    -7.6169194128988132E-032
   2.9400000000000003E-002     7.4126029774291161E-032
   2.9700000000000004E-002     1.7848845785076198E-031
   3.0000000000000006E-002    -1.4230394107475497E-030
   3.0300000000000001E-002     5.7664590908991452E-030
   3.0600000000000002E-002    -1.8246638662873643E-029
   3.0900000000000004E-002     4.8553876864020572E-029
   3.1199999999999999E-002    -1.0882635641466703E-028
   3.1500000000000007E-002     1.9316166165636760E-028
   3.1800000000000002E-002    -2.0215204848504666E-028
   3.2099999999999997E-002    -2.5603746761672388E-028
   3.2400000000000005E-002     2.2550357970193617E-027
   3.2700000000000000E-002    -8.0069264798323446E-027
   3.3000000000000002E-002     2.0520183312121123E-026
   3.3300000000000003E-002    -3.9777744718599446E-026
   3.3599999999999998E-002     4.9930888835807300E-026
   3.3900000000000000E-002     8.7641821807593206E-027
   3.4200000000000001E-002    -2.7756825865370000E-025
   3.4500000000000003E-002     9.7439485832933335E-025
   3.4799999999999998E-002    -2.1939728839315732E-024
   3.5099999999999999E-002     3.2483127349273393E-024
   3.5400000000000001E-002    -1.3949188964234119E-024
   3.5699999999999996E-002    -9.3096432744194624E-024
   3.6000000000000004E-002     3.6009120403806426E-023
   3.6299999999999999E-002    -7.5890943489575711E-023
   3.6600000000000008E-002     9.1041347502626255E-023
   3.6900000000000002E-002     1.9125449085537116E-023
   3.7199999999999997E-002    -3.9480837787733032E-022
   3.7500000000000006E-002     1.0432173234041310E-021
   3.7800000000000000E-002    -1.4656654798232275E-021
   3.8100000000000009E-002     3.4756251556068503E-022
   3.8400000000000004E-002     3.8154044173891083E-021
   3.8699999999999998E-002    -1.0015899962423829E-020
   3.9000000000000007E-002     1.0620304552331533E-020
   3.9300000000000002E-002     8.0248868393239378E-021
   3.9600000000000003E-002    -4.8036665903989115E-020
   3.9900000000000005E-002     5.9921734768303479E-020
   4.0200000000000000E-002     8.7596759055300307E-020
   4.0500000000000001E-002    -5.3463744985766280E-019
   4.0800000000000003E-002     1.1554001812263878E-018
   4.1100000000000005E-002    -1.1261881330223345E-018
   4.1399999999999999E-002    -1.5008591208809250E-018
   4.1700000000000008E-002     1.0592958363007851E-017
   4.2000000000000003E-002    -3.4222395173116911E-017
   4.2299999999999997E-002     8.3469966001488585E-017
   4.2600000000000006E-002    -1.3171495306780627E-016
   4.2900000000000001E-002    -5.7336209880161727E-017
   4.3200000000000002E-002     1.2538032757649125E-015
   4.3500000000000004E-002    -4.5497392414943224E-015
   4.3799999999999999E-002     8.0414161540239908E-015
   4.4100000000000000E-002     3.0260497015794719E-015
   4.4400000000000002E-002    -6.4721917752213687E-014
   4.4700000000000004E-002     1.9104707341468330E-013
   4.4999999999999998E-002    -1.8013951615269817E-013
   4.5300000000000000E-002    -6.6497212790748740E-013
   4.5600000000000002E-002     3.0215892292262845E-012
   4.5899999999999996E-002    -4.2584220817399980E-012
   4.6200000000000005E-002    -6.8319687204049427E-012
   4.6500000000000000E-002     4.1814968152076071E-011
   4.6799999999999994E-002    -5.9098758223457002E-011
   4.7100000000000003E-002    -1.0427180210338655E-010
   4.7399999999999998E-002     5.4044963275575969E-010
   4.7700000000000006E-002    -4.6858289105589533E-010
   4.8000000000000001E-002    -2.0398293770095734E-009
   4.8300000000000010E-002     5.6569956782082933E-009
   4.8600000000000004E-002     2.4587432759860207E-009
   4.8899999999999999E-002    -3.1500878751593198E-008
   4.9200000000000008E-002     1.7718543305422986E-008
   4.9500000000000002E-002     1.3209286993017147E-007
   4.9800000000000011E-002    -1.6960821075439620E-007
   5.0100000000000006E-002    -5.3691894106833893E-007
   5.0400000000000000E-002     1.5806739697341303E-006
   5.0700000000000009E-002     7.9746297668802955E-006
   5.1000000000000004E-002     1.5866024401658286E-005
   5.1299999999999998E-002     2.1702166293320297E-005
   5.1600000000000007E-002     2.7899671294493170E-005
   5.1900000000000002E-002     4.0982722308037711E-005
   5.2200000000000010E-002     6.4693747342747812E-005
   5.2500000000000005E-002     9.9170836804026382E-005
   5.2800000000000000E-002     1.4657784313518532E-004
   5.3099999999999994E-002     2.1591515976066738E-004
   5.3400000000000003E-002     3.2054334985049109E-004
   5.3699999999999998E-002     4.7162429842607934E-004
   5.4000000000000006E-002     6.7903614035398630E-004
   5.4300000000000001E-002     9.5756903749162408E-004
   5.4599999999999996E-002     1.3264353736477069E-003
   5.4900000000000004E-002     1.8055021247303958E-003
   5.5199999999999999E-002     2.4152881462450198E-003
   5.5499999999999994E-002     3.1774099920112791E-003
   5.5800000000000002E-002     4.1113369792876711E-003
   5.6099999999999997E-002     5.2237368586400112E-003
   5.6400000000000006E-002     6.4992750205631819E-003
   5.6700000000000000E-002     7.9079655972220074E-003
   5.6999999999999995E-002     9.4063819809287810E-003
   5.7300000000000004E-002     1.0916538752257052E-002
   5.7599999999999998E-002     1.2315930068077314E-002
   5.7900000000000007E-002     1.3447964523853339E-002
   5.8200000000000002E-002     1.4129712740442595E-002
   5.8499999999999996E-002     1.4155858864452180E-002
   5.8800000000000005E-002     1.3301576772408435E-002
   5.9100000000000000E-002     1.1342503842033115E-002
   5.9400000000000008E-002     8.0986418979117642E-003
   5.9700000000000003E-002     3.4688833651046859E-003
   6.0000000000000012E-002    -2.5564536329669664E-003
   6.0300000000000006E-002    -9.8624643035976622E-003
   6.0600000000000001E-002    -1.8171686885103368E-002
   6.0900000000000010E-002    -2.7032146552407790E-002
   6.1200000000000004E-002    -3.5834773633854441E-002
   6.1500000000000013E-002    -4.3846651224248807E-002
   6.1800000000000008E-002    -5.0260834797669268E-002
   6.2100000000000002E-002    -5.4266839060248873E-002
   6.2399999999999997E-002    -5.5171708833096973E-002
   6.2700000000000006E-002    -5.2504269757414013E-002
   6.3000000000000000E-002    -4.6139366971800273E-002
   6.3300000000000009E-002    -3.6387744999414558E-002
   6.3600000000000004E-002    -2.4045568544027361E-002
   6.3899999999999998E-002    -1.0423920671860841E-002
   6.4199999999999993E-002     2.6931697002940120E-003
   6.4500000000000002E-002     1.3159072719183065E-002
   6.4800000000000010E-002     1.8666864706584105E-002
   6.5100000000000005E-002     1.6972966668604851E-002
   6.5400000000000000E-002     6.1687081392147545E-003
   6.5700000000000008E-002    -1.5027812394279486E-002
   6.5999999999999989E-002    -4.7036141573459950E-002
   6.6299999999999998E-002    -8.9196274850928403E-002
   6.6600000000000006E-002   -0.13968493533891002     
   6.6900000000000001E-002   -0.19552676423443144     
   6.7199999999999996E-002   -0.25271675858544451     
   6.7500000000000004E-002   -0.30647826634245168     
   6.7800000000000013E-002   -0.35165746100262640     
   6.8099999999999994E-002   -0.38314154770069436     
   6.8400000000000002E-002   -0.39633948827431809     
   6.8700000000000011E-002   -0.38768228649195829     
   6.8999999999999992E-002   -0.35498945045623653     
   6.9300000000000000E-002   -0.29780366441612360     
   6.9600000000000009E-002   -0.21756103408003041     
   6.9900000000000004E-002   -0.11755935423391403     
   7.0199999999999999E-002    -2.8245644891311504E-003
   7.0500000000000007E-002    0.12020008526854019     
   7.0800000000000016E-002    0.24407587224443988     
   7.1099999999999997E-002    0.36100794482851173     
   7.1400000000000005E-002    0.46332563465192700     
   7.1700000000000000E-002    0.54414290449184266     
   7.1999999999999995E-002    0.59791223358390089     
   7.2300000000000003E-002    0.62082809955038687     
   7.2600000000000012E-002    0.61120152348502832     
   7.2900000000000006E-002    0.56967448241239438     
   7.3200000000000001E-002    0.49909178473213267     
   7.3499999999999996E-002    0.40448521723646275     
   7.3800000000000004E-002    0.29264017088450511     
   7.4099999999999999E-002    0.17163443390288868     
   7.4400000000000008E-002     5.0311182035886928E-002
   7.4700000000000003E-002    -6.2402306206623098E-002
   7.5000000000000011E-002   -0.15824957926632113     
   7.5299999999999992E-002   -0.23011847638246530     
   7.5600000000000001E-002   -0.27277798026480493     
   7.5900000000000009E-002   -0.28321318242468002     
   7.6200000000000004E-002   -0.26090494995214869     
   7.6499999999999999E-002   -0.20800015707813008     
   7.6800000000000007E-002   -0.12907808927696704     
   7.7099999999999988E-002    -3.0904048210844554E-002
   7.7399999999999997E-002     7.8064864788887578E-002
   7.7700000000000005E-002    0.18836130883223701     
   7.8000000000000014E-002    0.29017295857273284     
   7.8299999999999995E-002    0.37424896370831051     
   7.8600000000000003E-002    0.43244735662012490     
   7.8900000000000012E-002    0.45859975288306831     
   7.9199999999999993E-002    0.44880777490027612     
   7.9500000000000001E-002    0.40204621293824000     
   7.9800000000000010E-002    0.31999995598473674     
   8.0100000000000018E-002    0.20719069921801159     
   8.0399999999999999E-002     7.0463832486075115E-002
   8.0700000000000008E-002    -8.1455627950569806E-002
   8.1000000000000003E-002   -0.23855149642120321     
   8.1299999999999997E-002   -0.39043305482210028     
   8.1600000000000006E-002   -0.52688932573424241     
   8.1900000000000014E-002   -0.63874783899673293     
   8.2199999999999995E-002   -0.71848265245400744     
   8.2500000000000004E-002   -0.76052653756613964     
   8.2799999999999999E-002   -0.76180666797667462     
   8.3100000000000007E-002   -0.72157884895083257     
   8.3400000000000002E-002   -0.64157753505291715     
   8.3700000000000011E-002   -0.52562527543435511     
   8.4000000000000005E-002   -0.37939281431161870     
   8.4300000000000000E-002   -0.20983061710819281     
   8.4599999999999995E-002    -2.4844959975390019E-002
   8.4900000000000003E-002    0.16720684666214358     
   8.5199999999999998E-002    0.35805600205405985     
   8.5500000000000007E-002    0.53967869811264824     
   8.5800000000000001E-002    0.70487876389376525     
   8.6100000000000010E-002    0.84733549900105098     
   8.6399999999999991E-002    0.96178114479510635     
   8.6699999999999999E-002     1.0444229153251166     
   8.7000000000000008E-002     1.0926332527951261     
   8.7300000000000003E-002     1.1052590493048742     
   8.7599999999999997E-002     1.0825665680154084     
   8.7900000000000006E-002     1.0262063133835115     
   8.8200000000000014E-002    0.93922808626200394     
   8.8499999999999995E-002    0.82571664470433270     
   8.8800000000000004E-002    0.69084120273018668     
   8.9100000000000013E-002    0.54040515113777199     
   8.9399999999999993E-002    0.38069822551813781     
   8.9700000000000002E-002    0.21792914162782928     
   9.0000000000000011E-002     5.7968396424028942E-002
   9.0299999999999991E-002    -9.3913891782738304E-002
   9.0600000000000000E-002   -0.23364122026739698     
   9.0900000000000009E-002   -0.35816734142676487     
   9.1200000000000017E-002   -0.46598915879679326     
   9.1499999999999998E-002   -0.55682388029248175     
   9.1800000000000007E-002   -0.63157264791734213     
   9.2100000000000001E-002   -0.69216170263039212     
   9.2399999999999996E-002   -0.74082463827247991     
   9.2700000000000005E-002   -0.78028195925676325     
   9.3000000000000013E-002   -0.81257692612015475     
   9.3300000000000008E-002   -0.83952303432407405     
   9.3600000000000003E-002   -0.86162982305295666     
   9.3899999999999997E-002   -0.87854088347358739     
   9.4200000000000006E-002   -0.88891440166518154     
   9.4500000000000001E-002   -0.89032641340543772     
   9.4800000000000009E-002   -0.88006047164627499     
   9.5100000000000004E-002   -0.85517817205491797     
   9.5399999999999999E-002   -0.81317602253900867     
   9.5699999999999993E-002   -0.75247832287169703     
   9.6000000000000002E-002   -0.67278616546183090     
   9.6300000000000011E-002   -0.57555269666830688     
   9.6600000000000005E-002   -0.46370585117331742     
   9.6900000000000000E-002   -0.34212711793709560     
   9.7200000000000009E-002   -0.21674659272140889     
   9.7499999999999989E-002    -9.4522019571690929E-002
   9.7799999999999998E-002     1.7363945163000549E-002
   9.8100000000000007E-002    0.11250008864253068     
   9.8400000000000015E-002    0.18536605527468197     
   9.8699999999999996E-002    0.23243767216214545     
   9.9000000000000005E-002    0.25256503952915615     
   9.9300000000000013E-002    0.24692406923885990     
   9.9599999999999994E-002    0.21951215062118490     
   9.9900000000000003E-002    0.17623279678302289     
  0.10020000000000001         0.12493598669930864     
  0.10049999999999999          7.4143531381045527E-002
  0.10080000000000000          3.2593812546117019E-002
  0.10110000000000001          7.9038308013704602E-003
  0.10140000000000000          5.9408213480845098E-003
  0.10170000000000000          3.0342583215077816E-002
  0.10200000000000001          8.1243977048390814E-002
  0.10230000000000002         0.15625961196151428     
  0.10260000000000000         0.24963252134741376     
  0.10290000000000001         0.35341233325425303     
  0.10320000000000000         0.45801867416906172     
  0.10350000000000001         0.55302723151995459     
  0.10380000000000000         0.62877351168784434     
  0.10410000000000001         0.67670727715284817     
  0.10440000000000001         0.69085028750148259     
  0.10470000000000000         0.66798661787719316     
  0.10500000000000000         0.60818141938313330     
  0.10530000000000000         0.51441323625352930     
  0.10560000000000000         0.39245335250436281     
  0.10590000000000001         0.24985546506884071     
  0.10620000000000000          9.5115332721671761E-002
  0.10650000000000001         -6.3275265451766372E-002
  0.10679999999999999        -0.21768902792546668     
  0.10710000000000000        -0.36189106599153564     
  0.10740000000000001        -0.49169436727472826     
  0.10770000000000000        -0.60467182172480083     
  0.10800000000000000        -0.70004856153229034     
  0.10830000000000001        -0.77786275475945599     
  0.10859999999999999        -0.83844272460447400     
  0.10890000000000000        -0.88168092176400703     
  0.10920000000000001        -0.90625946754502884     
  0.10950000000000001        -0.90919289629524180     
  0.10979999999999999        -0.88656736013345516     
  0.11009999999999999        -0.83274546344533085     
  0.11040000000000001        -0.74203742672223827     
  0.11070000000000001        -0.60962922298241362     
  0.11100000000000000        -0.43218326950978059     
  0.11130000000000000        -0.20973276733549306     
  0.11160000000000002          5.3790418280651293E-002
  0.11190000000000001         0.35000568017853451     
  0.11220000000000001         0.66583450888567075     
  0.11250000000000000         0.98401651492844433     
  0.11280000000000000          1.2841407158129563     
  0.11309999999999999          1.5443538406220987     
  0.11340000000000001          1.7427613038947793     
  0.11369999999999998          1.8604264463375131     
  0.11400000000000000          1.8821781697055000     
  0.11430000000000000          1.7994705426325335     
  0.11460000000000002          1.6107698190769377     
  0.11489999999999999          1.3227457013603110     
  0.11520000000000001         0.95024005953461210     
  0.11550000000000001         0.51481329085778527     
  0.11580000000000000          4.4092685736604548E-002
  0.11609999999999999        -0.43088698266035463     
  0.11640000000000002        -0.87797094947066001     
  0.11670000000000001         -1.2660386914102335     
  0.11700000000000001         -1.5685203548670910     
  0.11730000000000000         -1.7641049268922491     
  0.11760000000000000         -1.8397261461679104     
  0.11789999999999999         -1.7908273061724298     
  0.11820000000000001         -1.6219834852838440     
  0.11850000000000001         -1.3463059066205121     
  0.11880000000000000        -0.98438780474591758     
  0.11910000000000000        -0.56283029439266319     
  0.11940000000000002        -0.11159136007215975     
  0.11970000000000001         0.33752274712080360     
  0.12000000000000001         0.75396012256081668     
  0.12030000000000000          1.1103209722975098     
  0.12060000000000000          1.3839629365304227     
  0.12089999999999999          1.5594504511076646     
  0.12119999999999999          1.6280332927209253     
  0.12150000000000001          1.5896640534278128     
  0.12180000000000001          1.4512197117449006     
  0.12210000000000000          1.2266849584421622     
  0.12239999999999999         0.93593980166571122     
  0.12270000000000002         0.60226502153709616     
  0.12300000000000001         0.25146388810817644     
  0.12330000000000001         -9.0829308400027953E-002
  0.12360000000000000        -0.40047682322584521     
  0.12390000000000000        -0.65684582504021716     
  0.12419999999999999        -0.84417317415317461     
  0.12450000000000001        -0.95234328033698512     
  0.12480000000000001        -0.97710856385824929     
  0.12509999999999999        -0.92053847740912298     
  0.12540000000000001        -0.79015053114036415     
  0.12570000000000003        -0.59801839573558668     
  0.12600000000000000        -0.35971895971393147     
  0.12630000000000002         -9.2922639064744988E-002
  0.12659999999999999         0.18397455194855117     
  0.12690000000000001         0.45289671059978143     
  0.12719999999999998         0.69748642504868275     
  0.12750000000000000         0.90368186981114640     
  0.12780000000000002          1.0602265501768660     
  0.12809999999999999          1.1593330064238794     
  0.12840000000000001          1.1961999642728900     
  0.12869999999999998          1.1692329966933441     
  0.12900000000000000          1.0799929051034933     
  0.12930000000000003         0.93209128882503944     
  0.12959999999999999         0.73198495120628471     
  0.12990000000000002         0.48746931531491011     
  0.13019999999999998         0.20838732388206743     
  0.13050000000000000         -9.4627959237322617E-002
  0.13080000000000003        -0.40988164589194154     
  0.13109999999999999        -0.72545202858818936     
  0.13140000000000002         -1.0295664976000629     
  0.13169999999999998         -1.3108764076831858     
  0.13200000000000001         -1.5591726583949483     
  0.13229999999999997         -1.7657618858251338     
  0.13260000000000000         -1.9237508710206503     
  0.13290000000000002         -2.0282287267273724     
  0.13319999999999999         -2.0764927965181403     
  0.13350000000000001         -2.0677455958593112     
  0.13380000000000003         -2.0028468056528972     
  0.13410000000000000         -1.8841422378292290     
  0.13440000000000002         -1.7147587305836740     
  0.13469999999999999         -1.4986844611104795     
  0.13500000000000001         -1.2400576743719962     
  0.13529999999999998        -0.94373337236440635     
  0.13560000000000000        -0.61467387968554232     
  0.13590000000000002        -0.25923692558461264     
  0.13619999999999999         0.11497739489388371     
  0.13650000000000001         0.49842166577248803     
  0.13680000000000003         0.87901391904025683     
  0.13710000000000000          1.2422122736317027     
  0.13740000000000002          1.5712838257516515     
  0.13769999999999999          1.8475687226599637     
  0.13800000000000001          2.0523380775783506     
  0.13829999999999998          2.1677283633398563     
  0.13860000000000000          2.1792890207336808     
  0.13890000000000002          2.0775476425573420     
  0.13919999999999999          1.8599822035108771     
  0.13950000000000001          1.5324888160576107     
  0.13979999999999998          1.1100444288642974     
  0.14010000000000000         0.61685360019187352     
  0.14040000000000002          8.4810601685155307E-002
  0.14069999999999999        -0.44807969180931256     
  0.14100000000000001        -0.94025374837240872     
  0.14130000000000004         -1.3509588358514044     
  0.14160000000000000         -1.6421091158322896     
  0.14189999999999997         -1.7836279284073016     
  0.14219999999999999         -1.7545172180769795     
  0.14250000000000002         -1.5463133041231003     
  0.14279999999999998         -1.1635154340980698     
  0.14310000000000000        -0.62376504148462630     
  0.14339999999999997          4.2692910079737967E-002
  0.14369999999999999         0.79635277624167233     
  0.14400000000000002          1.5891593923953184     
  0.14429999999999998          2.3700604856815484     
  0.14460000000000001          3.0866219930683725     
  0.14490000000000003          3.6891493009805574     
  0.14520000000000000          4.1340165442854868     
  0.14550000000000002          4.3852472189707026     
  0.14579999999999999          4.4178333939720478     
  0.14610000000000001          4.2175843258434433     
  0.14640000000000003          3.7830225707059677     
  0.14670000000000000          3.1250042011452797     
  0.14699999999999996          2.2658513474464117     
  0.14729999999999999          1.2393412063577496     
  0.14760000000000001          8.8135419644518764E-002
  0.14789999999999998         -1.1372651855626876     
  0.14820000000000000         -2.3815058138031069     