  -1.4999999999999999E-002     0.0000000000000000     
  -1.4700000000000000E-002     0.0000000000000000     
  -1.4400000000000000E-002     0.0000000000000000     
  -1.4100000000000000E-002     0.0000000000000000     
  -1.3800000000000000E-002     0.0000000000000000     
  -1.3500000000000000E-002     0.0000000000000000     
  -1.3200000000000000E-002     0.0000000000000000     
  -1.2899999999999998E-002     0.0000000000000000     
  -1.2600000000000000E-002     0.0000000000000000     
  -1.2299999999999998E-002     0.0000000000000000     
  -1.2000000000000000E-002     0.0000000000000000     
  -1.1699999999999999E-002     0.0000000000000000     
  -1.1399999999999999E-002     0.0000000000000000     
  -1.1099999999999999E-002     0.0000000000000000     
  -1.0799999999999999E-002     0.0000000000000000     
  -1.0499999999999999E-002     0.0000000000000000     
  -1.0199999999999999E-002     0.0000000000000000     
  -9.8999999999999991E-003     0.0000000000000000     
  -9.5999999999999992E-003     0.0000000000000000     
  -9.2999999999999992E-003     0.0000000000000000     
  -8.9999999999999993E-003     0.0000000000000000     
  -8.6999999999999994E-003     0.0000000000000000     
  -8.3999999999999995E-003     0.0000000000000000     
  -8.0999999999999996E-003     0.0000000000000000     
  -7.7999999999999988E-003     0.0000000000000000     
  -7.4999999999999997E-003     0.0000000000000000     
  -7.1999999999999998E-003     0.0000000000000000     
  -6.8999999999999981E-003     0.0000000000000000     
  -6.5999999999999982E-003     0.0000000000000000     
  -6.3000000000000000E-003     0.0000000000000000     
  -6.0000000000000001E-003     0.0000000000000000     
  -5.6999999999999985E-003     0.0000000000000000     
  -5.3999999999999986E-003     0.0000000000000000     
  -5.1000000000000004E-003     0.0000000000000000     
  -4.7999999999999987E-003     0.0000000000000000     
  -4.5000000000000005E-003     0.0000000000000000     
  -4.1999999999999989E-003     0.0000000000000000     
  -3.8999999999999990E-003     0.0000000000000000     
  -3.5999999999999990E-003     0.0000000000000000     
  -3.2999999999999991E-003     0.0000000000000000     
  -2.9999999999999992E-003     0.0000000000000000     
  -2.6999999999999993E-003     0.0000000000000000     
  -2.3999999999999994E-003     0.0000000000000000     
  -2.0999999999999977E-003     0.0000000000000000     
  -1.7999999999999995E-003     0.0000000000000000     
  -1.4999999999999979E-003     0.0000000000000000     
  -1.1999999999999997E-003     0.0000000000000000     
  -8.9999999999999976E-004     0.0000000000000000     
  -5.9999999999999810E-004     0.0000000000000000     
  -2.9999999999999992E-004     0.0000000000000000     
   0.0000000000000000          0.0000000000000000     
   3.0000000000000165E-004     0.0000000000000000     
   5.9999999999999984E-004     0.0000000000000000     
   9.0000000000000149E-004     0.0000000000000000     
   1.2000000000000031E-003     0.0000000000000000     
   1.5000000000000013E-003     0.0000000000000000     
   1.8000000000000030E-003     0.0000000000000000     
   2.1000000000000012E-003     0.0000000000000000     
   2.3999999999999994E-003     0.0000000000000000     
   2.7000000000000010E-003     0.0000000000000000     
   2.9999999999999992E-003     0.0000000000000000     
   3.3000000000000008E-003     0.0000000000000000     
   3.6000000000000025E-003     0.0000000000000000     
   3.9000000000000007E-003     0.0000000000000000     
   4.2000000000000023E-003     0.0000000000000000     
   4.5000000000000005E-003     0.0000000000000000     
   4.7999999999999987E-003     0.0000000000000000     
   5.1000000000000004E-003     0.0000000000000000     
   5.4000000000000020E-003     0.0000000000000000     
   5.7000000000000037E-003     0.0000000000000000     
   5.9999999999999984E-003     0.0000000000000000     
   6.3000000000000000E-003     0.0000000000000000     
   6.6000000000000017E-003     0.0000000000000000     
   6.9000000000000034E-003     0.0000000000000000     
   7.2000000000000015E-003     0.0000000000000000     
   7.5000000000000032E-003     0.0000000000000000     
   7.8000000000000014E-003     0.0000000000000000     
   8.0999999999999996E-003     0.0000000000000000     
   8.4000000000000012E-003     0.0000000000000000     
   8.7000000000000029E-003     0.0000000000000000     
   9.0000000000000011E-003     0.0000000000000000     
   9.2999999999999992E-003     0.0000000000000000     
   9.6000000000000009E-003     0.0000000000000000     
   9.8999999999999991E-003     0.0000000000000000     
   1.0200000000000001E-002     0.0000000000000000     
   1.0500000000000002E-002     0.0000000000000000     
   1.0800000000000004E-002     0.0000000000000000     
   1.1099999999999999E-002     0.0000000000000000     
   1.1400000000000000E-002     0.0000000000000000     
   1.1700000000000002E-002     0.0000000000000000     
   1.2000000000000004E-002     0.0000000000000000     
   1.2300000000000002E-002     0.0000000000000000     
   1.2600000000000000E-002     0.0000000000000000     
   1.2900000000000002E-002     0.0000000000000000     
   1.3200000000000000E-002     0.0000000000000000     
   1.3500000000000002E-002     0.0000000000000000     
   1.3800000000000003E-002     0.0000000000000000     
   1.4100000000000001E-002     0.0000000000000000     
   1.4400000000000000E-002     0.0000000000000000     
   1.4700000000000001E-002     0.0000000000000000     
   1.4999999999999999E-002     0.0000000000000000     
   1.5300000000000001E-002     0.0000000000000000     
   1.5600000000000003E-002     0.0000000000000000     
   1.5899999999999997E-002     0.0000000000000000     
   1.6199999999999999E-002     0.0000000000000000     
   1.6500000000000001E-002     0.0000000000000000     
   1.6800000000000002E-002     0.0000000000000000     
   1.7100000000000004E-002     0.0000000000000000     
   1.7400000000000006E-002     0.0000000000000000     
   1.7700000000000000E-002     0.0000000000000000     
   1.8000000000000002E-002     0.0000000000000000     
   1.8300000000000004E-002     0.0000000000000000     
   1.8600000000000005E-002     0.0000000000000000     
   1.8900000000000000E-002     0.0000000000000000     
   1.9200000000000002E-002     0.0000000000000000     
   1.9500000000000003E-002    -2.5434391557348087E-037
   1.9799999999999998E-002    -5.8621382521911364E-037
   2.0100000000000000E-002     3.2172962612876936E-036
   2.0400000000000001E-002     3.6542110500579454E-036
   2.0700000000000003E-002    -2.1010402400192899E-035
   2.0999999999999998E-002     1.6927750025454331E-035
   2.1299999999999999E-002    -2.9998108666294931E-035
   2.1600000000000001E-002    -6.2371502106852259E-035
   2.1900000000000003E-002     5.2465862200377016E-034
   2.2200000000000004E-002    -5.6005499916594520E-034
   2.2500000000000006E-002    -4.0917084057337840E-035
   2.2800000000000001E-002     1.8433546268734330E-033
   2.3100000000000002E-002    -1.9804477971379885E-033
   2.3400000000000004E-002    -3.1915336735508769E-033
   2.3699999999999999E-002     1.3241666127977389E-032
   2.4000000000000000E-002    -2.6884563611188376E-032
   2.4300000000000002E-002     5.5378321317956873E-032
   2.4599999999999997E-002    -1.6060995324770902E-031
   2.4900000000000005E-002     4.9140123984904783E-031
   2.5200000000000000E-002    -1.2848518904798347E-030
   2.5499999999999995E-002     2.7981597179369007E-030
   2.5800000000000003E-002    -4.9590163571653913E-030
   2.6099999999999998E-002     5.7286983716914392E-030
   2.6400000000000007E-002     4.9068493553372369E-030
   2.6700000000000002E-002    -6.1846166465247889E-029
   2.6999999999999996E-002     2.6207060542720355E-028
   2.7300000000000005E-002    -8.2481576765003787E-028
   2.7600000000000000E-002     2.1331492815074757E-027
   2.7900000000000008E-002    -4.5670256171759617E-027
   2.8200000000000003E-002     7.5817016258442130E-027
   2.8499999999999998E-002    -6.9018830142525294E-027
   2.8800000000000006E-002    -1.1597617646693643E-026
   2.9100000000000001E-002     8.0736144367397219E-026
   2.9400000000000003E-002    -2.5384899600670065E-025
   2.9700000000000004E-002     5.6655703385283642E-025
   3.0000000000000006E-002    -8.8822552549958616E-025
   3.0300000000000001E-002     5.8024800438688408E-025
   3.0600000000000002E-002     1.9697316489919371E-024
   3.0900000000000004E-002    -9.2537981011839867E-024
   3.1199999999999999E-002     2.1894551708303604E-023
   3.1500000000000007E-002    -2.9240087893538763E-023
   3.1800000000000002E-002    -1.0403549692066650E-023
   3.2099999999999997E-002     1.9235357054380970E-022
   3.2400000000000005E-002    -6.3934723338014293E-022
   3.2700000000000000E-002     1.2576324788012929E-021
   3.3000000000000002E-002    -8.9815732215967665E-022
   3.3300000000000003E-002    -4.5114086506453633E-021
   3.3599999999999998E-002     2.4076755685270767E-020
   3.3900000000000000E-002    -6.8264616340643463E-020
   3.4200000000000001E-002     1.2085596160015116E-019
   3.4500000000000003E-002    -5.1491203757551303E-020
   3.4799999999999998E-002    -5.5416236445331718E-019
   3.5099999999999999E-002     2.5185326777543953E-018
   3.5400000000000001E-002    -6.4829167839173985E-018
   3.5699999999999996E-002     9.7517141858774227E-018
   3.6000000000000004E-002     2.3073023462212651E-018
   3.6299999999999999E-002    -6.8827402422180006E-017
   3.6600000000000008E-002     2.4424232251793374E-016
   3.6900000000000002E-002    -4.8062364160915648E-016
   3.7199999999999997E-002     2.6158419791017571E-016
   3.7500000000000006E-002     1.9184298755568489E-015
   3.7800000000000000E-002    -7.9878389443591383E-015
   3.8100000000000009E-002     1.5260647537969617E-014
   3.8400000000000004E-002    -4.3024195429446161E-015
   3.8699999999999998E-002    -6.7713274421844669E-014
   3.9000000000000007E-002     2.1845059532381788E-013
   3.9300000000000002E-002    -2.7561713190560486E-013
   3.9600000000000003E-002    -2.9513266458437877E-013
   3.9900000000000005E-002     2.0067448589430926E-012
   4.0200000000000000E-002    -3.6720312972098245E-012
   4.0500000000000001E-002     4.1281699242586128E-013
   4.0800000000000003E-002     1.3541322797966096E-011
   4.1100000000000005E-002    -3.1766389832529705E-011
   4.1399999999999999E-002     2.1446191681104190E-011
   4.1700000000000008E-002     6.1232901438144341E-011
   4.2000000000000003E-002    -2.1350441825463563E-010
   4.2299999999999997E-002     3.2079131585721911E-010
   4.2600000000000006E-002    -3.7358827129183474E-012
   4.2900000000000001E-002    -1.6877772986662061E-009
   4.3200000000000002E-002     4.8736376682686054E-009
   4.3500000000000004E-002    -1.4245853374274148E-009
   4.3799999999999999E-002    -2.9868284804743674E-008
   4.4100000000000000E-002     4.6075770402171794E-008
   4.4400000000000002E-002     9.7742876507129112E-008
   4.4700000000000004E-002    -3.3294278894702192E-007
   4.4999999999999998E-002     2.5478291149294325E-007
   4.5300000000000000E-002     6.6491732598853530E-006
   4.5600000000000002E-002     2.1574794182625415E-005
   4.5899999999999996E-002     3.9934637346557218E-005
   4.6200000000000005E-002     5.4302304983161646E-005
   4.6500000000000000E-002     6.6756682047322262E-005
   4.6799999999999994E-002     9.1345551591985697E-005
   4.7100000000000003E-002     1.4341831753126517E-004
   4.7399999999999998E-002     2.2933623295765147E-004
   4.7700000000000006E-002     3.5203648668961115E-004
   4.8000000000000001E-002     5.2475362028652633E-004
   4.8300000000000010E-002     7.7061403820745671E-004
   4.8600000000000004E-002     1.1133780048389285E-003
   4.8899999999999999E-002     1.5797487576708861E-003
   4.9200000000000008E-002     2.2064571181421456E-003
   4.9500000000000002E-002     3.0383468648511290E-003
   4.9800000000000011E-002     4.1200016453190351E-003
   5.0100000000000006E-002     5.4883577463623115E-003
   5.0400000000000000E-002     7.1768870439294571E-003
   5.0700000000000009E-002     9.2216668801240829E-003
   5.1000000000000004E-002     1.1644722827479309E-002
   5.1299999999999998E-002     1.4427958654207436E-002
   5.1600000000000007E-002     1.7507623684164249E-002
   5.1900000000000002E-002     2.0776561492895935E-002
   5.2200000000000010E-002     2.4078215376590606E-002
   5.2500000000000005E-002     2.7192368340880377E-002
   5.2800000000000000E-002     2.9828052686811574E-002
   5.3099999999999994E-002     3.1637769199132422E-002
   5.3400000000000003E-002     3.2236704296291240E-002
   5.3699999999999998E-002     3.1216266696184394E-002
   5.4000000000000006E-002     2.8184060202169896E-002
   5.4300000000000001E-002     2.2831121020986458E-002
   5.4599999999999996E-002     1.4960946759086904E-002
   5.4900000000000004E-002     4.5362802850009414E-003
   5.5199999999999999E-002    -8.2719757570630988E-003
   5.5499999999999994E-002    -2.3071945276736422E-002
   5.5800000000000002E-002    -3.9246565010181103E-002
   5.6099999999999997E-002    -5.5968937926824926E-002
   5.6400000000000006E-002    -7.2281206046390753E-002
   5.6700000000000000E-002    -8.7224037220236042E-002
   5.6999999999999995E-002    -9.9954529674943129E-002
   5.7300000000000004E-002   -0.10987218159506099     
   5.7599999999999998E-002   -0.11675610035808603     
   5.7900000000000007E-002   -0.12086702554222933     
   5.8200000000000002E-002   -0.12303076938225588     
   5.8499999999999996E-002   -0.12460433416121330     
   5.8800000000000005E-002   -0.12740305596773710     
   5.9100000000000000E-002   -0.13348446216144694     
   5.9400000000000008E-002   -0.14483870650689565     
   5.9700000000000003E-002   -0.16305278777678839     
   6.0000000000000012E-002   -0.18897647289751426     
   6.0300000000000006E-002   -0.22238596852684278     
   6.0600000000000001E-002   -0.26175675962746070     
   6.0900000000000010E-002   -0.30410341908310728     
   6.1200000000000004E-002   -0.34500588624331618     
   6.1500000000000013E-002   -0.37886003679760138     
   6.1800000000000008E-002   -0.39932874511073635     
   6.2100000000000002E-002   -0.39990697833837979     
   6.2399999999999997E-002   -0.37463453394843627     
   6.2700000000000006E-002   -0.31883054328962607     
   6.3000000000000000E-002   -0.22975906946097258     
   6.3300000000000009E-002   -0.10731523798352094     
   6.3600000000000004E-002     4.5785829455303712E-002
   6.3899999999999998E-002    0.22377660615755832     
   6.4199999999999993E-002    0.41803861412504217     
   6.4500000000000002E-002    0.61767704641411481     
   6.4800000000000010E-002    0.81012111292705780     
   6.5100000000000005E-002    0.98222225374472405     
   6.5400000000000000E-002     1.1211156804692004     
   6.5700000000000008E-002     1.2154219090646776     
   6.5999999999999989E-002     1.2560569761139271     
   6.6299999999999998E-002     1.2371036333167078     
   6.6600000000000006E-002     1.1563773349776973     
   6.6900000000000001E-002     1.0155488949879012     
   6.7199999999999996E-002    0.82028888285585344     
   6.7500000000000004E-002    0.57978629970471096     
   6.7800000000000013E-002    0.30613182627813473     
   6.8099999999999994E-002     1.3783779523751122E-002
   6.8400000000000002E-002   -0.28160433583422578     
   6.8700000000000011E-002   -0.56392568856511838     
   6.8999999999999992E-002   -0.81785096963661874     
   6.9300000000000000E-002    -1.0295565198617160     
   6.9600000000000009E-002    -1.1876157208488995     
   6.9900000000000004E-002    -1.2836790938645397     
   7.0199999999999999E-002    -1.3130259213016475     
   7.0500000000000007E-002    -1.2747939872425869     
   7.0800000000000016E-002    -1.1722607890273979     
   7.1099999999999997E-002    -1.0122835133451444     
   7.1400000000000005E-002   -0.80549679188640844     
   7.1700000000000000E-002   -0.56524419125429926     
   7.1999999999999995E-002   -0.30706383901717815     
   7.2300000000000003E-002    -4.7579701986697157E-002
   7.2600000000000012E-002    0.19656800831607160     
   7.2900000000000006E-002    0.40990859549671765     
   7.3200000000000001E-002    0.57916751963677016     
   7.3499999999999996E-002    0.69430606113272708     
   7.3800000000000004E-002    0.74934069046667029     
   7.4099999999999999E-002    0.74274037929066450     
   7.4400000000000008E-002    0.67759801182508861     
   7.4700000000000003E-002    0.56161470383789447     
   7.5000000000000011E-002    0.40610639452075137     
   7.5299999999999992E-002    0.22559200117878991     
   7.5600000000000001E-002     3.6095244805814039E-002
   7.5900000000000009E-002   -0.14577382107428205     
   7.6200000000000004E-002   -0.30439784350997989     
   7.6499999999999999E-002   -0.42624132179884289     
   7.6800000000000007E-002   -0.50125206567599434     
   7.7099999999999988E-002   -0.52318008348383527     
   7.7399999999999997E-002   -0.49031299508584181     
   7.7700000000000005E-002   -0.40544515650180246     
   7.8000000000000014E-002   -0.27527992290294057     
   7.8299999999999995E-002   -0.10985410293402731     
   7.8600000000000003E-002     7.8228219040931912E-002
   7.8900000000000012E-002    0.27544594232903125     
   7.9199999999999993E-002    0.46801774280228037     
   7.9500000000000001E-002    0.64317106514624511     
   7.9800000000000010E-002    0.79037288067690437     
   8.0100000000000018E-002    0.90159650145304893     
   8.0399999999999999E-002    0.97184017267356348     
   8.0700000000000008E-002    0.99964717498186229     
   8.1000000000000003E-002    0.98625400237321470     
   8.1299999999999997E-002    0.93588185023589299     
   8.1600000000000006E-002    0.85459896719322082     
   8.1900000000000014E-002    0.75005751487358474     
   8.2199999999999995E-002    0.63019582361670923     
   8.2500000000000004E-002    0.50329109603723055     
   8.2799999999999999E-002    0.37663958552497556     
   8.3100000000000007E-002    0.25632351279600951     
   8.3400000000000002E-002    0.14713152595316545     
   8.3700000000000011E-002     5.1777309805253427E-002
   8.4000000000000005E-002    -2.8695321619928021E-002
   8.4300000000000000E-002    -9.4768556315206726E-002
   8.4599999999999995E-002   -0.14871097095110591     
   8.4900000000000003E-002   -0.19365382453856400     
   8.5199999999999998E-002   -0.23381616329854310     
   8.5500000000000007E-002   -0.27358005079134889     
   8.5800000000000001E-002   -0.31731726183701436     
   8.6100000000000010E-002   -0.36887018567610336     
   8.6399999999999991E-002   -0.43106107132303084     
   8.6699999999999999E-002   -0.50551118556554708     
   8.7000000000000008E-002   -0.59221525765095129     
   8.7300000000000003E-002   -0.68931161926285744     
   8.7599999999999997E-002   -0.79330074029768916     
   8.7900000000000006E-002   -0.89883769681995851     
   8.8200000000000014E-002   -0.99949719391062741     
   8.8499999999999995E-002    -1.0877092592406343     
   8.8800000000000004E-002    -1.1558872975465850     
   8.9100000000000013E-002    -1.1967418261645206     
   8.9399999999999993E-002    -1.2041285644649515     
   8.9700000000000002E-002    -1.1736765771996371     
   9.0000000000000011E-002    -1.1033485821870419     
   9.0299999999999991E-002   -0.99372996075081987     
   9.0600000000000000E-002   -0.84808437501044021     
   9.0900000000000009E-002   -0.67221002041310673     
   9.1200000000000017E-002   -0.47409979731651730     
   9.1499999999999998E-002   -0.26315032057869792     
   9.1800000000000007E-002    -4.9495630003139529E-002
   9.2100000000000001E-002    0.15691771060539725     
   9.2399999999999996E-002    0.34715348555462888     
   9.2700000000000005E-002    0.51401421721983276     
   9.3000000000000013E-002    0.65250119893129210     
   9.3300000000000008E-002    0.76034972068383144     
   9.3600000000000003E-002    0.83763129431294259     
   9.3899999999999997E-002    0.88699357540206447     
   9.4200000000000006E-002    0.91273608881294654     
   9.4500000000000001E-002    0.92043338434760669     
   9.4800000000000009E-002    0.91610822531715608     
   9.5100000000000004E-002    0.90547159587947801     
   9.5399999999999999E-002    0.89311886625439985     
   9.5699999999999993E-002    0.88204544770414139     
   9.6000000000000002E-002    0.87330207951074768     
   9.6300000000000011E-002    0.86584501282574267     
   9.6600000000000005E-002    0.85662318067702603     
   9.6900000000000000E-002    0.84109851571424565     
   9.7200000000000009E-002    0.81350324693568843     
   9.7499999999999989E-002    0.76784280847311637     
   9.7799999999999998E-002    0.69867879256104537     
   9.8100000000000007E-002    0.60142958612571684     
   9.8400000000000015E-002    0.47375417455659052     
   9.8699999999999996E-002    0.31521610608747758     
   9.9000000000000005E-002    0.12809018339752787     
   9.9300000000000013E-002    -8.2813802502480854E-002
   9.9599999999999994E-002   -0.31060232880433142     
   9.9900000000000003E-002   -0.54632747930713133     
  0.10020000000000001        -0.78011990251287278     
  0.10049999999999999         -1.0013952892156768     
  0.10080000000000000         -1.2002549474647060     
  0.10110000000000001         -1.3675730201319543     
  0.10140000000000000         -1.4960024873760338     
  0.10170000000000000         -1.5802179695022660     
  0.10200000000000001         -1.6172790465645901     
  0.10230000000000002         -1.6067237120810549     
  0.10260000000000000         -1.5503807887670982     
  0.10290000000000001         -1.4521051141304440     
  0.10320000000000000         -1.3176660099424222     
  0.10350000000000001         -1.1541943852878995     
  0.10380000000000000        -0.96968498830513017     
  0.10410000000000001        -0.77257921218678549     
  0.10440000000000001        -0.57134810527312463     
  0.10470000000000000        -0.37427689920002460     
  0.10500000000000000        -0.18885394541673300     
  0.10530000000000000         -2.1421331183830751E-002
  0.10560000000000000         0.12285927038808661     
  0.10590000000000001         0.24060851405317429     
  0.10620000000000000         0.32995777658839398     
  0.10650000000000001         0.39070479073203124     
  0.10679999999999999         0.42441434705149583     
  0.10710000000000000         0.43432736075897310     
  0.10740000000000001         0.42465189107461032     
  0.10770000000000000         0.40064461501757537     
  0.10800000000000000         0.36791542405635058     
  0.10830000000000001         0.33186411803844257     
  0.10859999999999999         0.29776087885348174     
  0.10890000000000000         0.26972764531658788     
  0.10920000000000001         0.25088360819135280     
  0.10950000000000001         0.24332280844116627     
  0.10979999999999999         0.24794280933377702     
  0.11009999999999999         0.26463159489808719     
  0.11040000000000001         0.29304939746337588     
  0.11070000000000001         0.33228924270038140     
  0.11100000000000000         0.38185726073795911     
  0.11130000000000000         0.44161252394056733     
  0.11160000000000002         0.51186526845852798     
  0.11190000000000001         0.59354696294315124     
  0.11220000000000001         0.68781119485446796     
  0.11250000000000000         0.79567697276465932     
  0.11280000000000000         0.91774131725555574     
  0.11309999999999999          1.0534873162175606     
  0.11340000000000001          1.2005276705791501     
  0.11369999999999998          1.3548023197142636     
  0.11400000000000000          1.5097292406838481     
  0.11430000000000000          1.6566031361927118     
  0.11460000000000002          1.7848312567521607     
  0.11489999999999999          1.8822423599174232     
  0.11520000000000001          1.9361143754395611     
  0.11550000000000001          1.9341998815499655     
  0.11580000000000000          1.8655289519205951     
  0.11609999999999999          1.7215728418828407     
  0.11640000000000002          1.4975863164794279     
  0.11670000000000001          1.1930041159606475     
  0.11700000000000001         0.81239420383293204     
  0.11730000000000000         0.36564207429654971     
  0.11760000000000000        -0.13235915853140889     
  0.11789999999999999        -0.66179086168421941     
  0.11820000000000001         -1.1989130652088522     
  0.11850000000000001         -1.7177154074633201     
  0.11880000000000000         -2.1905581568329522     
  0.11910000000000000         -2.5907033758550906     
  0.11940000000000002         -2.8940958318832526     
  0.11970000000000001         -3.0802841118264253     
  0.12000000000000001         -3.1353826008338390     
  0.12030000000000000         -3.0521509658554695     
  0.12060000000000000         -2.8317413339049189     
  0.12089999999999999         -2.4834078906160442     
  0.12119999999999999         -2.0246399241459550     
  0.12150000000000001         -1.4802701365377620     
  0.12180000000000001        -0.88033529802132859     
  0.12210000000000000        -0.25913174886987284     
  0.12239999999999999         0.34765174312204394     
  0.12270000000000002         0.90574357686180462     
  0.12300000000000001          1.3834216514281468     
  0.12330000000000001          1.7551225283671330     
  0.12360000000000000          2.0020115259447930     
  0.12390000000000000          2.1135756324377155     
  0.12419999999999999          2.0881646612937033     
  0.12450000000000001          1.9325418772042346     
  0.12480000000000001          1.6617020635772093     
  0.12509999999999999          1.2968458812331307     
  0.12540000000000001         0.86426316785593293     
  0.12570000000000003         0.39380877278568205     
  0.12600000000000000         -8.4135544101922033E-002
  0.12630000000000002        -0.53881997179040608     
  0.12659999999999999        -0.94264129713559042     
  0.12690000000000001         -1.2709801059418342     
  0.12719999999999998         -1.5043793518510653     
  0.12750000000000000         -1.6289943075471889     
  0.12780000000000002         -1.6370256951880511     
  0.12809999999999999         -1.5273420305091692     
  0.12840000000000001         -1.3054367265652600     
  0.12869999999999998        -0.98303734049251967     
  0.12900000000000000        -0.57767727153070103     
  0.12930000000000003        -0.11193585606818665     
  0.12959999999999999         0.38758255294455740     
  0.12990000000000002         0.89184710038295834     
  0.13019999999999998          1.3705921519286686     
  0.13050000000000000          1.7942789819157516     
  0.13080000000000003          2.1362053506775753     
  0.13109999999999999          2.3738006575069797     
  0.13140000000000002          2.4903391052230073     
  0.13169999999999998          2.4768213485528761     
  0.13200000000000001          2.3316035082675923     
  0.13229999999999997          2.0621588976848173     
  0.13260000000000000          1.6833538987610419     
  0.13290000000000002          1.2181348233480924     
  0.13319999999999999         0.69472051079882036     
  0.13350000000000001         0.14557577996456905     
  0.13380000000000003        -0.39466154461993286     
  0.13410000000000000        -0.89230462552303602     
  0.13440000000000002         -1.3155280176957918     
  0.13469999999999999         -1.6384111355772966     
  0.13500000000000001         -1.8410160387112859     
  0.13529999999999998         -1.9120862636212665     
  0.13560000000000000         -1.8494503879897271     
  0.13590000000000002         -1.6603567258813521     
  0.13619999999999999         -1.3614060324997219     
  0.13650000000000001        -0.97709689090252594     
  0.13680000000000003        -0.53898064280689750     
  0.13710000000000000         -8.2674696829179523E-002
  0.13740000000000002         0.35401924861314621     
  0.13769999999999999         0.73421018423097117     
  0.13800000000000001          1.0243201671565709     
  0.13829999999999998          1.1975118988866458     
  0.13860000000000000          1.2347529624128997     
  0.13890000000000002          1.1274122121759556     
  0.13919999999999999         0.87765166345172307     
  0.13950000000000001         0.49797834261132767     
  0.13979999999999998          1.1526614515408429E-002
  0.14010000000000000        -0.55143673716351094     
  0.14040000000000002         -1.1540620121219920     
  0.14069999999999999         -1.7577767246719485     
  0.14100000000000001         -2.3236332794760886     
  0.14130000000000004         -2.8164150337242444     
  0.14160000000000000         -3.2069298658657885     
  0.14189999999999997         -3.4736186337235440     
  0.14219999999999999         -3.6045728065308258     
  0.14250000000000002         -3.5971403441233307     
  0.14279999999999998         -3.4580928740556516     
  0.14310000000000000         -3.2018109187940702     
  0.14339999999999997         -2.8492013367270883     
  0.14369999999999999         -2.4246668692308244     
  0.14400000000000002         -1.9551536951817199     
  0.14429999999999998         -1.4672365401359568     
  0.14460000000000001        -0.98494698822251214     
  0.14490000000000003        -0.52984274290905464     
  0.14520000000000000        -0.11798558842391901     
  0.14550000000000002         0.23824630669080199     
  0.14579999999999999         0.53172954672241757     
  0.14610000000000001         0.75953918139642695     
  0.14640000000000003         0.92244562727958912     
  0.14670000000000000          1.0246937889580239     
  0.14699999999999996          1.0724352387461917     
  0.14729999999999999          1.0743986035003885     
  0.14760000000000001          1.0404228179390282     
  0.14789999999999998         0.98100687822352817     
  0.14820000000000000         0.90895251962119705     