  -1.4999999999999999E-002     0.0000000000000000     
  -1.4700000000000000E-002     0.0000000000000000     
  -1.4400000000000000E-002     0.0000000000000000     
  -1.4100000000000000E-002     0.0000000000000000     
  -1.3800000000000000E-002     0.0000000000000000     
  -1.3500000000000000E-002     0.0000000000000000     
  -1.3200000000000000E-002     0.0000000000000000     
  -1.2899999999999998E-002     0.0000000000000000     
  -1.2600000000000000E-002     0.0000000000000000     
  -1.2299999999999998E-002     0.0000000000000000     
  -1.2000000000000000E-002     0.0000000000000000     
  -1.1699999999999999E-002     0.0000000000000000     
  -1.1399999999999999E-002     0.0000000000000000     
  -1.1099999999999999E-002     0.0000000000000000     
  -1.0799999999999999E-002    -2.8139577767676696E-039
  -1.0499999999999999E-002    -1.7154647903450113E-036
  -1.0199999999999999E-002     1.3775730909546699E-035
  -9.8999999999999991E-003    -2.9577477846457326E-035
  -9.5999999999999992E-003    -2.1245965575554153E-034
  -9.2999999999999992E-003     8.2212035465737421E-034
  -8.9999999999999993E-003     2.3133370251087519E-033
  -8.6999999999999994E-003    -1.5245260076493357E-032
  -8.3999999999999995E-003    -1.8148552167133702E-032
  -8.0999999999999996E-003     1.4909937264417946E-031
  -7.7999999999999988E-003     1.5645686752557603E-031
  -7.4999999999999997E-003    -1.1957978078152890E-030
  -7.1999999999999998E-003    -1.0686645518961615E-030
  -6.8999999999999981E-003     6.8466321454584607E-030
  -6.5999999999999982E-003     7.9273944499669911E-030
  -6.3000000000000000E-003    -2.7837170668975068E-029
  -6.0000000000000001E-003    -5.4070142687740998E-029
  -5.6999999999999985E-003     5.4263678814432255E-029
  -5.3999999999999986E-003     3.0462443551120772E-028
  -5.1000000000000004E-003     2.8735353660242437E-028
  -4.7999999999999987E-003    -1.4965015329989061E-027
  -4.5000000000000005E-003    -3.1725293021251793E-027
  -4.1999999999999989E-003     5.2322895858025285E-027
  -3.8999999999999990E-003     1.7179996648056093E-026
  -3.5999999999999990E-003    -1.1697191606651414E-026
  -3.2999999999999991E-003    -5.4287872184771537E-026
  -2.9999999999999992E-003    -1.3948693237413726E-026
  -2.6999999999999993E-003     6.7738222993089616E-026
  -2.3999999999999994E-003     2.9818379429670107E-025
  -2.0999999999999977E-003     2.6820157721414921E-025
  -1.7999999999999995E-003    -1.5677065316695385E-024
  -1.4999999999999979E-003    -1.9376957189883724E-024
  -1.1999999999999997E-003     5.1076001966043313E-024
  -8.9999999999999976E-004     4.5171877475397853E-024
  -5.9999999999999810E-004    -6.7083298345722682E-024
  -2.9999999999999992E-004     2.5531780980478374E-024
   0.0000000000000000         -2.9253843958668190E-023
   3.0000000000000165E-004    -4.9113428083570628E-023
   5.9999999999999984E-004     2.1796222068896765E-022
   9.0000000000000149E-004     1.1559566913261290E-022
   1.2000000000000031E-003    -6.7367756176852624E-022
   1.5000000000000013E-003     1.9736301789169332E-022
   1.8000000000000030E-003     7.0294435329830837E-022
   2.1000000000000012E-003    -2.0566336869473063E-021
   2.3999999999999994E-003     3.3312120332762032E-021
   2.7000000000000010E-003     6.0427687241025712E-021
   2.9999999999999992E-003    -1.9972951264908538E-020
   3.3000000000000008E-003    -1.9799289774117783E-021
   3.6000000000000025E-003     4.9539550842446303E-020
   3.9000000000000007E-003    -5.1424642295655952E-020
   4.2000000000000023E-003    -2.3296431803578260E-020
   4.5000000000000005E-003     2.0329177002124802E-019
   4.7999999999999987E-003    -2.7876449356939850E-019
   5.1000000000000004E-003    -3.1843824973673788E-019
   5.4000000000000020E-003     1.1010148096981840E-018
   5.7000000000000037E-003    -3.4955376799707568E-019
   5.9999999999999984E-003    -1.8363960711202404E-018
   6.3000000000000000E-003     3.1905016399102132E-018
   6.6000000000000017E-003    -7.2616038064275357E-019
   6.9000000000000034E-003    -7.6758448470208053E-018
   7.2000000000000015E-003     1.1871473059143441E-017
   7.5000000000000032E-003     5.1547578826647044E-018
   7.8000000000000014E-003    -2.8936941867883868E-017
   8.0999999999999996E-003     2.2749146753349494E-017
   8.4000000000000012E-003     2.1711431818666802E-017
   8.7000000000000029E-003    -8.1535868489438769E-017
   9.0000000000000011E-003     7.1704632443514912E-017
   9.2999999999999992E-003     1.0077905446191167E-016
   9.6000000000000009E-003    -2.7405212393104959E-016
   9.8999999999999991E-003     1.4041893020261815E-016
   1.0200000000000001E-002     3.3361450965268613E-016
   1.0500000000000002E-002    -8.8080287431035286E-016
   1.0800000000000004E-002     6.2374259699798793E-016
   1.1099999999999999E-002     1.4660161481643128E-015
   1.1400000000000000E-002    -3.6598139321950819E-015
   1.1700000000000002E-002     1.4129489877360366E-015
   1.2000000000000004E-002     6.6237342076549462E-015
   1.2300000000000002E-002    -1.2879807656097285E-014
   1.2600000000000000E-002     2.0356103956835723E-015
   1.2900000000000002E-002     2.8596003325995248E-014
   1.3200000000000000E-002    -4.0635895239126906E-014
   1.3500000000000002E-002    -1.4076783662807730E-014
   1.3800000000000003E-002     1.0149408125405607E-013
   1.4100000000000001E-002    -9.1013079364314864E-014
   1.4400000000000000E-002    -9.6270946651719390E-014
   1.4700000000000001E-002     2.9052636211617880E-013
   1.4999999999999999E-002    -1.3502629165990317E-013
   1.5300000000000001E-002    -4.0183132656124209E-013
   1.5600000000000003E-002     6.6505586386665467E-013
   1.5899999999999997E-002     2.8908583954453597E-014
   1.6199999999999999E-002    -1.2490499814642652E-012
   1.6500000000000001E-002     1.4079705596777454E-012
   1.6800000000000002E-002     6.9315906352155565E-013
   1.7100000000000004E-002    -4.2788113568561972E-012
   1.7400000000000006E-002     6.2849062313840773E-012
   1.7700000000000000E-002     9.0699166156659585E-013
   1.8000000000000002E-002    -3.0345903974378473E-011
   1.8300000000000004E-002     6.4160288500602856E-011
   1.8600000000000005E-002     2.6474850853080434E-011
   1.8900000000000000E-002    -3.7053991972632693E-010
   1.9200000000000002E-002     4.6046393298151768E-010
   1.9500000000000003E-002     1.0887138610514306E-009
   1.9799999999999998E-002    -3.4714487897374821E-009
   2.0100000000000000E-002    -9.2563246723631955E-010
   2.0400000000000001E-002     1.5725279777194263E-008
   2.0700000000000003E-002    -8.8809947376013826E-009
   2.0999999999999998E-002    -5.8577132357007544E-008
   2.1299999999999999E-002     6.1315755794602682E-008
   2.1600000000000001E-002     2.1100370397133263E-007
   2.1900000000000003E-002    -2.5429548500236537E-007
   2.2200000000000004E-002    -8.0542049024779382E-007
   2.2500000000000006E-002     1.4737137067993282E-006
   2.2800000000000001E-002     9.1284256576161808E-006
   2.3100000000000002E-002     2.0493774193547868E-005
   2.3400000000000004E-002     3.0865698435487027E-005
   2.3699999999999999E-002     3.8668293388462867E-005
   2.4000000000000000E-002     4.9962760817461868E-005
   2.4300000000000002E-002     7.4301002287910494E-005
   2.4599999999999997E-002     1.1551399152662638E-004
   2.4900000000000005E-002     1.7249423398864203E-004
   2.5200000000000000E-002     2.4911071975682790E-004
   2.5499999999999995E-002     3.5409255247813802E-004
   2.5800000000000003E-002     4.9845566775070106E-004
   2.6099999999999998E-002     7.0355776518788381E-004
   2.6400000000000007E-002     9.8699801355154552E-004
   2.6700000000000002E-002     1.3341299568960085E-003
   2.6999999999999996E-002     1.7275024109486344E-003
   2.7300000000000005E-002     2.1897322902162705E-003
   2.7600000000000000E-002     2.7331975258231976E-003
   2.7900000000000008E-002     3.3035844465047950E-003
   2.8200000000000003E-002     3.8208077369435885E-003
   2.8499999999999998E-002     4.1977685101285004E-003
   2.8800000000000006E-002     4.2800254358842677E-003
   2.9100000000000001E-002     3.8366201836652937E-003
   2.9400000000000003E-002     2.5989441577311798E-003
   2.9700000000000004E-002     2.3922710336515135E-004
   3.0000000000000006E-002    -3.6599847440903660E-003
   3.0300000000000001E-002    -9.5583233249595147E-003
   3.0600000000000002E-002    -1.7903910782031227E-002
   3.0900000000000004E-002    -2.9130366390519705E-002
   3.1199999999999999E-002    -4.3607490649091321E-002
   3.1500000000000007E-002    -6.1507216883401702E-002
   3.1800000000000002E-002    -8.2696018592314666E-002
   3.2099999999999997E-002   -0.10667044707383067     
   3.2400000000000005E-002   -0.13244566501998900     
   3.2700000000000000E-002   -0.15844638686551760     
   3.3000000000000002E-002   -0.18244925230284453     
   3.3300000000000003E-002   -0.20156731607834930     
   3.3599999999999998E-002   -0.21228616204728240     
   3.3900000000000000E-002   -0.21060428427900602     
   3.4200000000000001E-002   -0.19223334590365654     
   3.4500000000000003E-002   -0.15289702276525105     
   3.4799999999999998E-002    -8.8756941444826959E-002
   3.5099999999999999E-002     3.1668675132196442E-003
   3.5400000000000001E-002    0.12448854100724574     
   3.5699999999999996E-002    0.27497422590011683     
   3.6000000000000004E-002    0.45216750429777952     
   3.6299999999999999E-002    0.65111738911710060     
   3.6600000000000008E-002    0.86415763419317337     
   3.6900000000000002E-002     1.0810178137128139     
   3.7199999999999997E-002     1.2891508256722291     
   3.7500000000000006E-002     1.4742978438623691     
   3.7800000000000000E-002     1.6213137430569340     
   3.8100000000000009E-002     1.7151131700805686     
   3.8400000000000004E-002     1.7417651195346102     
   3.8699999999999998E-002     1.6896468898745012     
   3.9000000000000007E-002     1.5505563563592186     
   3.9300000000000002E-002     1.3207018736865883     
   3.9600000000000003E-002     1.0013307150198711     
   3.9900000000000005E-002    0.59924339569863516     
   4.0200000000000000E-002    0.12644887304033117     
   4.0500000000000001E-002   -0.39985815978122641     
   4.0800000000000003E-002   -0.95817725496272677     
   4.1100000000000005E-002    -1.5242194020716173     
   4.1399999999999999E-002    -2.0716754706769960     
   4.1700000000000008E-002    -2.5742156616057432     
   4.2000000000000003E-002    -3.0070170241769967     
   4.2299999999999997E-002    -3.3478019330124198     
   4.2600000000000006E-002    -3.5788810023438744     
   4.2900000000000001E-002    -3.6875748901765251     
   4.3200000000000002E-002    -3.6668104201397513     
   4.3500000000000004E-002    -3.5160606367142906     
   4.3799999999999999E-002    -3.2405328631312553     
   4.4100000000000000E-002    -2.8509100527969933     
   4.4400000000000002E-002    -2.3632026659088332     
   4.4700000000000004E-002    -1.7970645911151091     
   4.4999999999999998E-002    -1.1753008528393227     
   4.5300000000000000E-002   -0.52286284607686451     
   4.5600000000000002E-002    0.13485045243863422     
   4.5899999999999996E-002    0.77229860643263204     
   4.6200000000000005E-002     1.3650827061348985     
   4.6500000000000000E-002     1.8912394963186934     
   4.6799999999999994E-002     2.3314987455974721     
   4.7100000000000003E-002     2.6705689528439605     
   4.7399999999999998E-002     2.8978503573407401     
   4.7700000000000006E-002     3.0075847751215532     
   4.8000000000000001E-002     2.9998047862366093     
   4.8300000000000010E-002     2.8802176553248415     
   4.8600000000000004E-002     2.6602894038165732     
   4.8899999999999999E-002     2.3565154228271998     
   4.9200000000000008E-002     1.9898774157361601     
   4.9500000000000002E-002     1.5846830009889319     
   4.9800000000000011E-002     1.1670212239795097     
   5.0100000000000006E-002    0.76331011661491088     
   5.0400000000000000E-002    0.39844661825639838     
   5.0700000000000009E-002     9.4001216279529454E-002
   5.1000000000000004E-002   -0.13281474679921881     
   5.1299999999999998E-002   -0.27097267149467297     
   5.1600000000000007E-002   -0.31602163398777744     
   5.1900000000000002E-002   -0.27015688391815040     
   5.2200000000000010E-002   -0.14262134178246014     
   5.2500000000000005E-002     5.1264395024959719E-002
   5.2800000000000000E-002    0.29150921074291969     
   5.3099999999999994E-002    0.55441073074045000     
   5.3400000000000003E-002    0.81425922432862030     
   5.3699999999999998E-002     1.0453492671980700     
   5.4000000000000006E-002     1.2234844457648577     
   5.4300000000000001E-002     1.3273373551802135     
   5.4599999999999996E-002     1.3402303616952231     
   5.4900000000000004E-002     1.2505682326261061     
   5.5199999999999999E-002     1.0529627341300980     
   5.5499999999999994E-002    0.74855259651096728     
   5.5800000000000002E-002    0.34421996243264114     
   5.6099999999999997E-002   -0.14709726519917582     
   5.6400000000000006E-002   -0.70733032080025693     
   5.6700000000000000E-002    -1.3147694978472373     
   5.6999999999999995E-002    -1.9447634295481810     
   5.7300000000000004E-002    -2.5709500938590271     
   5.7599999999999998E-002    -3.1672819192245232     
   5.7900000000000007E-002    -3.7083379595098664     
   5.8200000000000002E-002    -4.1706177845162458     
   5.8499999999999996E-002    -4.5341695302233305     
   5.8800000000000005E-002    -4.7822573172109788     
   5.9100000000000000E-002    -4.9019435270697080     
   5.9400000000000008E-002    -4.8853325142073860     
   5.9700000000000003E-002    -4.7282035907524671     
   6.0000000000000012E-002    -4.4307409662645929     
   6.0300000000000006E-002    -3.9979287228796530     
   6.0600000000000001E-002    -3.4381447513449914     
   6.0900000000000010E-002    -2.7640389554381235     
   6.1200000000000004E-002    -1.9922716081298590     
   6.1500000000000013E-002    -1.1420876787983749     
   6.1800000000000008E-002   -0.23657929132805566     
   6.2100000000000002E-002    0.69859770305624291     
   6.2399999999999997E-002     1.6372964529118044     
   6.2700000000000006E-002     2.5511829054713848     
   6.3000000000000000E-002     3.4128687659083936     
   6.3300000000000009E-002     4.1976747099640246     
   6.3600000000000004E-002     4.8825151159620610     
   6.3899999999999998E-002     5.4494901983700306     
   6.4199999999999993E-002     5.8860615317306246     
   6.4500000000000002E-002     6.1851024533294723     
   6.4800000000000010E-002     6.3463768189029217     
   6.5100000000000005E-002     6.3753941188008714     
   6.5400000000000000E-002     6.2823154400028844     
   6.5700000000000008E-002     6.0820662562833308     
   6.5999999999999989E-002     5.7915502903505862     
   6.6299999999999998E-002     5.4277417782041830     
   6.6600000000000006E-002     5.0077588026368751     
   6.6900000000000001E-002     4.5457883297902999     
   6.7199999999999996E-002     4.0522981424251423     
   6.7500000000000004E-002     3.5344446495501938     
   6.7800000000000013E-002     2.9953513395953424     
   6.8099999999999994E-002     2.4344994231202803     
   6.8400000000000002E-002     1.8498251889009167     
   6.8700000000000011E-002     1.2381098169520257     
   6.8999999999999992E-002    0.59677852024963574     
   6.9300000000000000E-002    -7.4113218469905179E-002
   6.9600000000000009E-002   -0.77196320186397549     
   6.9900000000000004E-002    -1.4896861799485683     
   7.0199999999999999E-002    -2.2155123205320928     
   7.0500000000000007E-002    -2.9346040844078525     
   7.0800000000000016E-002    -3.6283616773332161     
   7.1099999999999997E-002    -4.2754618128103115     
   7.1400000000000005E-002    -4.8548637966512338     
   7.1700000000000000E-002    -5.3459262362655124     
   7.1999999999999995E-002    -5.7292144226087487     
   7.2300000000000003E-002    -5.9904694016432423     
   7.2600000000000012E-002    -6.1191108764747888     
   7.2900000000000006E-002    -6.1095581473941856     
   7.3200000000000001E-002    -5.9634881290939159     
   7.3499999999999996E-002    -5.6878880526985949     
   7.3800000000000004E-002    -5.2959355523853624     
   7.4099999999999999E-002    -4.8071697423203918     
   7.4400000000000008E-002    -4.2449664518041352     
   7.4700000000000003E-002    -3.6371115887970564     
   7.5000000000000011E-002    -3.0134732250745206     
   7.5299999999999992E-002    -2.4035359771227842     
   7.5600000000000001E-002    -1.8360273799359157     
   7.5900000000000009E-002    -1.3351144825157768     
   7.6200000000000004E-002   -0.91838741586348882     
   7.6499999999999999E-002   -0.59644347201988746     
   7.6800000000000007E-002   -0.36944260431589215     
   7.7099999999999988E-002   -0.22768429355174413     
   7.7399999999999997E-002   -0.15198420048645941     
   7.7700000000000005E-002   -0.11321049477156198     
   7.8000000000000014E-002    -7.6798207216101519E-002
   7.8299999999999995E-002    -3.4811044559029392E-003
   7.8600000000000003E-002    0.14625347275070305     
   7.8900000000000012E-002    0.40672607899737012     
   7.9199999999999993E-002    0.80574064439846615     
   7.9500000000000001E-002     1.3590455896125169     
   7.9800000000000010E-002     2.0665161839442225     
   8.0100000000000018E-002     2.9127118677621553     
   8.0399999999999999E-002     3.8635781974345109     
   8.0700000000000008E-002     4.8674222209341469     
   8.1000000000000003E-002     5.8588043708380493     
   8.1299999999999997E-002     6.7586292010664160     
   8.1600000000000006E-002     7.4817596770769939     
   8.1900000000000014E-002     7.9427182508194445     
   8.2199999999999995E-002     8.0602082484914437     
   8.2500000000000004E-002     7.7678798605788781     
   8.2799999999999999E-002     7.0206099562873057     
   8.3100000000000007E-002     5.8009257639123195     
   8.3400000000000002E-002     4.1268872851289773     
   8.3700000000000011E-002     2.0554704449723098     
   8.4000000000000005E-002   -0.31599411508902864     
   8.4300000000000000E-002    -2.8500165714783972     
   8.4599999999999995E-002    -5.3758853447092942     
   8.4900000000000003E-002    -7.6983802857660955     
   8.5199999999999998E-002    -9.6108578780931708     
   8.5500000000000007E-002    -10.912406641337245     
   8.5800000000000001E-002    -11.426044681030612     
   8.6100000000000010E-002    -11.018412815992347     
   8.6399999999999991E-002    -9.6176660060811958     
   8.6699999999999999E-002    -7.2274369269595340     
   8.7000000000000008E-002    -3.9371876658504812     
   8.7300000000000003E-002     7.7450205600116284E-002
   8.7599999999999997E-002     4.5593799835367106     
   8.7900000000000006E-002     9.1845576340700461     
   8.8200000000000014E-002     13.586679625865759     
   8.8499999999999995E-002     17.381680664083461     
   8.8800000000000004E-002     20.202977171881713     
   8.9100000000000013E-002     21.735603492724426     
   8.9399999999999993E-002     21.742760395723462     
   8.9700000000000002E-002     20.095455178500281     
   9.0000000000000011E-002     16.787695625666132     
   9.0299999999999991E-002     11.941105611297667     
   9.0600000000000000E-002     5.8040433290889517     
   9.0900000000000009E-002    -1.2684125019658188     
   9.1200000000000017E-002    -8.8392548630778496     
   9.1499999999999998E-002    -16.422354688274098     
   9.1800000000000007E-002    -23.520637876677480     
   9.2100000000000001E-002    -29.665651292956959     
   9.2399999999999996E-002    -34.452523838255857     
   9.2700000000000005E-002    -37.569850708597947     
   9.3000000000000013E-002    -38.819505524495106     
   9.3300000000000008E-002    -38.130189299985609     
   9.3600000000000003E-002    -35.554032196926599     
   9.3899999999999997E-002    -31.258806252366895     
   9.4200000000000006E-002    -25.510231667183298     
   9.4500000000000001E-002    -18.643816891108841     
   9.4800000000000009E-002    -11.039431013624142     
   9.5100000000000004E-002    -3.0967914480484175     
   9.5399999999999999E-002     4.8033645947284160     
   9.5699999999999993E-002     12.307968547272406     
   9.6000000000000002E-002     19.114524544145716     
   9.6300000000000011E-002     24.990697454061841     
   9.6600000000000005E-002     29.761791446678767     
   9.6900000000000000E-002     33.326043996907806     
   9.7200000000000009E-002     35.646920460529358     
   9.7499999999999989E-002     36.734739502236991     
   9.7799999999999998E-002     36.654383067322399     
   9.8100000000000007E-002     35.502930355962185     
   9.8400000000000015E-002     33.399692508596225     
   9.8699999999999996E-002     30.488404891074978     
   9.9000000000000005E-002     26.915659387424625     
   9.9300000000000013E-002     22.832206201275802     
   9.9599999999999994E-002     18.392698379843932     
   9.9900000000000003E-002     13.737271951408090     
  0.10020000000000001          9.0055452721147695     
  0.10049999999999999          4.3259076526744256     
  0.10080000000000000        -0.19000697346624351     
  0.10110000000000001         -4.4353983272844602     
  0.10140000000000000         -8.3235421778570373     
  0.10170000000000000         -11.782117801251985     
  0.10200000000000001         -14.751727878662360     
  0.10230000000000002         -17.195391395972312     
  0.10260000000000000         -19.090571793560652     
  0.10290000000000001         -20.434144027918503     
  0.10320000000000000         -21.242075214771116     
  0.10350000000000001         -21.543546403465903     
  0.10380000000000000         -21.386945239786932     
  0.10410000000000001         -20.829319615372153     
  0.10440000000000001         -19.934653090387485     
  0.10470000000000000         -18.775381776777024     
  0.10500000000000000         -17.416792664274077     
  0.10530000000000000         -15.922499068670792     
  0.10560000000000000         -14.349650491139883     
  0.10590000000000001         -12.736063932642402     
  0.10620000000000000         -11.113323814873709     
  0.10650000000000001         -9.4981787337393548     
  0.10679999999999999         -7.8895158175541287     
  0.10710000000000000         -6.2866015910921531     
  0.10740000000000001         -4.6756567709509769     
  0.10770000000000000         -3.0401988940765667     
  0.10800000000000000         -1.3758006949543864     
  0.10830000000000001         0.32724806032356568     
  0.10859999999999999          2.0636705202450925     
  0.10890000000000000          3.8133421754118051     
  0.10920000000000001          5.5543063438619118     
  0.10950000000000001          7.2462903771075968     
  0.10979999999999999          8.8403093431806603     
  0.11009999999999999          10.291245595640735     
  0.11040000000000001          11.541224091542876     
  0.11070000000000001          12.541354026548643     
  0.11100000000000000          13.252956454135138     
  0.11130000000000000          13.639322272130100     
  0.11160000000000002          13.685177397116355     
  0.11190000000000001          13.389830924552815     
  0.11220000000000001          12.763349917769386     
  0.11250000000000000          11.841212287530519     
  0.11280000000000000          10.666988848008573     
  0.11309999999999999          9.2955622614304474     
  0.11340000000000001          7.7969518842170977     
  0.11369999999999998          6.2373681673219270     
  0.11400000000000000          4.6857566463917317     
  0.11430000000000000          3.2086990558693991     
  0.11460000000000002          1.8576816731045716     
  0.11489999999999999         0.67686972905114828     
  0.11520000000000001        -0.30535285049559391     
  0.11550000000000001         -1.0803968811878586     
  0.11580000000000000         -1.6488869384780787     
  0.11609999999999999         -2.0305413890790982     
  0.11640000000000002         -2.2570823057289124     
  0.11670000000000001         -2.3648039046670037     
  0.11700000000000001         -2.3993704332684365     
  0.11730000000000000         -2.4051255553681106     
  0.11760000000000000         -2.4215702308497127     
  0.11789999999999999         -2.4856149406432704     
  0.11820000000000001         -2.6208165701264257     
  0.11850000000000001         -2.8408472649782643     
  0.11880000000000000         -3.1487200313457375     
  0.11910000000000000         -3.5316795742014024     
  0.11940000000000002         -3.9699326991298767     
  0.11970000000000001         -4.4337560957007502     
  0.12000000000000001         -4.8844058104135222     
  0.12030000000000000         -5.2855316388807143     
  0.12060000000000000         -5.5975340886935196     
  0.12089999999999999         -5.7828400879700483     
  0.12119999999999999         -5.8167474960350596     
  0.12150000000000001         -5.6767206491425961     
  0.12180000000000001         -5.3533986833048779     
  0.12210000000000000         -4.8529134417203261     
  0.12239999999999999         -4.1857774543463595     
  0.12270000000000002         -3.3791246148211167     
  0.12300000000000001         -2.4703998297103720     
  0.12330000000000001         -1.4992791392016362     
  0.12360000000000000        -0.51621819198359731     
  0.12390000000000000         0.42803956158053585     
  0.12419999999999999          1.2873619214457039     
  0.12450000000000001          2.0143232310123933     
  0.12480000000000001          2.5733129782873498     
  0.12509999999999999          2.9403158265624563     
  0.12540000000000001          3.1003883890582173     
  0.12570000000000003          3.0567127713380962     
  0.12600000000000000          2.8263331591171110     
  0.12630000000000002          2.4394291473909009     
  0.12659999999999999          1.9404614700228002     
  0.12690000000000001          1.3816258852053653     
  0.12719999999999998         0.82025578797688370     
  0.12750000000000000         0.31408196085920159     
  0.12780000000000002         -8.4156106764074645E-002
  0.12809999999999999        -0.33178176994470737     
  0.12840000000000001        -0.40088270812684684     
  0.12869999999999998        -0.27942823788134236     
  0.12900000000000000          2.5522930998258697E-002
  0.12930000000000003         0.48756780848030007     
  0.12959999999999999          1.0666324992114604     
  0.12990000000000002          1.7091529322743391     
  0.13019999999999998          2.3529555216182523     
  0.13050000000000000          2.9374701497001219     
  0.13080000000000003          3.4033431260092035     
  0.13109999999999999          3.7013923751625741     
  0.13140000000000002          3.7988249804092602     
  0.13169999999999998          3.6754746103985836     
  0.13200000000000001          3.3318295585738156     
  0.13229999999999997          2.7873802925710827     
  0.13260000000000000          2.0736309812416156     
  0.13290000000000002          1.2376458154663907     
  0.13319999999999999         0.33439716490331550     
  0.13350000000000001        -0.57943629937525554     
  0.13380000000000003         -1.4444390544925234     
  0.13410000000000000         -2.2088456502781622     
  0.13440000000000002         -2.8297764211704624     
  0.13469999999999999         -3.2729721423616609     
  0.13500000000000001         -3.5201960204937919     
  0.13529999999999998         -3.5657708440614311     
  0.13560000000000000         -3.4161181970865253     
  0.13590000000000002         -3.0929868013955626     
  0.13619999999999999         -2.6258033360403399     
  0.13650000000000001         -2.0526489698787755     
  0.13680000000000003         -1.4184068813050759     
  0.13710000000000000        -0.76700654673031754     
  0.13740000000000002        -0.14309741148928395     
  0.13769999999999999         0.41227015369483472     
  0.13800000000000001         0.86662367878276403     
  0.13829999999999998          1.1944963916753251     
  0.13860000000000000          1.3797615578880178     
  0.13890000000000002          1.4190382124659675     
  0.13919999999999999          1.3178336630422476     
  0.13950000000000001          1.0914973980447711     
  0.13979999999999998         0.76507177071018184     
  0.14010000000000000         0.36828821972046799     
  0.14040000000000002         -6.4622960845842237E-002
  0.14069999999999999        -0.49649386252501299     
  0.14100000000000001        -0.89311591827639469     
  0.14130000000000004         -1.2238217252380599     
  0.14160000000000000         -1.4614505362021726     
  0.14189999999999997         -1.5891483634755978     
  0.14219999999999999         -1.5977992349904910     
  0.14250000000000002         -1.4860169149427471     
  0.14279999999999998         -1.2642432344046983     
  0.14310000000000000        -0.94909006136929031     
  0.14339999999999997        -0.56398894807356736     
  0.14369999999999999        -0.13980891804283185     
  0.14400000000000002         0.29322776755077107     
  0.14429999999999998         0.70379753234063402     
  0.14460000000000001          1.0610184959652282     
  0.14490000000000003          1.3417006202240156     
  0.14520000000000000          1.5275063288652553     
  0.14550000000000002          1.6070592615360935     
  0.14579999999999999          1.5796781192663178     
  0.14610000000000001          1.4513986635566947     
  0.14640000000000003          1.2355594662207041     
  0.14670000000000000         0.95355402010859125     
  0.14699999999999996         0.62948780611094390     
  0.14729999999999999         0.29127636652642652     
  0.14760000000000001         -3.2533634921377355E-002
  0.14789999999999998        -0.31591022740660935     
  0.14820000000000000        -0.53569322573456746     