  -1.4999999999999999E-002     0.0000000000000000     
  -1.4700000000000000E-002     0.0000000000000000     
  -1.4400000000000000E-002     0.0000000000000000     
  -1.4100000000000000E-002     0.0000000000000000     
  -1.3800000000000000E-002     0.0000000000000000     
  -1.3500000000000000E-002     0.0000000000000000     
  -1.3200000000000000E-002     0.0000000000000000     
  -1.2899999999999998E-002     0.0000000000000000     
  -1.2600000000000000E-002     0.0000000000000000     
  -1.2299999999999998E-002     0.0000000000000000     
  -1.2000000000000000E-002     0.0000000000000000     
  -1.1699999999999999E-002     0.0000000000000000     
  -1.1399999999999999E-002     0.0000000000000000     
  -1.1099999999999999E-002     0.0000000000000000     
  -1.0799999999999999E-002     0.0000000000000000     
  -1.0499999999999999E-002     0.0000000000000000     
  -1.0199999999999999E-002     0.0000000000000000     
  -9.8999999999999991E-003     0.0000000000000000     
  -9.5999999999999992E-003     0.0000000000000000     
  -9.2999999999999992E-003     0.0000000000000000     
  -8.9999999999999993E-003     0.0000000000000000     
  -8.6999999999999994E-003     0.0000000000000000     
  -8.3999999999999995E-003     0.0000000000000000     
  -8.0999999999999996E-003     0.0000000000000000     
  -7.7999999999999988E-003     0.0000000000000000     
  -7.4999999999999997E-003     0.0000000000000000     
  -7.1999999999999998E-003     0.0000000000000000     
  -6.8999999999999981E-003     0.0000000000000000     
  -6.5999999999999982E-003     0.0000000000000000     
  -6.3000000000000000E-003     0.0000000000000000     
  -6.0000000000000001E-003     0.0000000000000000     
  -5.6999999999999985E-003     0.0000000000000000     
  -5.3999999999999986E-003     0.0000000000000000     
  -5.1000000000000004E-003     0.0000000000000000     
  -4.7999999999999987E-003     0.0000000000000000     
  -4.5000000000000005E-003     0.0000000000000000     
  -4.1999999999999989E-003     0.0000000000000000     
  -3.8999999999999990E-003     0.0000000000000000     
  -3.5999999999999990E-003     0.0000000000000000     
  -3.2999999999999991E-003     0.0000000000000000     
  -2.9999999999999992E-003     0.0000000000000000     
  -2.6999999999999993E-003     0.0000000000000000     
  -2.3999999999999994E-003     0.0000000000000000     
  -2.0999999999999977E-003     0.0000000000000000     
  -1.7999999999999995E-003     0.0000000000000000     
  -1.4999999999999979E-003     0.0000000000000000     
  -1.1999999999999997E-003     0.0000000000000000     
  -8.9999999999999976E-004     0.0000000000000000     
  -5.9999999999999810E-004     0.0000000000000000     
  -2.9999999999999992E-004     0.0000000000000000     
   0.0000000000000000          0.0000000000000000     
   3.0000000000000165E-004     0.0000000000000000     
   5.9999999999999984E-004     0.0000000000000000     
   9.0000000000000149E-004     0.0000000000000000     
   1.2000000000000031E-003     0.0000000000000000     
   1.5000000000000013E-003     0.0000000000000000     
   1.8000000000000030E-003     0.0000000000000000     
   2.1000000000000012E-003     0.0000000000000000     
   2.3999999999999994E-003     0.0000000000000000     
   2.7000000000000010E-003     0.0000000000000000     
   2.9999999999999992E-003     0.0000000000000000     
   3.3000000000000008E-003     0.0000000000000000     
   3.6000000000000025E-003     0.0000000000000000     
   3.9000000000000007E-003     0.0000000000000000     
   4.2000000000000023E-003     0.0000000000000000     
   4.5000000000000005E-003     0.0000000000000000     
   4.7999999999999987E-003     0.0000000000000000     
   5.1000000000000004E-003     0.0000000000000000     
   5.4000000000000020E-003     0.0000000000000000     
   5.7000000000000037E-003     0.0000000000000000     
   5.9999999999999984E-003     0.0000000000000000     
   6.3000000000000000E-003     0.0000000000000000     
   6.6000000000000017E-003     0.0000000000000000     
   6.9000000000000034E-003     0.0000000000000000     
   7.2000000000000015E-003     0.0000000000000000     
   7.5000000000000032E-003     0.0000000000000000     
   7.8000000000000014E-003     0.0000000000000000     
   8.0999999999999996E-003     0.0000000000000000     
   8.4000000000000012E-003     0.0000000000000000     
   8.7000000000000029E-003     0.0000000000000000     
   9.0000000000000011E-003     0.0000000000000000     
   9.2999999999999992E-003     0.0000000000000000     
   9.6000000000000009E-003     0.0000000000000000     
   9.8999999999999991E-003     0.0000000000000000     
   1.0200000000000001E-002     0.0000000000000000     
   1.0500000000000002E-002     0.0000000000000000     
   1.0800000000000004E-002     0.0000000000000000     
   1.1099999999999999E-002     0.0000000000000000     
   1.1400000000000000E-002     0.0000000000000000     
   1.1700000000000002E-002     0.0000000000000000     
   1.2000000000000004E-002    -2.1980401228766027E-039
   1.2300000000000002E-002    -4.6781341467370322E-037
   1.2600000000000000E-002    -5.3603443288004192E-038
   1.2900000000000002E-002     4.4960818075142947E-036
   1.3200000000000000E-002    -9.1886311232726114E-036
   1.3500000000000002E-002     2.1056485182585370E-035
   1.3800000000000003E-002    -3.6267642755979904E-035
   1.4100000000000001E-002    -4.5588075108953178E-035
   1.4400000000000000E-002     2.2824375992119234E-034
   1.4700000000000001E-002    -4.2079583065784187E-034
   1.4999999999999999E-002     1.4311232472423325E-034
   1.5300000000000001E-002    -1.7543444578137940E-034
   1.5600000000000003E-002     8.5933024330200194E-034
   1.5899999999999997E-002    -2.4585403698446824E-033
   1.6199999999999999E-002     3.0258607180054317E-033
   1.6500000000000001E-002     2.8865336165520515E-033
   1.6800000000000002E-002    -1.2547101415412233E-032
   1.7100000000000004E-002     9.2685258883561837E-033
   1.7400000000000006E-002     2.3683916171238091E-032
   1.7700000000000000E-002    -5.9702573958090128E-032
   1.8000000000000002E-002     1.3042214902106451E-032
   1.8300000000000004E-002     1.4767352910589398E-031
   1.8600000000000005E-002    -2.2785536060991683E-031
   1.8900000000000000E-002    -9.8041717127284891E-032
   1.9200000000000002E-002     7.1250030816657777E-031
   1.9500000000000003E-002    -6.2009996751421217E-031
   1.9799999999999998E-002    -1.0455614426606775E-030
   2.0100000000000000E-002     2.7604202661508792E-030
   2.0400000000000001E-002    -6.3495655385195196E-031
   2.0700000000000003E-002    -5.8985290332756293E-030
   2.0999999999999998E-002     7.9839476939942315E-030
   2.1299999999999999E-002     5.2611104935296564E-030
   2.1600000000000001E-002    -2.4202348168705653E-029
   2.1900000000000003E-002     1.2923733619139960E-029
   2.2200000000000004E-002     4.3138784116690387E-029
   2.2500000000000006E-002    -7.4592268043038945E-029
   2.2800000000000001E-002    -2.4648216305356895E-029
   2.3100000000000002E-002     2.0304263386775748E-028
   2.3400000000000004E-002    -1.5839458390727344E-028
   2.3699999999999999E-002    -3.1740412931602296E-028
   2.4000000000000000E-002     7.6216916747787288E-028
   2.4300000000000002E-002    -1.7970458102464799E-028
   2.4599999999999997E-002    -1.5562860809406438E-027
   2.4900000000000005E-002     2.3547261482876988E-027
   2.5200000000000000E-002     8.4962768661918577E-028
   2.5499999999999995E-002    -7.4804987256865626E-027
   2.5800000000000003E-002     7.3269126302279762E-027
   2.6099999999999998E-002     2.2377840886974604E-026
   2.6400000000000007E-002    -9.4495907646496080E-026
   2.6700000000000002E-002     9.8131386357501003E-026
   2.6999999999999996E-002     3.9541862811311619E-025
   2.7300000000000005E-002    -1.8095503818301584E-024
   2.7600000000000000E-002     2.4287472771738687E-024
   2.7900000000000008E-002     3.9636217336801896E-024
   2.8200000000000003E-002    -1.9350370594152720E-023
   2.8499999999999998E-002     1.6607115082278301E-023
   2.8800000000000006E-002     2.1063060384551557E-023
   2.9100000000000001E-002     1.6940447241887592E-022
   2.9400000000000003E-002    -1.2376225185578656E-021
   2.9700000000000004E-002     2.0574882334972736E-021
   3.0000000000000006E-002     5.7925827458987364E-021
   3.0300000000000001E-002    -3.4416208054875826E-020
   3.0600000000000002E-002     5.9409094797656345E-020
   3.0900000000000004E-002     2.3914696397040996E-020
   3.1199999999999999E-002    -2.6254574982365950E-019
   3.1500000000000007E-002     3.6290106581802988E-019
   3.1800000000000002E-002    -4.2598407089683699E-019
   3.2099999999999997E-002     3.2436699935957698E-018
   3.2400000000000005E-002    -1.0051920770104225E-017
   3.2700000000000000E-002    -4.1697729228683762E-018
   3.3000000000000002E-002     9.9794347982834590E-017
   3.3300000000000003E-002    -2.2897261156831832E-016
   3.3599999999999998E-002    -3.9188492978353102E-017
   3.3900000000000000E-002     1.1672455020025836E-015
   3.4200000000000001E-002    -1.8612907109659623E-015
   3.4500000000000003E-002    -1.5118299164193004E-015
   3.4799999999999998E-002     7.8039523559949190E-015
   3.5099999999999999E-002    -7.6985755767426124E-016
   3.5400000000000001E-002    -3.2807733096143324E-014
   3.5699999999999996E-002     3.8349215331182139E-014
   3.6000000000000004E-002     1.2667121340353614E-013
   3.6299999999999999E-002    -4.8377804122025436E-013
   3.6600000000000008E-002     4.5131898781702733E-013
   3.6900000000000002E-002     1.4836660261210915E-012
   3.7199999999999997E-002    -6.3053546632634023E-012
   3.7500000000000006E-002     8.0086737330527480E-012
   3.7800000000000000E-002     1.4456130503487129E-011
   3.8100000000000009E-002    -7.4766790206557764E-011
   3.8400000000000004E-002     8.5514921857249598E-011
   3.8699999999999998E-002     1.8397961702817227E-010
   3.9000000000000007E-002    -6.9188851379060516E-010
   3.9300000000000002E-002     3.6276238767474690E-010
   3.9600000000000003E-002     1.9687204685087828E-009
   3.9900000000000005E-002    -3.6527124740521266E-009
   4.0200000000000000E-002    -8.2235986867739950E-010
   4.0500000000000001E-002     6.8698571042569465E-009
   4.0800000000000003E-002    -1.5529059047467371E-008
   4.1100000000000005E-002     2.9250690079768308E-008
   4.1399999999999999E-002     3.3873693228261391E-008
   4.1700000000000008E-002    -3.0166005387397272E-007
   4.2000000000000003E-002     1.3310590310859588E-006
   4.2299999999999997E-002     1.0385592670491519E-005
   4.2600000000000006E-002     2.7026996772799088E-005
   4.2900000000000001E-002     4.2240368324696828E-005
   4.3200000000000002E-002     5.2113682106987030E-005
   4.3500000000000004E-002     6.8032110232449188E-005
   4.3799999999999999E-002     1.0398205321583890E-004
   4.4100000000000000E-002     1.6527165999213062E-004
   4.4400000000000002E-002     2.5512405667883444E-004
   4.4700000000000004E-002     3.8321241746558008E-004
   4.4999999999999998E-002     5.6808287783718426E-004
   4.5300000000000000E-002     8.3342383886669097E-004
   4.5600000000000002E-002     1.2013640931233579E-003
   4.5899999999999996E-002     1.6988044238734016E-003
   4.6200000000000005E-002     2.3680230509663955E-003
   4.6500000000000000E-002     3.2558464695009808E-003
   4.6799999999999994E-002     4.3990089353797609E-003
   4.7100000000000003E-002     5.8312450246276676E-003
   4.7399999999999998E-002     7.5960406315564201E-003
   4.7700000000000006E-002     9.7405882497281944E-003
   4.8000000000000001E-002     1.2287469417235401E-002
   4.8300000000000010E-002     1.5207005690960070E-002
   4.8600000000000004E-002     1.8426211574932311E-002
   4.8899999999999999E-002     2.1850165188485125E-002
   4.9200000000000008E-002     2.5349417043943154E-002
   4.9500000000000002E-002     2.8722227183963701E-002
   4.9800000000000011E-002     3.1685183004941414E-002
   5.0100000000000006E-002     3.3905056954914858E-002
   5.0400000000000000E-002     3.5039118713945161E-002
   5.0700000000000009E-002     3.4750515114304187E-002
   5.1000000000000004E-002     3.2712354649241146E-002
   5.1299999999999998E-002     2.8657945943394970E-002
   5.1600000000000007E-002     2.2447524935381692E-002
   5.1900000000000002E-002     1.4105575523402032E-002
   5.2200000000000010E-002     3.8329253849491611E-003
   5.2500000000000005E-002    -7.9748052883742912E-003
   5.2800000000000000E-002    -2.0744306472381187E-002
   5.3099999999999994E-002    -3.3789366491039280E-002
   5.3400000000000003E-002    -4.6391355848131033E-002
   5.3699999999999998E-002    -5.7893871008330489E-002
   5.4000000000000006E-002    -6.7827876930035363E-002
   5.4300000000000001E-002    -7.6071698015879957E-002
   5.4599999999999996E-002    -8.2979985335766074E-002
   5.4900000000000004E-002    -8.9428370887122258E-002
   5.5199999999999999E-002    -9.6862700739424240E-002
   5.5499999999999994E-002   -0.10720589988342230     
   5.5800000000000002E-002   -0.12269030082088750     
   5.6099999999999997E-002   -0.14563000893158423     
   5.6400000000000006E-002   -0.17804127893704463     
   5.6700000000000000E-002   -0.22127256621099609     
   5.6999999999999995E-002   -0.27556232455200275     
   5.7300000000000004E-002   -0.33973737943751986     
   5.7599999999999998E-002   -0.41100392650351381     
   5.7900000000000007E-002   -0.48475603906475651     
   5.8200000000000002E-002   -0.55473854329736860     
   5.8499999999999996E-002   -0.61334357084683122     
   5.8800000000000005E-002   -0.65218881548772378     
   5.9100000000000000E-002   -0.66279707312486646     
   5.9400000000000008E-002   -0.63745015607544764     
   5.9700000000000003E-002   -0.57004918088530343     
   6.0000000000000012E-002   -0.45689936616879023     
   6.0300000000000006E-002   -0.29748064601458180     
   6.0600000000000001E-002    -9.4757091884009437E-002
   6.0900000000000010E-002    0.14460751907928282     
   6.1200000000000004E-002    0.41044294290132555     
   6.1500000000000013E-002    0.68958040923853769     
   6.1800000000000008E-002    0.96671603563610953     
   6.2100000000000002E-002     1.2253548046911131     
   6.2399999999999997E-002     1.4491263632636251     
   6.2700000000000006E-002     1.6229186098213129     
   6.3000000000000000E-002     1.7339123392236571     
   6.3300000000000009E-002     1.7727866973198123     
   6.3600000000000004E-002     1.7342791067744852     
   6.3899999999999998E-002     1.6176766623766914     
   6.4199999999999993E-002     1.4269607889709186     
   6.4500000000000002E-002     1.1702834211804336     
   6.4800000000000010E-002    0.85988559916350316     
   6.5100000000000005E-002    0.51088210798388589     
   6.5400000000000000E-002    0.14057762291280113     
   6.5700000000000008E-002   -0.23275535285115728     
   6.5999999999999989E-002   -0.59108439830777315     
   6.6299999999999998E-002   -0.91728076089444222     
   6.6600000000000006E-002    -1.1966533410836386     
   6.6900000000000001E-002    -1.4170735735050437     
   6.7199999999999996E-002    -1.5700507269521404     
   6.7500000000000004E-002    -1.6508356084054068     
   6.7800000000000013E-002    -1.6584255508465624     
   6.8099999999999994E-002    -1.5956909086643578     
   6.8400000000000002E-002    -1.4687562637101315     
   6.8700000000000011E-002    -1.2867379367713410     
   6.8999999999999992E-002    -1.0611009057239849     
   6.9300000000000000E-002   -0.80468131310886781     
   6.9600000000000009E-002   -0.53148146440761945     
   6.9900000000000004E-002   -0.25531817497200876     
   7.0199999999999999E-002     1.0221633276918291E-002
   7.0500000000000007E-002    0.25295861993465352     
   7.0800000000000016E-002    0.46240162159412457     
   7.1099999999999997E-002    0.63028749463940426     
   7.1400000000000005E-002    0.75095031725661898     
   7.1700000000000000E-002    0.82152779963660194     
   7.1999999999999995E-002    0.84199764011547884     
   7.2300000000000003E-002    0.81527254408803096     
   7.2600000000000012E-002    0.74677681918381855     
   7.2900000000000006E-002    0.64427678104673869     
   7.3200000000000001E-002    0.51716792584119653     
   7.3499999999999996E-002    0.37617493373776933     
   7.3800000000000004E-002    0.23223866799436804     
   7.4099999999999999E-002     9.6251389725649783E-002
   7.4400000000000008E-002    -2.2017061751518317E-002
   7.4700000000000003E-002   -0.11432461120649669     
   7.5000000000000011E-002   -0.17466352706722579     
   7.5299999999999992E-002   -0.19944568491869130     
   7.5600000000000001E-002   -0.18781625963387402     
   7.5900000000000009E-002   -0.14148715274527815     
   7.6200000000000004E-002    -6.4772823424510795E-002
   7.6499999999999999E-002     3.5837809633027747E-002
   7.6800000000000007E-002    0.15224429481862212     
   7.7099999999999988E-002    0.27503880115679041     
   7.7399999999999997E-002    0.39445384922892424     
   7.7700000000000005E-002    0.50085995548050810     
   7.8000000000000014E-002    0.58520137574068032     
   7.8299999999999995E-002    0.63999028613743414     
   7.8600000000000003E-002    0.65927272472707832     
   7.8900000000000012E-002    0.63969669767184889     
   7.9199999999999993E-002    0.58017383430111702     
   7.9500000000000001E-002    0.48264408074031762     
   7.9800000000000010E-002    0.35136131229000489     
   8.0100000000000018E-002    0.19323231550657269     
   8.0399999999999999E-002     1.7230979055183761E-002
   8.0700000000000008E-002   -0.16656340112750420     
   8.1000000000000003E-002   -0.34696022643083946     
   8.1299999999999997E-002   -0.51307656405312696     
   8.1600000000000006E-002   -0.65505248736550348     
   8.1900000000000014E-002   -0.76463364230999786     
   8.2199999999999995E-002   -0.83609567786304217     
   8.2500000000000004E-002   -0.86663996024436263     
   8.2799999999999999E-002   -0.85648017864691584     
   8.3100000000000007E-002   -0.80894704968433973     
   8.3400000000000002E-002   -0.73018680308831052     
   8.3700000000000011E-002   -0.62834106940818901     
   8.4000000000000005E-002   -0.51309147969667424     
   8.4300000000000000E-002   -0.39442005535971514     
   8.4599999999999995E-002   -0.28201438866120476     
   8.4900000000000003E-002   -0.18419805232952416     
   8.5199999999999998E-002   -0.10740394496249681     
   8.5500000000000007E-002    -5.5688982438538689E-002
   8.5800000000000001E-002    -3.0267857983967028E-002
   8.6100000000000010E-002    -3.0096745321546936E-002
   8.6399999999999991E-002    -5.1413574525414327E-002
   8.6699999999999999E-002    -8.8892004501824939E-002
   8.7000000000000008E-002   -0.13594565871353928     
   8.7300000000000003E-002   -0.18514374307915607     
   8.7599999999999997E-002   -0.22944365824204860     
   8.7900000000000006E-002   -0.26207361669644935     
   8.8200000000000014E-002   -0.27736463741655870     
   8.8499999999999995E-002   -0.27102237969636073     
   8.8800000000000004E-002   -0.24004129652302170     
   8.9100000000000013E-002   -0.18304694380255523     
   8.9399999999999993E-002    -9.9861181859729434E-002
   8.9700000000000002E-002     8.2357089012466619E-003
   9.0000000000000011E-002    0.13889997957104408     
   9.0299999999999991E-002    0.28867701830373693     
   9.0600000000000000E-002    0.45324698300075011     
   9.0900000000000009E-002    0.62741997549959827     
   9.1200000000000017E-002    0.80517985660892655     
   9.1499999999999998E-002    0.97988338888185966     
   9.1800000000000007E-002     1.1443826719795349     
   9.2100000000000001E-002     1.2909765181508466     
   9.2399999999999996E-002     1.4121866127477150     
   9.2700000000000005E-002     1.5005908621842030     
   9.3000000000000013E-002     1.5495894745137262     
   9.3300000000000008E-002     1.5536105733445980     
   9.3600000000000003E-002     1.5086326184068184     
   9.3899999999999997E-002     1.4125173687556933     
   9.4200000000000006E-002     1.2652618815345509     
   9.4500000000000001E-002     1.0689391295043693     
   9.4800000000000009E-002    0.82815212942736249     
   9.5100000000000004E-002    0.54924428062826314     
   9.5399999999999999E-002    0.24049240103532710     
   9.5699999999999993E-002    -8.8743758611863316E-002
   9.6000000000000002E-002   -0.42811438519211864     
   9.6300000000000011E-002   -0.76703811430976243     
   9.6600000000000005E-002    -1.0950796107884100     
   9.6900000000000000E-002    -1.4025366199398541     
   9.7200000000000009E-002    -1.6805399756264796     
   9.7499999999999989E-002    -1.9217114157848934     
   9.7799999999999998E-002    -2.1197371855961964     
   9.8100000000000007E-002    -2.2701129198848946     
   9.8400000000000015E-002    -2.3695250919526831     
   9.8699999999999996E-002    -2.4161832820117710     
   9.9000000000000005E-002    -2.4097738817663719     
   9.9300000000000013E-002    -2.3508907378704231     
   9.9599999999999994E-002    -2.2415877295423812     
   9.9900000000000003E-002    -2.0848789899495301     
  0.10020000000000001         -1.8845906973483322     
  0.10049999999999999         -1.6459127045244626     
  0.10080000000000000         -1.3744767052564923     
  0.10110000000000001         -1.0769233166917538     
  0.10140000000000000        -0.76046433991685791     
  0.10170000000000000        -0.43283940874084004     
  0.10200000000000001        -0.10179797409746499     
  0.10230000000000002         0.22458466281010178     
  0.10260000000000000         0.53869729804957234     
  0.10290000000000001         0.83333990448847661     
  0.10320000000000000          1.1021282495545384     
  0.10350000000000001          1.3393594741081545     
  0.10380000000000000          1.5405216048611470     
  0.10410000000000001          1.7016977678007967     
  0.10440000000000001          1.8199063815543743     
  0.10470000000000000          1.8928597181144955     
  0.10500000000000000          1.9188015297237029     
  0.10530000000000000          1.8963528982341322     
  0.10560000000000000          1.8248099234865762     
  0.10590000000000001          1.7035547246949105     
  0.10620000000000000          1.5329317906981768     
  0.10650000000000001          1.3141085031375144     
  0.10679999999999999          1.0500310587409003     
  0.10710000000000000         0.74511446352534216     
  0.10740000000000001         0.40616170565158105     
  0.10770000000000000          4.2534817345276768E-002
  0.10800000000000000        -0.33344483974594746     
  0.10830000000000001        -0.70688433420347041     
  0.10859999999999999         -1.0603853754959305     
  0.10890000000000000         -1.3751799762265178     
  0.10920000000000001         -1.6313648860746428     
  0.10950000000000001         -1.8097813944009209     
  0.10979999999999999         -1.8928700799440570     
  0.11009999999999999         -1.8663854686149373     
  0.11040000000000001         -1.7205696418448873     
  0.11070000000000001         -1.4515961825528403     
  0.11100000000000000         -1.0622116245441697     
  0.11130000000000000        -0.56254312757434988     
  0.11160000000000002          3.0089354995143286E-002
  0.11190000000000001         0.69158616390537375     
  0.11220000000000001          1.3919737375372394     
  0.11250000000000000          2.0968241576969779     
  0.11280000000000000          2.7693440099313751     
  0.11309999999999999          3.3720838917922831     
  0.11340000000000001          3.8694135312660025     
  0.11369999999999998          4.2298222604694784     
  0.11400000000000000          4.4278194402444555     
  0.11430000000000000          4.4455197519562466     
  0.11460000000000002          4.2743368650215592     
  0.11489999999999999          3.9153979398443193     
  0.11520000000000001          3.3798523281729089     
  0.11550000000000001          2.6886873286173776     
  0.11580000000000000          1.8712109668128036     
  0.11609999999999999         0.96397876899786095     
  0.11640000000000002          8.7240379661109313E-003
  0.11670000000000001        -0.95027311370298007     
  0.11700000000000001         -1.8681819434916846     
  0.11730000000000000         -2.7030071863980116     
  0.11760000000000000         -3.4175295358025677     
  0.11789999999999999         -3.9815763397989734     
  0.11820000000000001         -4.3744801947971919     
  0.11850000000000001         -4.5854217639718069     
  0.11880000000000000         -4.6149099022302469     
  0.11910000000000000         -4.4737662125894317     
  0.11940000000000002         -4.1825985341116985     
  0.11970000000000001         -3.7696779908809441     
  0.12000000000000001         -3.2689613031664053     
  0.12030000000000000         -2.7167506292037391     
  0.12060000000000000         -2.1489852848192510     
  0.12089999999999999         -1.5981498322411207     
  0.12119999999999999         -1.0912547579490910     
  0.12150000000000001        -0.64693172317359371     
  0.12180000000000001        -0.27559467208638100     
  0.12210000000000000          2.1587176180417667E-002
  0.12239999999999999         0.25188799112962945     
  0.12270000000000002         0.42874940952982021     
  0.12300000000000001         0.57079722683175727     
  0.12330000000000001         0.69865879105036821     
  0.12360000000000000         0.83193972588739395     
  0.12390000000000000         0.98844036919290179     
  0.12419999999999999          1.1801394808756669     
  0.12450000000000001          1.4139219073554270     
  0.12480000000000001          1.6893571605730258     
  0.12509999999999999          1.9997635712946735     
  0.12540000000000001          2.3325944051079812     
  0.12570000000000003          2.6702497806883740     
  0.12600000000000000          2.9924385063407044     
  0.12630000000000002          3.2770083088957995     
  0.12659999999999999          3.5027970664358503     
  0.12690000000000001          3.6500295708921113     
  0.12719999999999998          3.7026924765006184     
  0.12750000000000000          3.6497062974836139     
  0.12780000000000002          3.4851367023897941     
  0.12809999999999999          3.2092103422000902     
  0.12840000000000001          2.8278886354026893     
  0.12869999999999998          2.3529330222595242     
  0.12900000000000000          1.8009182117978759     
  0.12930000000000003          1.1922745286790211     
  0.12959999999999999         0.55021827728774753     
  0.12990000000000002        -0.10134162987026707     
  0.13019999999999998        -0.73874351847584230     
  0.13050000000000000         -1.3409680846911609     
  0.13080000000000003         -1.8899952444138859     
  0.13109999999999999         -2.3726929886189980     
  0.13140000000000002         -2.7809635077601813     
  0.13169999999999998         -3.1123888521470024     
  0.13200000000000001         -3.3693610056679173     
  0.13229999999999997         -3.5587364806791961     
  0.13260000000000000         -3.6901671221945618     
  0.13290000000000002         -3.7756003652292538     
  0.13319999999999999         -3.8261147666466657     
  0.13350000000000001         -3.8529270280717753     
  0.13380000000000003         -3.8638964839814953     
  0.13410000000000000         -3.8644079600267371     
  0.13440000000000002         -3.8566040851566257     
  0.13469999999999999         -3.8391981915881654     
  0.13500000000000001         -3.8086809281217251     
  0.13529999999999998         -3.7596246985113497     
  0.13560000000000000         -3.6859167833802786     
  0.13590000000000002         -3.5818524447288471     
  0.13619999999999999         -3.4423895404115434     
  0.13650000000000001         -3.2647081968956986     
  0.13680000000000003         -3.0478990882902872     
  0.13710000000000000         -2.7934029723931753     
  0.13740000000000002         -2.5042616404593523     
  0.13769999999999999         -2.1854246229073233     
  0.13800000000000001         -1.8419988120050776     
  0.13829999999999998         -1.4800447532627792     
  0.13860000000000000         -1.1047624662768611     
  0.13890000000000002        -0.72029519475524983     
  0.13919999999999999        -0.32982323018679843     
  0.13950000000000001          6.5443487374177572E-002
  0.13979999999999998         0.46531727382399374     
  0.14010000000000000         0.87079387598435543     
  0.14040000000000002          1.2831280430961811     
  0.14069999999999999          1.7036443256901559     
  0.14100000000000001          2.1324918550556413     
  0.14130000000000004          2.5683849605049991     
  0.14160000000000000          3.0077918634776797     
  0.14189999999999997          3.4443097229587178     
  0.14219999999999999          3.8689324303367929     
  0.14250000000000002          4.2704223215029238     
  0.14279999999999998          4.6353198194882372     
  0.14310000000000000          4.9493552206868925     
  0.14339999999999997          5.1986543570319146     
  0.14369999999999999          5.3707319442598891     
  0.14400000000000002          5.4557890069216874     
  0.14429999999999998          5.4482807519548837     
  0.14460000000000001          5.3469111518442745     
  0.14490000000000003          5.1563777152048633     
  0.14520000000000000          4.8857715578890009     
  0.14550000000000002          4.5495770158140418     
  0.14579999999999999          4.1654362766990998     
  0.14610000000000001          3.7542080439565675     
  0.14640000000000003          3.3364472145750415     
  0.14670000000000000          2.9327056123737973     
  0.14699999999999996          2.5608276952017501     
  0.14729999999999999          2.2341810216993423     
  0.14760000000000001          1.9620231650187372     
  0.14789999999999998          1.7469644198844581     
  0.14820000000000000          1.5858653947543959     