  -1.4999999999999999E-002     0.0000000000000000     
  -1.4700000000000000E-002     0.0000000000000000     
  -1.4400000000000000E-002     0.0000000000000000     
  -1.4100000000000000E-002     0.0000000000000000     
  -1.3800000000000000E-002     0.0000000000000000     
  -1.3500000000000000E-002     0.0000000000000000     
  -1.3200000000000000E-002     0.0000000000000000     
  -1.2899999999999998E-002     0.0000000000000000     
  -1.2600000000000000E-002     0.0000000000000000     
  -1.2299999999999998E-002     0.0000000000000000     
  -1.2000000000000000E-002     0.0000000000000000     
  -1.1699999999999999E-002     0.0000000000000000     
  -1.1399999999999999E-002     0.0000000000000000     
  -1.1099999999999999E-002     0.0000000000000000     
  -1.0799999999999999E-002     0.0000000000000000     
  -1.0499999999999999E-002     0.0000000000000000     
  -1.0199999999999999E-002     0.0000000000000000     
  -9.8999999999999991E-003     0.0000000000000000     
  -9.5999999999999992E-003     0.0000000000000000     
  -9.2999999999999992E-003     0.0000000000000000     
  -8.9999999999999993E-003     0.0000000000000000     
  -8.6999999999999994E-003     0.0000000000000000     
  -8.3999999999999995E-003     0.0000000000000000     
  -8.0999999999999996E-003     0.0000000000000000     
  -7.7999999999999988E-003     0.0000000000000000     
  -7.4999999999999997E-003     0.0000000000000000     
  -7.1999999999999998E-003     0.0000000000000000     
  -6.8999999999999981E-003     0.0000000000000000     
  -6.5999999999999982E-003     0.0000000000000000     
  -6.3000000000000000E-003     0.0000000000000000     
  -6.0000000000000001E-003     0.0000000000000000     
  -5.6999999999999985E-003     0.0000000000000000     
  -5.3999999999999986E-003     0.0000000000000000     
  -5.1000000000000004E-003     0.0000000000000000     
  -4.7999999999999987E-003     0.0000000000000000     
  -4.5000000000000005E-003     0.0000000000000000     
  -4.1999999999999989E-003     0.0000000000000000     
  -3.8999999999999990E-003     0.0000000000000000     
  -3.5999999999999990E-003     0.0000000000000000     
  -3.2999999999999991E-003     0.0000000000000000     
  -2.9999999999999992E-003     0.0000000000000000     
  -2.6999999999999993E-003     0.0000000000000000     
  -2.3999999999999994E-003     0.0000000000000000     
  -2.0999999999999977E-003     0.0000000000000000     
  -1.7999999999999995E-003     0.0000000000000000     
  -1.4999999999999979E-003     0.0000000000000000     
  -1.1999999999999997E-003     0.0000000000000000     
  -8.9999999999999976E-004     0.0000000000000000     
  -5.9999999999999810E-004     0.0000000000000000     
  -2.9999999999999992E-004     0.0000000000000000     
   0.0000000000000000          9.9355537266154589E-045
   3.0000000000000165E-004    -5.6500873177784034E-038
   5.9999999999999984E-004     1.9942734882374388E-036
   9.0000000000000149E-004    -3.2796283162870006E-035
   1.2000000000000031E-003     2.3372595162893715E-034
   1.5000000000000013E-003    -6.4586679496007309E-034
   1.8000000000000030E-003     2.4884952586418531E-033
   2.1000000000000012E-003    -4.4210809188679133E-033
   2.3999999999999994E-003    -8.0461085402114669E-034
   2.7000000000000010E-003     1.9864882094886636E-032
   2.9999999999999992E-003    -3.9458200452980686E-032
   3.3000000000000008E-003    -5.7049002303554484E-033
   3.6000000000000025E-003     1.9562892303215519E-031
   3.9000000000000007E-003    -3.9677426145949009E-031
   4.2000000000000023E-003     1.5874766662226775E-032
   4.5000000000000005E-003     1.6565785278254883E-030
   4.7999999999999987E-003    -3.8887693809883932E-030
   5.1000000000000004E-003     1.6868273844058685E-030
   5.4000000000000020E-003     1.4150797943586350E-029
   5.7000000000000037E-003    -4.0715887317473262E-029
   5.9999999999999984E-003     2.6659750588427561E-029
   6.3000000000000000E-003     1.2494528966456209E-028
   6.6000000000000017E-003    -3.8875744425305685E-028
   6.9000000000000034E-003     2.8684429134879001E-028
   7.2000000000000015E-003     1.0535131157781917E-027
   7.5000000000000032E-003    -3.3421670757646154E-027
   7.8000000000000014E-003     2.3822996316375408E-027
   8.0999999999999996E-003     8.5868971022549002E-027
   8.4000000000000012E-003    -2.5624842657954249E-026
   8.7000000000000029E-003     1.5567951543239658E-026
   9.0000000000000011E-003     6.6779631019283555E-026
   9.2999999999999992E-003    -1.7798967332388113E-025
   9.6000000000000009E-003     7.3366302827191556E-026
   9.8999999999999991E-003     5.1000412108470113E-025
   1.0200000000000001E-002    -1.1273944340689389E-024
   1.0500000000000002E-002     9.8645965209118509E-026
   1.0800000000000004E-002     3.7424319922115768E-024
   1.1099999999999999E-002    -6.4108456414874828E-024
   1.1400000000000000E-002    -2.3884361957915243E-024
   1.1700000000000002E-002     2.5192458218773391E-023
   1.2000000000000004E-002    -3.1726637081840514E-023
   1.2300000000000002E-002    -3.1946529260933975E-023
   1.2600000000000000E-002     1.4978266365679536E-022
   1.2900000000000002E-002    -1.3016346752442061E-022
   1.3200000000000000E-002    -2.5703301823493890E-022
   1.3500000000000002E-002     7.7240166786483151E-022
   1.3800000000000003E-002    -4.0485094134015305E-022
   1.4100000000000001E-002    -1.5873207291546068E-021
   1.4400000000000000E-002     3.4262548350138324E-021
   1.4700000000000001E-002    -6.6217767346883236E-022
   1.4999999999999999E-002    -8.0306971936488310E-021
   1.5300000000000001E-002     1.2953350402935227E-020
   1.5600000000000003E-002     2.0097478883318475E-021
   1.5899999999999997E-002    -3.4058575526374889E-020
   1.6199999999999999E-002     4.1201811428228136E-020
   1.6500000000000001E-002     2.3035427022739478E-020
   1.6800000000000002E-002    -1.2181412599413127E-019
   1.7100000000000004E-002     1.0849101791199801E-019
   1.7400000000000006E-002     1.1563682750280521E-019
   1.7700000000000000E-002    -3.6731554142470950E-019
   1.8000000000000002E-002     2.3674544503245990E-019
   1.8300000000000004E-002     4.0100999500931261E-019
   1.8600000000000005E-002    -9.4127616783741846E-019
   1.8900000000000000E-002     4.7968543040235027E-019
   1.9200000000000002E-002     1.0145769528316675E-018
   1.9500000000000003E-002    -2.1695286156406850E-018
   1.9799999999999998E-002     1.2950262705676547E-018
   2.0100000000000000E-002     1.8769372190880470E-018
   2.0400000000000001E-002    -5.3285113214921913E-018
   2.0700000000000003E-002     4.9835542632816141E-018
   2.0999999999999998E-002     3.1644213295722280E-018
   2.1299999999999999E-002    -1.6456961079412856E-017
   2.1600000000000001E-002     1.8562149538712366E-017
   2.1900000000000003E-002     1.0900216155710219E-017
   2.2200000000000004E-002    -6.1393301628387433E-017
   2.2500000000000006E-002     6.3978467704907149E-017
   2.2800000000000001E-002     6.5561705563342829E-017
   2.3100000000000002E-002    -2.8367560770550153E-016
   2.3400000000000004E-002     2.7851035976249878E-016
   2.3699999999999999E-002     3.6995262864644041E-016
   2.4000000000000000E-002    -1.5962553650655213E-015
   2.4300000000000002E-002     2.2432376034002392E-015
   2.4599999999999997E-002     1.1320529136970729E-015
   2.4900000000000005E-002    -1.4537900286337061E-014
   2.5200000000000000E-002     2.4969597348734410E-014
   2.5499999999999995E-002     4.1844726269411489E-014
   2.5800000000000003E-002    -1.8575148751122297E-013
   2.6099999999999998E-002    -9.1014059850462185E-014
   2.6400000000000007E-002     1.1204992275528780E-012
   2.6700000000000002E-002     2.8178767575535685E-014
   2.6999999999999996E-002    -6.9258948826995515E-012
   2.7300000000000005E-002     4.0168048622370959E-012
   2.7600000000000000E-002     3.7746715102223777E-011
   2.7900000000000008E-002    -4.9305156500056081E-011
   2.8200000000000003E-002    -1.6257555402404529E-010
   2.8499999999999998E-002     3.6595247667606425E-010
   2.8800000000000006E-002     5.0709113184596843E-010
   2.9100000000000001E-002    -2.0335824674558629E-009
   2.9400000000000003E-002    -7.6919084611172335E-010
   2.9700000000000004E-002     9.1089881888943395E-009
   3.0000000000000006E-002    -3.0173502663488007E-009
   3.0300000000000001E-002    -3.4186543465425523E-008
   3.0600000000000002E-002     3.0964869479850240E-008
   3.0900000000000004E-002     1.0926957130625132E-007
   3.1199999999999999E-002    -1.6598464932190541E-007
   3.1500000000000007E-002    -3.5198950973475199E-007
   3.1800000000000002E-002     7.9637404208110571E-007
   3.2099999999999997E-002     3.0591402620464896E-006
   3.2400000000000005E-002     6.5109792197971530E-006
   3.2700000000000000E-002     1.5773520670975823E-005
   3.3000000000000002E-002     3.2655934167202759E-005
   3.3300000000000003E-002     4.8649020337124618E-005
   3.3599999999999998E-002     6.3250298664898239E-005
   3.3900000000000000E-002     9.7229099541966995E-005
   3.4200000000000001E-002     1.6336459946853546E-004
   3.4500000000000003E-002     2.5066770798639156E-004
   3.4799999999999998E-002     3.6201180146849425E-004
   3.5099999999999999E-002     5.2896490288959603E-004
   3.5400000000000001E-002     7.7658337322592387E-004
   3.5699999999999996E-002     1.1187571603928168E-003
   3.6000000000000004E-002     1.5878518767393833E-003
   3.6299999999999999E-002     2.2309659591162306E-003
   3.6600000000000008E-002     3.0880788732765342E-003
   3.6900000000000002E-002     4.1984775306260916E-003
   3.7199999999999997E-002     5.6132757068748452E-003
   3.7500000000000006E-002     7.3798521085036367E-003
   3.7800000000000000E-002     9.5180830218670534E-003
   3.8100000000000009E-002     1.2022569570239203E-002
   3.8400000000000004E-002     1.4867264524646363E-002
   3.8699999999999998E-002     1.7975419455392095E-002
   3.9000000000000007E-002     2.1188843637517451E-002
   3.9300000000000002E-002     2.4268803709611139E-002
   3.9600000000000003E-002     2.6882631254352869E-002
   3.9900000000000005E-002     2.8582170129574171E-002
   4.0200000000000000E-002     2.8812070829970123E-002
   4.0500000000000001E-002     2.6925269069873293E-002
   4.0800000000000003E-002     2.2208463036733416E-002
   4.1100000000000005E-002     1.3938441647038096E-002
   4.1399999999999999E-002     1.4710470377576003E-003
   4.1700000000000008E-002    -1.5671014523747646E-002
   4.2000000000000003E-002    -3.7699691329378983E-002
   4.2299999999999997E-002    -6.4430958467831256E-002
   4.2600000000000006E-002    -9.5165765226279911E-002
   4.2900000000000001E-002   -0.12857474178254022     
   4.3200000000000002E-002   -0.16263387834752202     
   4.3500000000000004E-002   -0.19463024720488040     
   4.3799999999999999E-002   -0.22120692971535524     
   4.4100000000000000E-002   -0.23851464307731993     
   4.4400000000000002E-002   -0.24247873932977981     
   4.4700000000000004E-002   -0.22912305228879018     
   4.4999999999999998E-002   -0.19495264875515492     
   4.5300000000000000E-002   -0.13737901825088605     
   4.5600000000000002E-002    -5.5202121854942054E-002
   4.5899999999999996E-002     5.0966407387678075E-002
   4.6200000000000005E-002    0.17848770052685414     
   4.6500000000000000E-002    0.32250362147492401     
   4.6799999999999994E-002    0.47604932660872012     
   4.7100000000000003E-002    0.63033788442820693     
   4.7399999999999998E-002    0.77524344942923096     
   4.7700000000000006E-002    0.90003846719237812     
   4.8000000000000001E-002    0.99421928817171767     
   4.8300000000000010E-002     1.0485389075111702     
   4.8600000000000004E-002     1.0558035215217669     
   4.8899999999999999E-002     1.0116619911907985     
   4.9200000000000008E-002    0.91520731265269217     
   4.9500000000000002E-002    0.76922254592068651     
   4.9800000000000011E-002    0.57999800748600328     
   5.0100000000000006E-002    0.35697242053822292     
   5.0400000000000000E-002    0.11197949735187530     
   5.0700000000000009E-002   -0.14190845036040989     
   5.1000000000000004E-002   -0.39134582363651865     
   5.1299999999999998E-002   -0.62406747683285302     
   5.1600000000000007E-002   -0.82975684447274034     
   5.1900000000000002E-002    -1.0008919099060243     
   5.2200000000000010E-002    -1.1334254581303667     
   5.2500000000000005E-002    -1.2265133682444116     
   5.2800000000000000E-002    -1.2826016955760582     
   5.3099999999999994E-002    -1.3066530035635604     
   5.3400000000000003E-002    -1.3051199718092510     
   5.3699999999999998E-002    -1.2852644724536275     
   5.4000000000000006E-002    -1.2538578315233948     
   5.4300000000000001E-002    -1.2163377807259419     
   5.4599999999999996E-002    -1.1762455511349794     
   5.4900000000000004E-002    -1.1345646194791232     
   5.5199999999999999E-002    -1.0899450597577856     
   5.5499999999999994E-002    -1.0387651746071433     
   5.5800000000000002E-002   -0.97568277868707831     
   5.6099999999999997E-002   -0.89467607433691165     
   5.6400000000000006E-002   -0.78956704026518887     
   5.6700000000000000E-002   -0.65516089330970806     
   5.6999999999999995E-002   -0.48799239823327512     
   5.7300000000000004E-002   -0.28682916943107351     
   5.7599999999999998E-002    -5.3260210765299389E-002
   5.7900000000000007E-002    0.20827720636106584     
   5.8200000000000002E-002    0.49092467730732420     
   5.8499999999999996E-002    0.78546492883187213     
   5.8800000000000005E-002     1.0810223635026299     
   5.9100000000000000E-002     1.3659715425258128     
   5.9400000000000008E-002     1.6283811064122271     
   5.9700000000000003E-002     1.8572652039215098     
   6.0000000000000012E-002     2.0425343186505116     
   6.0300000000000006E-002     2.1760813845211993     
   6.0600000000000001E-002     2.2520553712239839     
   6.0900000000000010E-002     2.2665564662123683     
   6.1200000000000004E-002     2.2183291571394128     
   6.1500000000000013E-002     2.1082272209791690     
   6.1800000000000008E-002     1.9392704674106027     
   6.2100000000000002E-002     1.7163912998188720     
   6.2399999999999997E-002     1.4458282979582306     
   6.2700000000000006E-002     1.1354651295590967     
   6.3000000000000000E-002    0.79406701510604683     
   6.3300000000000009E-002    0.43099215197461249     
   6.3600000000000004E-002     5.6375017024963746E-002
   6.3899999999999998E-002   -0.31993310915810214     
   6.4199999999999993E-002   -0.68787251620843182     
   6.4500000000000002E-002    -1.0378722965152747     
   6.4800000000000010E-002    -1.3613202345535005     
   6.5100000000000005E-002    -1.6500338048901435     
   6.5400000000000000E-002    -1.8970849213369132     
   6.5700000000000008E-002    -2.0968272358096351     
   6.5999999999999989E-002    -2.2441267620787464     
   6.6299999999999998E-002    -2.3354634881086351     
   6.6600000000000006E-002    -2.3680445787137043     
   6.6900000000000001E-002    -2.3398944976677245     
   6.7199999999999996E-002    -2.2504648820583295     
   6.7500000000000004E-002    -2.0998685040168850     
   6.7800000000000013E-002    -1.8897683330980855     
   6.8099999999999994E-002    -1.6234906660004691     
   6.8400000000000002E-002    -1.3059475215956666     
   6.8700000000000011E-002   -0.94459752690320675     
   6.8999999999999992E-002   -0.54898660414867684     
   6.9300000000000000E-002   -0.13108425998498938     
   6.9600000000000009E-002    0.29480358649644223     
   6.9900000000000004E-002    0.71304666038326248     
   7.0199999999999999E-002     1.1068293890061667     
   7.0500000000000007E-002     1.4594634555507173     
   7.0800000000000016E-002     1.7551780673195279     
   7.1099999999999997E-002     1.9803973130000312     
   7.1400000000000005E-002     2.1245124005215077     
   7.1700000000000000E-002     2.1808647759412860     
   7.1999999999999995E-002     2.1471702701140827     
   7.2300000000000003E-002     2.0255415101506351     
   7.2600000000000012E-002     1.8229857371426594     
   7.2900000000000006E-002     1.5503414596254990     
   7.3200000000000001E-002     1.2219137921541032     
   7.3499999999999996E-002    0.85513005960328481     
   7.3800000000000004E-002    0.46869557028512465     
   7.4099999999999999E-002     8.2611139103826378E-002
   7.4400000000000008E-002   -0.28317817898579556     
   7.4700000000000003E-002   -0.60991846816898343     
   7.5000000000000011E-002   -0.88033812085650698     
   7.5299999999999992E-002    -1.0802675335315297     
   7.5600000000000001E-002    -1.1986555880442948     
   7.5900000000000009E-002    -1.2288429557004752     
   7.6200000000000004E-002    -1.1693683688543863     
   7.6499999999999999E-002    -1.0235797012796815     
   7.6800000000000007E-002   -0.80077134346381518     
   7.7099999999999988E-002   -0.51564197926090227     
   7.7399999999999997E-002   -0.18743246470347152     
   7.7700000000000005E-002    0.16018085003023752     
   7.8000000000000014E-002    0.50165771773353229     
   7.8299999999999995E-002    0.81050764411602649     
   7.8600000000000003E-002     1.0611414765149541     
   7.8900000000000012E-002     1.2320099902133479     
   7.9199999999999993E-002     1.3061615053211981     
   7.9500000000000001E-002     1.2736737559223044     
   7.9800000000000010E-002     1.1326932758767696     
   8.0100000000000018E-002    0.88919942431556109     
   8.0399999999999999E-002    0.55766641403625483     
   8.0700000000000008E-002    0.15932945744031429     
   8.1000000000000003E-002   -0.27904247830170131     
   8.1299999999999997E-002   -0.72707008336063561     
   8.1600000000000006E-002    -1.1537600603635967     
   8.1900000000000014E-002    -1.5293028155469139     
   8.2199999999999995E-002    -1.8274570466143973     
   8.2500000000000004E-002    -2.0277185175798507     
   8.2799999999999999E-002    -2.1165961940474651     
   8.3100000000000007E-002    -2.0882823186186932     
   8.3400000000000002E-002    -1.9447552886791200     
   8.3700000000000011E-002    -1.6956163394545511     
   8.4000000000000005E-002    -1.3567583340589222     
   8.4300000000000000E-002   -0.94872699345318323     
   8.4599999999999995E-002   -0.49574025071968358     
   8.4900000000000003E-002    -2.3024825484695706E-002
   8.5199999999999998E-002    0.44428876469428463     
   8.5500000000000007E-002    0.88292020493398904     
   8.5800000000000001E-002     1.2728383485056356     
   8.6100000000000010E-002     1.5972765581080350     
   8.6399999999999991E-002     1.8442919107046787     
   8.6699999999999999E-002     2.0061230471188463     
   8.7000000000000008E-002     2.0788137688949759     
   8.7300000000000003E-002     2.0623867257582345     
   8.7599999999999997E-002     1.9596279582069889     
   8.7900000000000006E-002     1.7759896224374006     
   8.8200000000000014E-002     1.5189613997718583     
   8.8499999999999995E-002     1.1974516813811122     
   8.8800000000000004E-002    0.82188204147464361     
   8.9100000000000013E-002    0.40390059860646854     
   8.9399999999999993E-002    -4.3628985098652234E-002
   8.9700000000000002E-002   -0.50674922782685017     
   9.0000000000000011E-002   -0.97024000544289446     
   9.0299999999999991E-002    -1.4180415879320649     
   9.0600000000000000E-002    -1.8337169814466614     
   9.0900000000000009E-002    -2.2008247219578569     
   9.1200000000000017E-002    -2.5041041133609183     
   9.1499999999999998E-002    -2.7301911986960401     
   9.1800000000000007E-002    -2.8685447777513309     
   9.2100000000000001E-002    -2.9124929453081165     
   9.2399999999999996E-002    -2.8598987560124982     
   9.2700000000000005E-002    -2.7133159115246164     
   9.3000000000000013E-002    -2.4800404972241221     
   9.3300000000000008E-002    -2.1715361554458852     
   9.3600000000000003E-002    -1.8031965006833739     
   9.3899999999999997E-002    -1.3920059956296704     
   9.4200000000000006E-002   -0.95566370289650082     
   9.4500000000000001E-002   -0.51171472599874213     
   9.4800000000000009E-002    -7.5037203819812118E-002
   9.5100000000000004E-002    0.34182242923825357     
   9.5399999999999999E-002    0.73062366732892081     
   9.5699999999999993E-002     1.0868051012557596     
   9.6000000000000002E-002     1.4091322298992235     
   9.6300000000000011E-002     1.7002219950434247     
   9.6600000000000005E-002     1.9642088135046378     
   9.6900000000000000E-002     2.2065996777503507     
   9.7200000000000009E-002     2.4329366274758217     
   9.7499999999999989E-002     2.6477539073318477     
   9.7799999999999998E-002     2.8547248323774488     
   9.8100000000000007E-002     3.0550987158429650     
   9.8400000000000015E-002     3.2485596531882508     
   9.8699999999999996E-002     3.4335469563708982     
   9.9000000000000005E-002     3.6065668395687012     
   9.9300000000000013E-002     3.7635614185242758     
   9.9599999999999994E-002     3.9000109923753730     
   9.9900000000000003E-002     4.0114597561814715     
  0.10020000000000001          4.0927609682183999     
  0.10049999999999999          4.1388401274144453     
  0.10080000000000000          4.1442817941376804     
  0.10110000000000001          4.1024989400883589     
  0.10140000000000000          4.0065097154636229     
  0.10170000000000000          3.8479108191441256     
  0.10200000000000001          3.6177479647831632     
  0.10230000000000002          3.3074204403481624     
  0.10260000000000000          2.9085344818119037     
  0.10290000000000001          2.4158858881869079     
  0.10320000000000000          1.8266868312224396     
  0.10350000000000001          1.1433238809232891     
  0.10380000000000000         0.37427371154907046     
  0.10410000000000001        -0.46623780642098278     
  0.10440000000000001         -1.3564315833462182     
  0.10470000000000000         -2.2691051623125817     
  0.10500000000000000         -3.1723992351928372     
  0.10530000000000000         -4.0305408831188103     
  0.10560000000000000         -4.8085917706950312     
  0.10590000000000001         -5.4727377070692480     
  0.10620000000000000         -5.9943498662733807     
  0.10650000000000001         -6.3523553839227400     
  0.10679999999999999         -6.5343922574001327     
  0.10710000000000000         -6.5397886225779880     
  0.10740000000000001         -6.3778861963534510     
  0.10770000000000000         -6.0687088015284010     
  0.10800000000000000         -5.6420840317710974     
  0.10830000000000001         -5.1325072410203525     
  0.10859999999999999         -4.5797347264343005     
  0.10890000000000000         -4.0231980593029641     
  0.10920000000000001         -3.4981178627028506     
  0.10950000000000001         -3.0355011870814028     
  0.10979999999999999         -2.6562332616125821     
  0.11009999999999999         -2.3715974839731118     
  0.11040000000000001         -2.1834237161807217     
  0.11070000000000001         -2.0817138759381391     
  0.11100000000000000         -2.0498222930364105     
  0.11130000000000000         -2.0642926327920956     
  0.11160000000000002         -2.0977980736159489     
  0.11190000000000001         -2.1238278997572628     
  0.11220000000000001         -2.1164264350607231     
  0.11250000000000000         -2.0551106625458964     
  0.11280000000000000         -1.9253157104263621     
  0.11309999999999999         -1.7180166015630864     
  0.11340000000000001         -1.4320800127371316     
  0.11369999999999998         -1.0709637288403047     
  0.11400000000000000        -0.64264088431787614     
  0.11430000000000000        -0.15902272169665577     
  0.11460000000000002         0.36916844908291019     
  0.11489999999999999         0.92918703977904216     
  0.11520000000000001          1.5104571301156848     
  0.11550000000000001          2.1049692263444917     
  0.11580000000000000          2.7039918452035452     
  0.11609999999999999          3.3026861613831278     
  0.11640000000000002          3.8931669581115393     
  0.11670000000000001          4.4665121353714223     
  0.11700000000000001          5.0110239235312015     
  0.11730000000000000          5.5078567656937842     
  0.11760000000000000          5.9337286102447866     
  0.11789999999999999          6.2572411613431083     
  0.11820000000000001          6.4407166550979698     
  0.11850000000000001          6.4444345555577671     
  0.11880000000000000          6.2246455317247991     
  0.11910000000000000          5.7441295821383198     
  0.11940000000000002          4.9748377145767586     
  0.11970000000000001          3.9037606200404293     
  0.12000000000000001          2.5439335945234602     
  0.12030000000000000         0.93420819736476202     
  0.12060000000000000        -0.85253405281497285     
  0.12089999999999999         -2.7099978701377578     
  0.12119999999999999         -4.5037941526997569     
  0.12150000000000001         -6.0740403576842681     
  0.12180000000000001         -7.2519439999444977     
  0.12210000000000000         -7.8720578459133739     
  0.12239999999999999         -7.7901615451562662     
  0.12270000000000002         -6.9043621495151735     
  0.12300000000000001         -5.1682433769761253     
  0.12330000000000001         -2.6078374362024763     
  0.12360000000000000         0.67145761562644479     
  0.12390000000000000          4.4861516230769123     
  0.12419999999999999          8.5795153440552951     
  0.12450000000000001          12.639898147959340     
  0.12480000000000001          16.323577694575359     
  0.12509999999999999          19.282834795060317     
  0.12540000000000001          21.199313891883168     
  0.12570000000000003          21.814216388207090     
  0.12600000000000000          20.956847934231984     
  0.12630000000000002          18.564954578112719     
  0.12659999999999999          14.695958957298792     
  0.12690000000000001          9.5304345323069146     
  0.12719999999999998          3.3564000049326772     
  0.12750000000000000         -3.4433333225326566     
  0.12780000000000002         -10.428344587806528     
  0.12809999999999999         -17.131875782117167     
  0.12840000000000001         -23.094121661934608     
  0.12869999999999998         -27.907695449818309     
  0.12900000000000000         -31.240625027269264     
  0.12930000000000003         -32.862014401919630     
  0.12959999999999999         -32.663932435587355     
  0.12990000000000002         -30.655616419493903     
  0.13019999999999998         -26.967578589319750     
  0.13050000000000000         -21.835477587267739     
  0.13080000000000003         -15.574638195336888     
  0.13109999999999999         -8.5641259212997358     
  0.13140000000000002         -1.2096241598708870     
  0.13169999999999998          6.0789798984935040     
  0.13200000000000001          12.912811132263878     
  0.13229999999999997          18.950126432703382     
  0.13260000000000000          23.908120837697901     
  0.13290000000000002          27.578521415721820     
  0.13319999999999999          29.832824368590707     
  0.13350000000000001          30.621926914377351     
  0.13380000000000003          29.975789684642454     
  0.13410000000000000          27.993249577466941     
  0.13440000000000002          24.832969387213165     
  0.13469999999999999          20.700952300152011     
  0.13500000000000001          15.834261721784960     
  0.13529999999999998          10.488081822786139     
  0.13560000000000000          4.9202456036572606     
  0.13590000000000002        -0.62347964300396042     
  0.13619999999999999         -5.9205068704253643     
  0.13650000000000001         -10.780152180276710     
  0.13680000000000003         -15.051774788550746     
  0.13710000000000000         -18.628598935241051     
  0.13740000000000002         -21.444501613504308     
  0.13769999999999999         -23.476146411998677     
  0.13800000000000001         -24.733430563174295     
  0.13829999999999998         -25.255162889402023     
  0.13860000000000000         -25.101842580386840     
  0.13890000000000002         -24.344318100981173     
  0.13919999999999999         -23.061238970716218     
  0.13950000000000001         -21.331338632403529     
  0.13979999999999998         -19.227132573724457     
  0.14010000000000000         -16.818258091350891     
  0.14040000000000002         -14.163646536048471     
  0.14069999999999999         -11.318071237512692     
  0.14100000000000001         -8.3314951925406202     
  0.14130000000000004         -5.2485188881189417     
  0.14160000000000000         -2.1171603010669182     
  0.14189999999999997          1.0187839087102137     
  0.14219999999999999          4.1095642494245990     
  0.14250000000000002          7.1049899150769713     
  0.14279999999999998          9.9549559292656138     
  0.14310000000000000          12.605107149746461     
  0.14339999999999997          15.006035617100205     
  0.14369999999999999          17.110828184770572     
  0.14400000000000002          18.875613928712458     
  0.14429999999999998          20.268224459327385     
  0.14460000000000001          21.262233462912047     
  0.14490000000000003          21.841899591953378     
  0.14520000000000000          22.006242467470479     
  0.14550000000000002          21.759172156691900     
  0.14579999999999999          21.120206556653667     
  0.14610000000000001          20.117164346468698     
  0.14640000000000003          18.781818141573950     
  0.14670000000000000          17.157670746344650     
  0.14699999999999996          15.286105905365448     
  0.14729999999999999          13.211919608096165     
  0.14760000000000001          10.981616826566352     
  0.14789999999999998          8.6343086999570620     
  0.14820000000000000          6.2125701081106879     