  -1.4999999999999999E-002     0.0000000000000000     
  -1.4700000000000000E-002     8.2478319127652628E-009
  -1.4400000000000000E-002     4.8832355296740027E-008
  -1.4100000000000000E-002    -1.3287148950974813E-007
  -1.3800000000000000E-002    -3.2875726843772553E-007
  -1.3500000000000000E-002    -1.9825995395798745E-007
  -1.3200000000000000E-002     6.2555864032529494E-007
  -1.2899999999999998E-002     8.7404430619378347E-007
  -1.2600000000000000E-002     3.3573616990959971E-007
  -1.2299999999999998E-002    -1.8087021749852185E-006
  -1.2000000000000000E-002    -3.2182980548020708E-006
  -1.1699999999999999E-002    -2.5423755817226722E-006
  -1.1399999999999999E-002     1.2906332406301928E-006
  -1.1099999999999999E-002     4.6103944125943448E-006
  -1.0799999999999999E-002     7.0730163455285445E-006
  -1.0499999999999999E-002    -9.7032942767575904E-007
  -1.0199999999999999E-002    -1.0295264013363083E-005
  -9.8999999999999991E-003    -2.1191454649943040E-005
  -9.5999999999999992E-003    -1.9607451304865146E-005
  -9.2999999999999992E-003    -5.3030493094077650E-006
  -8.9999999999999993E-003     1.5701306061462494E-005
  -8.6999999999999994E-003     3.6201782390206327E-005
  -8.3999999999999995E-003     3.7976921751164867E-005
  -8.0999999999999996E-003     1.4830854352051658E-005
  -7.7999999999999988E-003    -2.1460889738694797E-005
  -7.4999999999999997E-003    -5.6116793855494832E-005
  -7.1999999999999998E-003    -9.5651739192527849E-005
  -6.8999999999999981E-003    -1.2622519492911210E-004
  -6.5999999999999982E-003    -1.5244362343839568E-004
  -6.3000000000000000E-003    -1.9558661629791372E-004
  -6.0000000000000001E-003    -2.9525726823842685E-004
  -5.6999999999999985E-003    -4.8293824550201361E-004
  -5.3999999999999986E-003    -8.7637474769410007E-004
  -5.1000000000000004E-003    -1.6021401154434410E-003
  -4.7999999999999987E-003    -2.8068432766037970E-003
  -4.5000000000000005E-003    -4.6475143689740026E-003
  -4.1999999999999989E-003    -7.4000631269044281E-003
  -3.8999999999999990E-003    -1.1407331214305429E-002
  -3.5999999999999990E-003    -1.7227579846425589E-002
  -3.2999999999999991E-003    -2.5606959073277952E-002
  -2.9999999999999992E-003    -3.7577205738016213E-002
  -2.6999999999999993E-003    -5.4401987903964368E-002
  -2.3999999999999994E-003    -7.7680311018112583E-002
  -2.0999999999999977E-003   -0.10954318171648378     
  -1.7999999999999995E-003   -0.15249415469580857     
  -1.4999999999999979E-003   -0.20976414183507047     
  -1.1999999999999997E-003   -0.28471335575346363     
  -8.9999999999999976E-004   -0.38164087932194551     
  -5.9999999999999810E-004   -0.50503926293153678     
  -2.9999999999999992E-004   -0.66014225311969654     
   0.0000000000000000        -0.85220704919724177     
   3.0000000000000165E-004    -1.0866178594052043     
   5.9999999999999984E-004    -1.3683187140945741     
   9.0000000000000149E-004    -1.7013737307737575     
   1.2000000000000031E-003    -2.0885607613271451     
   1.5000000000000013E-003    -2.5296733169440682     
   1.8000000000000030E-003    -3.0219026590950615     
   2.1000000000000012E-003    -3.5574090591005518     
   2.3999999999999994E-003    -4.1233986967522478     
   2.7000000000000010E-003    -4.6995925328059744     
   2.9999999999999992E-003    -5.2580579841760446     
   3.3000000000000008E-003    -5.7617104992260675     
   3.6000000000000025E-003    -6.1649113658799219     
   3.9000000000000007E-003    -6.4137210979767199     
   4.2000000000000023E-003    -6.4463613352543998     
   4.5000000000000005E-003    -6.1970839068655845     
   4.7999999999999987E-003    -5.5995447453667220     
   5.1000000000000004E-003    -4.5922432428402500     
   5.4000000000000020E-003    -3.1250125179815633     
   5.7000000000000037E-003    -1.1663235502532221     
   5.9999999999999984E-003     1.2896903822995784     
   6.3000000000000000E-003     4.2152050468054014     
   6.6000000000000017E-003     7.5440721919462890     
   6.9000000000000034E-003     11.168285027082005     
   7.2000000000000015E-003     14.937486118220301     
   7.5000000000000032E-003     18.663702502035811     
   7.8000000000000014E-003     22.129067233990263     
   8.0999999999999996E-003     25.098091237723807     
   8.4000000000000012E-003     27.334194534305407     
   8.7000000000000029E-003     28.617645977806909     
   9.0000000000000011E-003     28.765074291082133     
   9.2999999999999992E-003     27.648507975656877     
   9.6000000000000009E-003     25.210875328141171     
   9.8999999999999991E-003     21.475949237176501     
   1.0200000000000001E-002     16.555403097194898     
   1.0500000000000002E-002     10.642954479622109     
   1.0800000000000004E-002     4.0082072468311534     
   1.1099999999999999E-002    -3.0231055422958786     
   1.1400000000000000E-002    -10.088604610297988     
   1.1700000000000002E-002    -16.817321459335755     
   1.2000000000000004E-002    -22.854067619313604     
   1.2300000000000002E-002    -27.887383798682791     
   1.2600000000000000E-002    -31.669451676296227     
   1.2900000000000002E-002    -34.033161368967370     
   1.3200000000000000E-002    -34.903114001163800     
   1.3500000000000002E-002    -34.294498968030311     
   1.3800000000000003E-002    -32.311378595238729     
   1.4100000000000001E-002    -29.132965379746508     
   1.4400000000000000E-002    -24.997370223850581     
   1.4700000000000001E-002    -20.183147944820146     
   1.4999999999999999E-002    -14.985021481250264     
   1.5300000000000001E-002    -9.6980966851514339     
   1.5600000000000003E-002    -4.5927130821507873     
   1.5899999999999997E-002     9.3798219524381388E-002
   1.6199999999999999E-002     4.1750293348235914     
   1.6500000000000001E-002     7.5177595561017245     
   1.6800000000000002E-002     10.045976443659807     
   1.7100000000000004E-002     11.740431569057614     
   1.7400000000000006E-002     12.632241010719543     
   1.7700000000000000E-002     12.795283181049719     
   1.8000000000000002E-002     12.338390080215119     
   1.8300000000000004E-002     11.393289077751575     
   1.8600000000000005E-002     10.102772914818308     
   1.8900000000000000E-002     8.6158612008292188     
   1.9200000000000002E-002     7.0696312444850129     
   1.9500000000000003E-002     5.5901710225760661     
   1.9799999999999998E-002     4.2786080714981560     
   2.0100000000000000E-002     3.2120823209867160     
   2.0400000000000001E-002     2.4379405202512205     
   2.0700000000000003E-002     1.9744132296139556     
   2.0999999999999998E-002     1.8113171543959683     
   2.1299999999999999E-002     1.9136377021962678     
   2.1600000000000001E-002     2.2265057181577403     
   2.1900000000000003E-002     2.6779020660775976     
   2.2200000000000004E-002     3.1902630316166549     
   2.2500000000000006E-002     3.6809050494189499     
   2.2800000000000001E-002     4.0746263961894620     
   2.3100000000000002E-002     4.3057035567821274     
   2.3400000000000004E-002     4.3227927589025246     
   2.3699999999999999E-002     4.0968039951893349     
   2.4000000000000000E-002     3.6168766120803078     
   2.4300000000000002E-002     2.8972925300641474     
   2.4599999999999997E-002     1.9700654108371856     
   2.4900000000000005E-002    0.88711576452928953     
   2.5200000000000000E-002   -0.28737990535297131     
   2.5499999999999995E-002    -1.4793918255672167     
   2.5800000000000003E-002    -2.6143302375899693     
   2.6099999999999998E-002    -3.6184075220600542     
   2.6400000000000007E-002    -4.4291874927825861     
   2.6700000000000002E-002    -4.9952403344391749     
   2.6999999999999996E-002    -5.2850418128672212     
   2.7300000000000005E-002    -5.2840666948329389     
   2.7600000000000000E-002    -5.0001471169086891     
   2.7900000000000008E-002    -4.4590220656968551     
   2.8200000000000003E-002    -3.7041656988385681     
   2.8499999999999998E-002    -2.7924971465630142     
   2.8800000000000006E-002    -1.7899291954095440     
   2.9100000000000001E-002   -0.76702309929595192     
   2.9400000000000003E-002    0.20858442149144962     
   2.9700000000000004E-002     1.0730195682700465     
   3.0000000000000006E-002     1.7749550348216161     
   3.0300000000000001E-002     2.2753610930095860     
   3.0600000000000002E-002     2.5518633034314453     
   3.0900000000000004E-002     2.6005463134860012     
   3.1199999999999999E-002     2.4310533080775114     
   3.1500000000000007E-002     2.0717932075597063     
   3.1800000000000002E-002     1.5606987770635241     
   3.2099999999999997E-002    0.94647832686002431     
   3.2400000000000005E-002    0.28321102090279537     
   3.2700000000000000E-002   -0.37532142179713546     
   3.3000000000000002E-002   -0.97595262255571580     
   3.3300000000000003E-002    -1.4743845151700223     
   3.3599999999999998E-002    -1.8333198552057861     
   3.3900000000000000E-002    -2.0297492984917223     
   3.4200000000000001E-002    -2.0504259386894463     
   3.4500000000000003E-002    -1.8991097292542998     
   3.4799999999999998E-002    -1.5880803957723237     
   3.5099999999999999E-002    -1.1455131378134831     
   3.5400000000000001E-002   -0.60534579384884857     
   3.5699999999999996E-002    -9.5225000129224024E-003
   3.6000000000000004E-002    0.59749429272312005     
   3.6299999999999999E-002     1.1698914498572259     
   3.6600000000000008E-002     1.6679260239297302     
   3.6900000000000002E-002     2.0549352828656846     
   3.7199999999999997E-002     2.3059680220843370     
   3.7500000000000006E-002     2.4053131630198510     
   3.7800000000000000E-002     2.3482354845491007     
   3.8100000000000009E-002     2.1436450136300031     
   3.8400000000000004E-002     1.8082441819722375     
   3.8699999999999998E-002     1.3700049111662587     
   3.9000000000000007E-002    0.86141344482893811     
   3.9300000000000002E-002    0.31971927480601875     
   3.9600000000000003E-002   -0.21835797584383054     
   3.9900000000000005E-002   -0.71740955926208705     
   4.0200000000000000E-002    -1.1474087696271196     
   4.0500000000000001E-002    -1.4861296666426940     
   4.0800000000000003E-002    -1.7167542938903899     
   4.1100000000000005E-002    -1.8342748140404321     
   4.1399999999999999E-002    -1.8386233219097505     
   4.1700000000000008E-002    -1.7393752869567343     
   4.2000000000000003E-002    -1.5508282114057126     
   4.2299999999999997E-002    -1.2919642475646507     
   4.2600000000000006E-002   -0.98489783844179346     
   4.2900000000000001E-002   -0.65199803147673963     
   4.3200000000000002E-002   -0.31618745676324717     
   4.3500000000000004E-002     1.8226233109398249E-003
   4.3799999999999999E-002    0.28319928041023046     
   4.4100000000000000E-002    0.51268952429725556     
   4.4400000000000002E-002    0.67823787108980771     
   4.4700000000000004E-002    0.77180063352199357     
   4.4999999999999998E-002    0.79003394639915825     
   4.5300000000000000E-002    0.73352920047951298     
   4.5600000000000002E-002    0.60747544675087806     
   4.5899999999999996E-002    0.42287970281260034     
   4.6200000000000005E-002    0.19324441885216959     
   4.6500000000000000E-002    -6.2155936777487403E-002
   4.6799999999999994E-002   -0.32254424085742051     
   4.7100000000000003E-002   -0.56443901117216166     
   4.7399999999999998E-002   -0.76511645211283719     
   4.7700000000000006E-002   -0.90232605752959039     
   4.8000000000000001E-002   -0.96017255231872900     
   4.8300000000000010E-002   -0.92620469862024635     
   4.8600000000000004E-002   -0.79631494401332759     
   4.8899999999999999E-002   -0.57527515582812938     
   4.9200000000000008E-002   -0.27519054021264278     
   4.9500000000000002E-002     8.3116496890158903E-002
   4.9800000000000011E-002    0.47224765364388982     
   5.0100000000000006E-002    0.86211020319830267     
   5.0400000000000000E-002     1.2196186054947478     
   5.0700000000000009E-002     1.5149620859756485     
   5.1000000000000004E-002     1.7225137552172107     
   5.1299999999999998E-002     1.8248532019222790     
   5.1600000000000007E-002     1.8117725908747833     
   5.1900000000000002E-002     1.6859414545141902     
   5.2200000000000010E-002     1.4567267699458295     
   5.2500000000000005E-002     1.1445829249556332     
   5.2800000000000000E-002    0.77396868712432065     
   5.3099999999999994E-002    0.37511274054603572     
   5.3400000000000003E-002    -2.2824565480227710E-002
   5.3699999999999998E-002   -0.39162756828600093     
   5.4000000000000006E-002   -0.70752437582596683     
   5.4300000000000001E-002   -0.95375832065997712     
   5.4599999999999996E-002    -1.1190822487212153     
   5.4900000000000004E-002    -1.2011721437104614     
   5.5199999999999999E-002    -1.2024338038744418     
   5.5499999999999994E-002    -1.1322866678785362     
   5.5800000000000002E-002    -1.0019716529625899     
   5.6099999999999997E-002   -0.82691642371808327     
   5.6400000000000006E-002   -0.62154714665737343     
   5.6700000000000000E-002   -0.40012465945746745     
   5.6999999999999995E-002   -0.17684781139448319     
   5.7300000000000004E-002     3.8762890805780825E-002
   5.7599999999999998E-002    0.23573671655207684     
   5.7900000000000007E-002    0.40811268044716875     
   5.8200000000000002E-002    0.55024266795704946     
   5.8499999999999996E-002    0.65750246794250966     
   5.8800000000000005E-002    0.72852844373245462     
   5.9100000000000000E-002    0.76087428835554483     
   5.9400000000000008E-002    0.75616901353029886     
   5.9700000000000003E-002    0.71500068799186012     
   6.0000000000000012E-002    0.64130129019657300     
   6.0300000000000006E-002    0.53910843162338362     
   6.0600000000000001E-002    0.41510505180119589     
   6.0900000000000010E-002    0.27572492202962745     
   6.1200000000000004E-002    0.12795523801015185     
   6.1500000000000013E-002    -1.9402239425632933E-002
   6.1800000000000008E-002   -0.16033114173717261     
   6.2100000000000002E-002   -0.28831655250875188     
   6.2399999999999997E-002   -0.39775098992965685     
   6.2700000000000006E-002   -0.48630715519883705     
   6.3000000000000000E-002   -0.55047012125790062     
   6.3300000000000009E-002   -0.59098894127060164     
   6.3600000000000004E-002   -0.60708169827456993     
   6.3899999999999998E-002   -0.60128802680251869     
   6.4199999999999993E-002   -0.57512303490764727     
   6.4500000000000002E-002   -0.53186516832933761     
   6.4800000000000010E-002   -0.47511483480998007     
   6.5100000000000005E-002   -0.40747854029066966     
   6.5400000000000000E-002   -0.33440664434588757     
   6.5700000000000008E-002   -0.25823496887124991     
   6.5999999999999989E-002   -0.18458234610209961     
   6.6299999999999998E-002   -0.11715586908707593     
   6.6600000000000006E-002    -5.8726518469420605E-002
   6.6900000000000001E-002    -1.3672527752362631E-002
   6.7199999999999996E-002     1.7071703772417963E-002
   6.7500000000000004E-002     3.1327800258458882E-002
   6.7800000000000013E-002     3.0661565701736046E-002
   6.8099999999999994E-002     1.5578041877457340E-002
   6.8400000000000002E-002    -1.0038876904468658E-002
   6.8700000000000011E-002    -4.3008192805937623E-002
   6.8999999999999992E-002    -7.8919579676369020E-002
   6.9300000000000000E-002   -0.11237211895289997     
   6.9600000000000009E-002   -0.13934316584042622     
   6.9900000000000004E-002   -0.15564996979771265     
   7.0199999999999999E-002   -0.15855644886198481     
   7.0500000000000007E-002   -0.14627399503761146     
   7.0800000000000016E-002   -0.11802518316320024     
   7.1099999999999997E-002    -7.4617323675346556E-002
   7.1400000000000005E-002    -1.8104126516552327E-002
   7.1700000000000000E-002     4.8228856742652308E-002
   7.1999999999999995E-002    0.12095862556638748     
   7.2300000000000003E-002    0.19661898602939595     
   7.2600000000000012E-002    0.26919688509842504     
   7.2900000000000006E-002    0.33644551395642958     
   7.3200000000000001E-002    0.39299581637967229     
   7.3499999999999996E-002    0.43639717295873126     
   7.3800000000000004E-002    0.46388888162827402     
   7.4099999999999999E-002    0.47382184418927109     
   7.4400000000000008E-002    0.46597423104805080     
   7.4700000000000003E-002    0.44049877946021476     
   7.5000000000000011E-002    0.39919576202343876     
   7.5299999999999992E-002    0.34431953640868546     
   7.5600000000000001E-002    0.27926089001991306     
   7.5900000000000009E-002    0.20752191780748730     
   7.6200000000000004E-002    0.13333718033105690     
   7.6499999999999999E-002     6.0623065842599660E-002
   7.6800000000000007E-002    -7.0550968008096064E-003
   7.7099999999999988E-002    -6.6431618205439219E-002
   7.7399999999999997E-002   -0.11510366947139825     
   7.7700000000000005E-002   -0.15122894805962525     
   7.8000000000000014E-002   -0.17477429445405945     
   7.8299999999999995E-002   -0.18535773899610930     
   7.8600000000000003E-002   -0.18425028417863257     
   7.8900000000000012E-002   -0.17358448074926802     
   7.9199999999999993E-002   -0.15520879048227290     
   7.9500000000000001E-002   -0.13197136495746919     
   7.9800000000000010E-002   -0.10684490725390813     
   8.0100000000000018E-002    -8.1843789860465962E-002
   8.0399999999999999E-002    -5.9841047413558640E-002
   8.0700000000000008E-002    -4.2585309830065025E-002
   8.1000000000000003E-002    -3.1013587808215157E-002
   8.1299999999999997E-002    -2.6931361493055930E-002
   8.1600000000000006E-002    -2.9177475363150070E-002
   8.1900000000000014E-002    -3.8184529238475262E-002
   8.2199999999999995E-002    -5.2680120646357041E-002
   8.2500000000000004E-002    -7.1172240730002168E-002
   8.2799999999999999E-002    -9.1831977004729060E-002
   8.3100000000000007E-002   -0.11303474554351431     
   8.3400000000000002E-002   -0.13276341593508156     
   8.3700000000000011E-002   -0.14858691485960437     
   8.4000000000000005E-002   -0.16036171169302585     
   8.4300000000000000E-002   -0.16621939001427899     
   8.4599999999999995E-002   -0.16569903058271640     
   8.4900000000000003E-002   -0.15947475413842410     
   8.5199999999999998E-002   -0.14777364879461857     
   8.5500000000000007E-002   -0.13160444877271152     
   8.5800000000000001E-002   -0.11289095306645014     
   8.6100000000000010E-002    -9.2455784221438755E-002
   8.6399999999999991E-002    -7.2107372397581831E-002
   8.6699999999999999E-002    -5.2882687166018780E-002
   8.7000000000000008E-002    -3.5843951733554327E-002
   8.7300000000000003E-002    -2.0891101744090965E-002
   8.7599999999999997E-002    -8.7826905162607348E-003
   8.7900000000000006E-002     1.7245264294262906E-003
   8.8200000000000014E-002     1.0623072321314254E-002
   8.8499999999999995E-002     1.8781044813074264E-002
   8.8800000000000004E-002     2.7765547094739072E-002
   8.9100000000000013E-002     3.6494832758285856E-002
   8.9399999999999993E-002     4.6838835192713299E-002
   8.9700000000000002E-002     5.7114858445811767E-002
   9.0000000000000011E-002     6.7856044395476919E-002
   9.0299999999999991E-002     7.7844063058018192E-002
   9.0600000000000000E-002     8.6434159007077238E-002
   9.0900000000000009E-002     9.2889219659788941E-002
   9.1200000000000017E-002     9.6675870989051588E-002
   9.1499999999999998E-002     9.7888099914321874E-002
   9.1800000000000007E-002     9.6048958188424030E-002
   9.2100000000000001E-002     9.2684763517130050E-002
   9.2399999999999996E-002     8.7076231395974396E-002
   9.2700000000000005E-002     8.1573067453107495E-002
   9.3000000000000013E-002     7.6166600043260230E-002
   9.3300000000000008E-002     7.1556209451700714E-002
   9.3600000000000003E-002     6.8137300167425530E-002
   9.3899999999999997E-002     6.6512297532180242E-002
   9.4200000000000006E-002     6.5702677922530525E-002
   9.4500000000000001E-002     6.6246529205533755E-002
   9.4800000000000009E-002     6.6609492184196137E-002
   9.5100000000000004E-002     6.6646851897423157E-002
   9.5399999999999999E-002     6.5351590948074884E-002
   9.5699999999999993E-002     6.2231167204975790E-002
   9.6000000000000002E-002     5.6735408842561563E-002
   9.6300000000000011E-002     4.8135461333892168E-002
   9.6600000000000005E-002     3.6988173040293171E-002
   9.6900000000000000E-002     2.2473292456973291E-002
   9.7200000000000009E-002     5.3358916079401476E-003
   9.7499999999999989E-002    -1.4241455338924687E-002
   9.7799999999999998E-002    -3.4934827489644674E-002
   9.8100000000000007E-002    -5.6390993468343475E-002
   9.8400000000000015E-002    -7.6820643792013726E-002
   9.8699999999999996E-002    -9.5001604444069326E-002
   9.9000000000000005E-002   -0.10958572423962681     
   9.9300000000000013E-002   -0.11850716579432263     
   9.9599999999999994E-002   -0.12130688154496222     
   9.9900000000000003E-002   -0.11685370463907435     
  0.10020000000000001        -0.10434857943343701     
  0.10049999999999999         -8.4945743730518594E-002
  0.10080000000000000         -5.8863786325228137E-002
  0.10110000000000001         -2.8396461868807100E-002
  0.10140000000000000          5.5314512231916706E-003
  0.10170000000000000          3.9275396717499855E-002
  0.10200000000000001          7.1507406096883996E-002
  0.10230000000000002          9.8897838873244326E-002
  0.10260000000000000         0.11995101823920901     
  0.10290000000000001         0.13251134149755436     
  0.10320000000000000         0.13553513115487895     
  0.10350000000000001         0.12797619758758141     
  0.10380000000000000         0.10951954288538734     
  0.10410000000000001          8.0703153020595511E-002
  0.10440000000000001          4.2005948131532370E-002
  0.10470000000000000         -4.7566303986811588E-003
  0.10500000000000000         -5.8284022170924529E-002
  0.10530000000000000        -0.11581909144823824     
  0.10560000000000000        -0.17463936643255704     
  0.10590000000000001        -0.23182683786493752     
  0.10620000000000000        -0.28334108083157783     
  0.10650000000000001        -0.32633800610022523     
  0.10679999999999999        -0.35693990190106217     
  0.10710000000000000        -0.37261869488293853     
  0.10740000000000001        -0.37047679890198515     
  0.10770000000000000        -0.35005504941733151     
  0.10800000000000000        -0.30994357127836647     
  0.10830000000000001        -0.25194219414006269     
  0.10859999999999999        -0.17692669406799122     
  0.10890000000000000         -8.8702271981740771E-002
  0.10920000000000001          9.5537760400161223E-003
  0.10950000000000001         0.11350008527743824     
  0.10979999999999999         0.21841860375962599     
  0.11009999999999999         0.31975469533180212     
  0.11040000000000001         0.41310403149374425     
  0.11070000000000001         0.49479121180964680     
  0.11100000000000000         0.56055473250509180     
  0.11130000000000000         0.60933479555952696     
  0.11160000000000002         0.63750471736835990     
  0.11190000000000001         0.64623834703209626     
  0.11220000000000001         0.63354331795391772     
  0.11250000000000000         0.60218077823242888     
  0.11280000000000000         0.55221805800711055     
  0.11309999999999999         0.48790965472606396     
  0.11340000000000001         0.41073340683491955     
  0.11369999999999998         0.32577029106972777     
  0.11400000000000000         0.23531557664355462     
  0.11430000000000000         0.14454261566615662     
  0.11460000000000002          5.6032743453485488E-002
  0.11489999999999999         -2.6624550079074764E-002
  0.11520000000000001        -0.10102243202182207     
  0.11550000000000001        -0.16557609651893795     
  0.11580000000000000        -0.21917223762026006     
  0.11609999999999999        -0.26152052631208927     
  0.11640000000000002        -0.29366838220539460     
  0.11670000000000001        -0.31593759423153328     
  0.11700000000000001        -0.33007264700509908     
  0.11730000000000000        -0.33815684308991589     
  0.11760000000000000        -0.34131725131958690     
  0.11789999999999999        -0.34158308973130908     
  0.11820000000000001        -0.34038782488896535     
  0.11850000000000001        -0.33901787246881454     
  0.11880000000000000        -0.33846573438282251     
  0.11910000000000000        -0.33961283911423956     
  0.11940000000000002        -0.34230963603533193     
  0.11970000000000001        -0.34731284875897106     
  0.12000000000000001        -0.35349311895808055     
  0.12030000000000000        -0.36087379797560082     
  0.12060000000000000        -0.36813040042414813     
  0.12089999999999999        -0.37410455363127904     
  0.12119999999999999        -0.37767672789451195     
  0.12150000000000001        -0.37750204910245561     
  0.12180000000000001        -0.37237731618529818     
  0.12210000000000000        -0.36197526217984743     
  0.12239999999999999        -0.34483457457686395     
  0.12270000000000002        -0.32215619676997753     
  0.12300000000000001        -0.29359712672397037     
  0.12330000000000001        -0.26072777324652419     
  0.12360000000000000        -0.22407013154454369     
  0.12390000000000000        -0.18675977525909757     
  0.12419999999999999        -0.14802352106974118     
  0.12450000000000001        -0.11171396489090397     
  0.12480000000000001         -7.7191725854240223E-002
  0.12509999999999999         -4.6273895067109397E-002
  0.12540000000000001         -1.8128808553290771E-002
  0.12570000000000003          6.1100201606678166E-003
  0.12600000000000000          2.8726423351708691E-002
  0.12630000000000002          4.9596735792616115E-002
  0.12659999999999999          7.0530466414757159E-002
  0.12690000000000001          9.2355870876418056E-002
  0.12719999999999998         0.11639154413418623     
  0.12750000000000000         0.14268902519460988     
  0.12780000000000002         0.17234510358724406     
  0.12809999999999999         0.20429875314972995     
  0.12840000000000001         0.23851713552807319     
  0.12869999999999998         0.27345056945710045     
  0.12900000000000000         0.30831552359334369     
  0.12930000000000003         0.34094667502062864     
  0.12959999999999999         0.37042331326422029     
  0.12990000000000002         0.39488237290325434     
  0.13019999999999998         0.41347559759910169     
  0.13050000000000000         0.42551082016904068     
  0.13080000000000003         0.43004201843988310     
  0.13109999999999999         0.42863490068083027     
  0.13140000000000002         0.42037648017839979     
  0.13169999999999998         0.40844551757969244     
  0.13200000000000001         0.39203184180096556     
  0.13229999999999997         0.37506540553477663     
  0.13260000000000000         0.35699687584673145     
  0.13290000000000002         0.34134396975093162     
  0.13319999999999999         0.32692762897874761     
  0.13350000000000001         0.31644099861052621     
  0.13380000000000003         0.30789345908870763     
  0.13410000000000000         0.30218545023673060     
  0.13440000000000002         0.29688502676241058     
  0.13469999999999999         0.29141694084254310     
  0.13500000000000001         0.28299656805226098     
  0.13529999999999998         0.27100558234830530     
  0.13560000000000000         0.25249919477824312     
  0.13590000000000002         0.22804250031639001     
  0.13619999999999999         0.19547604518707737     
  0.13650000000000001         0.15641509972068651     
  0.13680000000000003         0.11091714844947904     
  0.13710000000000000          6.1153607141214539E-002
  0.13740000000000002          8.7778572941160787E-003
  0.13769999999999999         -4.3310996545491087E-002
  0.13800000000000001         -9.2874801055244122E-002
  0.13829999999999998        -0.13791386734456207     
  0.13860000000000000        -0.17551138646634196     
  0.13890000000000002        -0.20489380234914167     
  0.13919999999999999        -0.22454984050801535     
  0.13950000000000001        -0.23423171397686238     
  0.13979999999999998        -0.23412663190722349     
  0.14010000000000000        -0.22475235113208225     
  0.14040000000000002        -0.20755164966478110     
  0.14069999999999999        -0.18339785422899932     
  0.14100000000000001        -0.15469353275297926     
  0.14130000000000004        -0.12271560409507540     
  0.14160000000000000         -8.9529515806766796E-002
  0.14189999999999997         -5.7151113257880422E-002
  0.14219999999999999         -2.7048295893235395E-002
  0.14250000000000002         -1.1386266410757296E-003
  0.14279999999999998          1.9840984944167354E-002
  0.14310000000000000          3.4543938427372821E-002
  0.14339999999999997          4.2982605203781034E-002
  0.14369999999999999          4.3861427146641055E-002
  0.14400000000000002          3.9274893816898901E-002
  0.14429999999999998          2.8431246557670473E-002
  0.14460000000000001          1.3681017968671761E-002
  0.14490000000000003         -5.0205946890682857E-003
  0.14520000000000000         -2.5054310247080457E-002
  0.14550000000000002         -4.7078589573496837E-002
  0.14579999999999999         -6.7538585596061212E-002
  0.14610000000000001         -8.8570824933028397E-002
  0.14640000000000003        -0.10719903551333240     
  0.14670000000000000        -0.12546742783845488     
  0.14699999999999996        -0.14156565531891063     
  0.14729999999999999        -0.15722106599183258     
  0.14760000000000001        -0.17120050930579855     
  0.14789999999999998        -0.18477954216170628     
  0.14820000000000000        -0.19679852444710499     