  -1.4999999999999999E-002     0.0000000000000000     
  -1.4700000000000000E-002     0.0000000000000000     
  -1.4400000000000000E-002     0.0000000000000000     
  -1.4100000000000000E-002     0.0000000000000000     
  -1.3800000000000000E-002     0.0000000000000000     
  -1.3500000000000000E-002     0.0000000000000000     
  -1.3200000000000000E-002     0.0000000000000000     
  -1.2899999999999998E-002     0.0000000000000000     
  -1.2600000000000000E-002     0.0000000000000000     
  -1.2299999999999998E-002     0.0000000000000000     
  -1.2000000000000000E-002     0.0000000000000000     
  -1.1699999999999999E-002     0.0000000000000000     
  -1.1399999999999999E-002     0.0000000000000000     
  -1.1099999999999999E-002     0.0000000000000000     
  -1.0799999999999999E-002     0.0000000000000000     
  -1.0499999999999999E-002     0.0000000000000000     
  -1.0199999999999999E-002     0.0000000000000000     
  -9.8999999999999991E-003     0.0000000000000000     
  -9.5999999999999992E-003     0.0000000000000000     
  -9.2999999999999992E-003     0.0000000000000000     
  -8.9999999999999993E-003     0.0000000000000000     
  -8.6999999999999994E-003     0.0000000000000000     
  -8.3999999999999995E-003     0.0000000000000000     
  -8.0999999999999996E-003     0.0000000000000000     
  -7.7999999999999988E-003     0.0000000000000000     
  -7.4999999999999997E-003     0.0000000000000000     
  -7.1999999999999998E-003     0.0000000000000000     
  -6.8999999999999981E-003     0.0000000000000000     
  -6.5999999999999982E-003     0.0000000000000000     
  -6.3000000000000000E-003     0.0000000000000000     
  -6.0000000000000001E-003     0.0000000000000000     
  -5.6999999999999985E-003     0.0000000000000000     
  -5.3999999999999986E-003     0.0000000000000000     
  -5.1000000000000004E-003    -1.9667566151826269E-035
  -4.7999999999999987E-003     1.2636830628672697E-035
  -4.5000000000000005E-003     9.9478859701916809E-035
  -4.1999999999999989E-003     1.0657964645365707E-035
  -3.8999999999999990E-003    -4.2503007463588642E-034
  -3.5999999999999990E-003    -1.2959228006862151E-033
  -3.2999999999999991E-003     1.0649903780498777E-032
  -2.9999999999999992E-003    -1.0945159244670839E-032
  -2.6999999999999993E-003    -3.1448963631546667E-032
  -2.3999999999999994E-003    -1.8898132367728481E-032
  -2.0999999999999977E-003     3.8500734810207509E-031
  -1.7999999999999995E-003    -5.3177124789812628E-031
  -1.4999999999999979E-003    -8.3933404191789041E-031
  -1.1999999999999997E-003     4.7206516955692525E-030
  -8.9999999999999976E-004    -1.1579207524947939E-029
  -5.9999999999999810E-004     1.1527480426708847E-029
  -2.9999999999999992E-004     2.3302855778352784E-029
   0.0000000000000000         -6.8588888467414507E-029
   3.0000000000000165E-004    -4.5481469511316440E-030
   5.9999999999999984E-004     1.4340562064409755E-028
   9.0000000000000149E-004     1.6833082736290225E-028
   1.2000000000000031E-003    -1.3170574371503570E-027
   1.5000000000000013E-003     2.2577923897770170E-027
   1.8000000000000030E-003     1.4504612070474365E-027
   2.1000000000000012E-003    -1.5875568774623357E-026
   2.3999999999999994E-003     2.7866324117619472E-026
   2.7000000000000010E-003     1.6695535798924973E-026
   2.9999999999999992E-003    -1.4706026691447730E-025
   3.3000000000000008E-003     2.0646476120825878E-025
   3.6000000000000025E-003     1.8000859532219403E-025
   3.9000000000000007E-003    -1.1661583112092117E-024
   4.2000000000000023E-003     1.5912255722526580E-024
   4.5000000000000005E-003     1.4796529104910787E-024
   4.7999999999999987E-003    -8.8162725962718090E-024
   5.1000000000000004E-003     1.0890965057277634E-023
   5.4000000000000020E-003     1.0953747139811758E-023
   5.7000000000000037E-003    -5.7444227636655804E-023
   5.9999999999999984E-003     6.8978750680340195E-023
   6.3000000000000000E-003     6.5583081360663332E-023
   6.6000000000000017E-003    -3.4747786336626334E-022
   6.9000000000000034E-003     4.1381453317072533E-022
   7.2000000000000015E-003     3.5742058349767503E-022
   7.5000000000000032E-003    -1.9156356387882450E-021
   7.8000000000000014E-003     2.3068468680157619E-021
   8.0999999999999996E-003     1.7928332012095060E-021
   8.4000000000000012E-003    -1.0298542690681692E-020
   8.7000000000000029E-003     1.2417361187930638E-020
   9.0000000000000011E-003     1.0833170155158225E-020
   9.2999999999999992E-003    -5.7924635958097757E-020
   9.6000000000000009E-003     6.4580132133873065E-020
   9.8999999999999991E-003     7.6046553431314414E-020
   1.0200000000000001E-002    -3.3723766887025891E-019
   1.0500000000000002E-002     3.2427306381604887E-019
   1.0800000000000004E-002     5.2934080178048978E-019
   1.1099999999999999E-002    -1.8898651900077039E-018
   1.1400000000000000E-002     1.4762892620161077E-018
   1.1700000000000002E-002     3.2696068083162074E-018
   1.2000000000000004E-002    -9.5662514553785292E-018
   1.2300000000000002E-002     5.8141295596502404E-018
   1.2600000000000000E-002     1.7513761538638314E-017
   1.2900000000000002E-002    -4.2654645051280127E-017
   1.3200000000000000E-002     1.8579033459354833E-017
   1.3500000000000002E-002     8.1265851830900328E-017
   1.3800000000000003E-002    -1.6562706792277092E-016
   1.4100000000000001E-002     4.3581257847694252E-017
   1.4400000000000000E-002     3.2691536573222034E-016
   1.4700000000000001E-002    -5.5941805912477922E-016
   1.4999999999999999E-002     4.9706237518891583E-017
   1.5300000000000001E-002     1.1408080386709745E-015
   1.5600000000000003E-002    -1.6484165954973213E-015
   1.5899999999999997E-002    -1.2729397283325667E-016
   1.6199999999999999E-002     3.4564815128708161E-015
   1.6500000000000001E-002    -4.3121534161797721E-015
   1.6800000000000002E-002    -8.9897021802940342E-016
   1.7100000000000004E-002     9.1960607776066596E-015
   1.7400000000000006E-002    -1.0459280130378510E-014
   1.7700000000000000E-002    -2.7323272368228569E-015
   1.8000000000000002E-002     2.2343064493958957E-014
   1.8300000000000004E-002    -2.5061456199197545E-014
   1.8600000000000005E-002    -6.2900439398182907E-015
   1.8900000000000000E-002     5.2933512835461134E-014
   1.9200000000000002E-002    -5.7099028765874246E-014
   1.9500000000000003E-002    -1.9577498887247255E-014
   1.9799999999999998E-002     1.1066341443888416E-013
   2.0100000000000000E-002    -8.4478863322622836E-014
   2.0400000000000001E-002    -2.5269254165115297E-014
   2.0700000000000003E-002     8.4480617457658443E-015
   2.0999999999999998E-002    -1.0011595527395685E-013
   2.1299999999999999E-002     9.1135194937775224E-013
   2.1600000000000001E-002    -8.3590946879523050E-013
   2.1900000000000003E-002    -3.7937717282644853E-012
   2.2200000000000004E-002     6.6960707595186850E-012
   2.2500000000000006E-002     1.1135296694774037E-011
   2.2800000000000001E-002    -3.0709823184060803E-011
   2.3100000000000002E-002    -2.9530254069003056E-011
   2.3400000000000004E-002     1.1875933437800676E-010
   2.3699999999999999E-002     6.9660332040774582E-011
   2.4000000000000000E-002    -4.0404712869541623E-010
   2.4300000000000002E-002    -1.4294551479413569E-010
   2.4599999999999997E-002     1.2090671963176479E-009
   2.4900000000000005E-002     2.5569975168898579E-010
   2.5200000000000000E-002    -3.2842609839265104E-009
   2.5499999999999995E-002     1.6769161928964249E-010
   2.5800000000000003E-002     8.2049111806033106E-009
   2.6099999999999998E-002    -7.7497607266133994E-009
   2.6400000000000007E-002    -1.8291533086033142E-008
   2.6700000000000002E-002     6.1553524663930514E-008
   2.6999999999999996E-002     2.9633688594905443E-008
   2.7300000000000005E-002    -3.7285399309146446E-007
   2.7600000000000000E-002    -5.3013031594742005E-009
   2.7900000000000008E-002     3.3340504488250425E-006
   2.8200000000000003E-002     9.4659972654499145E-006
   2.8499999999999998E-002     1.6259660799989076E-005
   2.8800000000000006E-002     2.5504447043733678E-005
   2.9100000000000001E-002     4.1484738308617522E-005
   2.9400000000000003E-002     6.2032799538236160E-005
   2.9700000000000004E-002     8.3756255266655459E-005
   3.0000000000000006E-002     1.1935436533713593E-004
   3.0300000000000001E-002     1.9065036099412226E-004
   3.0600000000000002E-002     3.0075520188877142E-004
   3.0900000000000004E-002     4.4104180638480125E-004
   3.1199999999999999E-002     6.2686181914548705E-004
   3.1500000000000007E-002     8.9033565423873526E-004
   3.1800000000000002E-002     1.2488487468888488E-003
   3.2099999999999997E-002     1.7222714459369259E-003
   3.2400000000000005E-002     2.3513208254249580E-003
   3.2700000000000000E-002     3.1616958009162313E-003
   3.3000000000000002E-002     4.1557057029897584E-003
   3.3300000000000003E-002     5.3517502060368097E-003
   3.3599999999999998E-002     6.7694685751092274E-003
   3.3900000000000000E-002     8.3781630211795365E-003
   3.4200000000000001E-002     1.0103258354229063E-002
   3.4500000000000003E-002     1.1851625575887684E-002
   3.4799999999999998E-002     1.3486684367593905E-002
   3.5099999999999999E-002     1.4787978567692688E-002
   3.5400000000000001E-002     1.5463389535549148E-002
   3.5699999999999996E-002     1.5188442622005740E-002
   3.6000000000000004E-002     1.3586603177323821E-002
   3.6299999999999999E-002     1.0212948602888301E-002
   3.6600000000000008E-002     4.6318155087371627E-003
   3.6900000000000002E-002    -3.5138721669289398E-003
   3.7199999999999997E-002    -1.4471510488569223E-002
   3.7500000000000006E-002    -2.8302336244219406E-002
   3.7800000000000000E-002    -4.4776492036361804E-002
   3.8100000000000009E-002    -6.3299812686592294E-002
   3.8400000000000004E-002    -8.2870997899355758E-002
   3.8699999999999998E-002   -0.10201621851678010     
   3.9000000000000007E-002   -0.11874181091998476     
   3.9300000000000002E-002   -0.13060854441466621     
   3.9600000000000003E-002   -0.13486726650450750     
   3.9900000000000005E-002   -0.12857686048410921     
   4.0200000000000000E-002   -0.10880717690011453     
   4.0500000000000001E-002    -7.2965912878758477E-002
   4.0800000000000003E-002    -1.9119136105035031E-002
   4.1100000000000005E-002     5.3724266910890488E-002
   4.1399999999999999E-002    0.14526102028680352     
   4.1700000000000008E-002    0.25362873218231141     
   4.2000000000000003E-002    0.37529456822780510     
   4.2299999999999997E-002    0.50503349582912738     
   4.2600000000000006E-002    0.63604140632637685     
   4.2900000000000001E-002    0.76021719398601317     
   4.3200000000000002E-002    0.86863756659959102     
   4.3500000000000004E-002    0.95217717220642617     
   4.3799999999999999E-002     1.0021579321081149     
   4.4100000000000000E-002     1.0110564287914265     
   4.4400000000000002E-002    0.97327995839587589     
   4.4700000000000004E-002    0.88566887869297395     
   4.4999999999999998E-002    0.74795377668356366     
   4.5300000000000000E-002    0.56289869856852859     
   4.5600000000000002E-002    0.33630106036015311     
   4.5899999999999996E-002     7.6667406042145003E-002
   4.6200000000000005E-002   -0.20537366093813730     
   4.6500000000000000E-002   -0.49785140441121545     
   4.6799999999999994E-002   -0.78810799568439760     
   4.7100000000000003E-002    -1.0638836682339052     
   4.7399999999999998E-002    -1.3140264823485985     
   4.7700000000000006E-002    -1.5289613094407792     
   4.8000000000000001E-002    -1.7014087534043567     
   4.8300000000000010E-002    -1.8264752728693023     
   4.8600000000000004E-002    -1.9014864074329199     
   4.8899999999999999E-002    -1.9260343420936692     
   4.9200000000000008E-002    -1.9011751519658522     
   4.9500000000000002E-002    -1.8292414052448065     
   4.9800000000000011E-002    -1.7135377026366567     
   5.0100000000000006E-002    -1.5574060766240096     
   5.0400000000000000E-002    -1.3644932585922074     
   5.0700000000000009E-002    -1.1387356584898558     
   5.1000000000000004E-002   -0.88376534501148152     
   5.1299999999999998E-002   -0.60391593345273786     
   5.1600000000000007E-002   -0.30429938637970927     
   5.1900000000000002E-002     9.2788391182192457E-003
   5.2200000000000010E-002    0.32937532805112518     
   5.2500000000000005E-002    0.64740014394369594     
   5.2800000000000000E-002    0.95343113432225612     
   5.3099999999999994E-002     1.2363514964875317     
   5.3400000000000003E-002     1.4849988301010784     
   5.3699999999999998E-002     1.6883050294017761     
   5.4000000000000006E-002     1.8362387518550858     
   5.4300000000000001E-002     1.9211424694547539     
   5.4599999999999996E-002     1.9379595625721924     
   5.4900000000000004E-002     1.8855240451011357     
   5.5199999999999999E-002     1.7665555577921437     
   5.5499999999999994E-002     1.5879139992823379     
   5.5800000000000002E-002     1.3606051288139993     
   5.6099999999999997E-002     1.0985965797305635     
   5.6400000000000006E-002    0.81828892778770290     
   5.6700000000000000E-002    0.53746211932076504     
   5.6999999999999995E-002    0.27301672369394636     
   5.7300000000000004E-002     4.0567027029005193E-002
   5.7599999999999998E-002   -0.14735287382997878     
   5.7900000000000007E-002   -0.28312593728390434     
   5.8200000000000002E-002   -0.36323767980795785     
   5.8499999999999996E-002   -0.38951158633479183     
   5.8800000000000005E-002   -0.36954152695626730     
   5.9100000000000000E-002   -0.31413504583434604     
   5.9400000000000008E-002   -0.23776565576524231     
   5.9700000000000003E-002   -0.15671016335624186     
   6.0000000000000012E-002    -8.6506531099997411E-002
   6.0300000000000006E-002    -4.1523017417717356E-002
   6.0600000000000001E-002    -3.2818198734652637E-002
   6.0900000000000010E-002    -6.6500359146187460E-002
   6.1200000000000004E-002   -0.14422018963118824     
   6.1500000000000013E-002   -0.26190021836910221     
   6.1800000000000008E-002   -0.41042697712591714     
   6.2100000000000002E-002   -0.57691574464766837     
   6.2399999999999997E-002   -0.74561131449119844     
   6.2700000000000006E-002   -0.89942271040020205     
   6.3000000000000000E-002    -1.0220338163958731     
   6.3300000000000009E-002    -1.0991156162081372     
   6.3600000000000004E-002    -1.1197707714438214     
   6.3899999999999998E-002    -1.0778486787542829     
   6.4199999999999993E-002   -0.97199649150868195     
   6.4500000000000002E-002   -0.80607504104839656     
   6.4800000000000010E-002   -0.58894950500615062     
   6.5100000000000005E-002   -0.33324578632462998     
   6.5400000000000000E-002    -5.4598108962511098E-002
   6.5700000000000008E-002    0.22971649494002661     
   6.5999999999999989E-002    0.50234019906773908     
   6.6299999999999998E-002    0.74667877217581025     
   6.6600000000000006E-002    0.94784045572687359     
   6.6900000000000001E-002     1.0946936649999093     
   6.7199999999999996E-002     1.1790510463517012     
   6.7500000000000004E-002     1.1963381817553143     
   6.7800000000000013E-002     1.1462523987658080     
   6.8099999999999994E-002     1.0317641544963723     
   6.8400000000000002E-002    0.85888004744820623     
   6.8700000000000011E-002    0.63672215123703579     
   6.8999999999999992E-002    0.37607437666977089     
   6.9300000000000000E-002     8.9580351580418952E-002
   6.9600000000000009E-002   -0.20896567325265872     
   6.9900000000000004E-002   -0.50549089956794524     
   7.0199999999999999E-002   -0.78530806486383442     
   7.0500000000000007E-002    -1.0342794689144434     
   7.0800000000000016E-002    -1.2390873477997522     
   7.1099999999999997E-002    -1.3870539723616131     
   7.1400000000000005E-002    -1.4679578611574102     
   7.1700000000000000E-002    -1.4736679868868010     
   7.1999999999999995E-002    -1.3988583168449651     
   7.2300000000000003E-002    -1.2423826536070608     
   7.2600000000000012E-002    -1.0072480514790807     
   7.2900000000000006E-002   -0.70082057166359035     
   7.3200000000000001E-002   -0.33564910782365082     
   7.3499999999999996E-002     7.1486008211768814E-002
   7.3800000000000004E-002    0.49985465343670910     
   7.4099999999999999E-002    0.92596060226694310     
   7.4400000000000008E-002     1.3249446198585335     
   7.4700000000000003E-002     1.6722521851707897     
   7.5000000000000011E-002     1.9453377816081057     
   7.5299999999999992E-002     2.1259763351607619     
   7.5600000000000001E-002     2.2013437871912092     
   7.5900000000000009E-002     2.1655898225183776     
   7.6200000000000004E-002     2.0206430089806240     
   7.6499999999999999E-002     1.7763867503472777     
   7.6800000000000007E-002     1.4496996515819456     
   7.7099999999999988E-002     1.0638282394521368     
   7.7399999999999997E-002    0.64629179979192686     
   7.7700000000000005E-002    0.22695100806838844     
   7.8000000000000014E-002   -0.16490432370593097     
   7.8299999999999995E-002   -0.50253069395056205     
   7.8600000000000003E-002   -0.76444030026000032     
   7.8900000000000012E-002   -0.93614715745837684     
   7.9199999999999993E-002    -1.0115670021346945     
   7.9500000000000001E-002   -0.99387860956733876     
   7.9800000000000010E-002   -0.89555145021721849     
   8.0100000000000018E-002   -0.73689687973518991     
   8.0399999999999999E-002   -0.54527658918755184     
   8.0700000000000008E-002   -0.35235718532737842     
   8.1000000000000003E-002   -0.19135262646388729     
   8.1299999999999997E-002    -9.4286536290611303E-002
   8.1600000000000006E-002    -8.8202481067444952E-002
   8.1900000000000014E-002   -0.19308434861449747     
   8.2199999999999995E-002   -0.41905603260402607     
   8.2500000000000004E-002   -0.76397163182527250     
   8.2799999999999999E-002    -1.2136886180679014     
   8.3100000000000007E-002    -1.7414140776144083     
   8.3400000000000002E-002    -2.3094093891632337     
   8.3700000000000011E-002    -2.8718900790982285     
   8.4000000000000005E-002    -3.3775582441773362     
   8.4300000000000000E-002    -3.7743854666449095     
   8.4599999999999995E-002    -4.0143413697579691     
   8.4900000000000003E-002    -4.0575456776793475     
   8.5199999999999998E-002    -3.8768885287992068     
   8.5500000000000007E-002    -3.4607153076306245     
   8.5800000000000001E-002    -2.8148582094680368     
   8.6100000000000010E-002    -1.9640138227798061     
   8.6399999999999991E-002   -0.94872433307391346     
   8.6699999999999999E-002    0.17558786397779444     
   8.7000000000000008E-002     1.3441532915287806     
   8.7300000000000003E-002     2.4881792186000857     
   8.7599999999999997E-002     3.5390341449509886     
   8.7900000000000006E-002     4.4357423994759859     
   8.8200000000000014E-002     5.1297478923711157     
   8.8499999999999995E-002     5.5871997153614146     
   8.8800000000000004E-002     5.7932501127630234     
   8.9100000000000013E-002     5.7519059471295133     
   8.9399999999999993E-002     5.4837618155592605     
   8.9700000000000002E-002     5.0256438517444684     
   9.0000000000000011E-002     4.4241876836124900     
   9.0299999999999991E-002     3.7320804797012013     
   9.0600000000000000E-002     3.0046067401612198     
   9.0900000000000009E-002     2.2923681861333765     
   9.1200000000000017E-002     1.6391462177048433     
   9.1499999999999998E-002     1.0800339039269007     
   9.1800000000000007E-002    0.63766801627626013     
   9.2100000000000001E-002    0.32316309263491472     
   9.2399999999999996E-002    0.13797323290140345     
   9.2700000000000005E-002     7.2942694408372297E-002
   9.3000000000000013E-002    0.11157940084650401     
   9.3300000000000008E-002    0.23248316126641941     
   9.3600000000000003E-002    0.41104054298233117     
   9.3899999999999997E-002    0.62022411778965736     
   9.4200000000000006E-002    0.83339148839936528     
   9.4500000000000001E-002     1.0243886730808867     
   9.4800000000000009E-002     1.1690740619774111     
   9.5100000000000004E-002     1.2455905720733289     
   9.5399999999999999E-002     1.2349426797944014     
   9.5699999999999993E-002     1.1227250152101991     
   9.6000000000000002E-002    0.89948171861397286     
   9.6300000000000011E-002    0.56146389615598702     
   9.6600000000000005E-002    0.11220565615394609     
   9.6900000000000000E-002   -0.43776324466847999     
   9.7200000000000009E-002    -1.0689430276316882     
   9.7499999999999989E-002    -1.7553713397820967     
   9.7799999999999998E-002    -2.4641339893429390     
   9.8100000000000007E-002    -3.1562948381342260     
   9.8400000000000015E-002    -3.7918911171650338     
   9.8699999999999996E-002    -4.3302397950741085     
   9.9000000000000005E-002    -4.7332201252419228     
   9.9300000000000013E-002    -4.9720311427247994     
   9.9599999999999994E-002    -5.0252752569587642     
   9.9900000000000003E-002    -4.8855886716829344     
  0.10020000000000001         -4.5622458693801669     
  0.10049999999999999         -4.0785217488806564     
  0.10080000000000000         -3.4752552673691000     
  0.10110000000000001         -2.8099002955643466     
  0.10140000000000000         -2.1492085528524236     
  0.10170000000000000         -1.5698640377257282     
  0.10200000000000001         -1.1502622364101684     
  0.10230000000000002        -0.96127927134224644     
  0.10260000000000000         -1.0619105089308438     
  0.10290000000000001         -1.4894766824489074     
  0.10320000000000000         -2.2494940830742158     
  0.10350000000000001         -3.3142061387225086     
  0.10380000000000000         -4.6161194102065100     
  0.10410000000000001         -6.0475259198121512     
  0.10440000000000001         -7.4675741686667152     
  0.10470000000000000         -8.7087460165871118     
  0.10500000000000000         -9.5894842839161321     
  0.10530000000000000         -9.9335833339309030     
  0.10560000000000000         -9.5861216335898991     
  0.10590000000000001         -8.4327088088788944     
  0.10620000000000000         -6.4209404552512819     
  0.10650000000000001         -3.5699804196509590     
  0.10679999999999999          2.0614284823385044E-002
  0.10710000000000000          4.1677098463561295     
  0.10740000000000001          8.6151991413157134     
  0.10770000000000000          13.050890054983546     
  0.10800000000000000          17.127073405867041     
  0.10830000000000001          20.492740775953667     
  0.10859999999999999          22.824642345642172     
  0.10890000000000000          23.857748205607145     
  0.10920000000000001          23.415817433328694     
  0.10950000000000001          21.431324164427608     
  0.10979999999999999          17.956583157588305     
  0.11009999999999999          13.167156318959458     
  0.11040000000000001          7.3493276205638143     
  0.11070000000000001         0.88087464173664909     
  0.11100000000000000         -5.7989736025837404     
  0.11130000000000000         -12.225488753463017     
  0.11160000000000002         -17.946024074991751     
  0.11190000000000001         -22.556638886565420     
  0.11220000000000001         -25.734649851292520     
  0.11250000000000000         -27.262401785659748     
  0.11280000000000000         -27.041725362287750     
  0.11309999999999999         -25.098810385434856     
  0.11340000000000001         -21.576011821438147     
  0.11369999999999998         -16.715286383184811     
  0.11400000000000000         -10.838413323924705     
  0.11430000000000000         -4.3119841002910615     
  0.11460000000000002          2.4753964055465372     
  0.11489999999999999          9.1439409843476867     
  0.11520000000000001          15.351913554995333     
  0.11550000000000001          20.806905887786037     
  0.11580000000000000          25.284809285363863     
  0.11609999999999999          28.638084607366963     
  0.11640000000000002          30.785576076981091     
  0.11670000000000001          31.717411257586701     
  0.11700000000000001          31.483350967703757     
  0.11730000000000000          30.174164022731780     
  0.11760000000000000          27.917719075826774     
  0.11789999999999999          24.861719298453963     
  0.11820000000000001          21.158470295568232     
  0.11850000000000001          16.965055578922009     
  0.11880000000000000          12.427171789770318     
  0.11910000000000000          7.6778088128574344     
  0.11940000000000002          2.8397577002062389     
  0.11970000000000001         -1.9834475639447802     
  0.12000000000000001         -6.6997814602087127     
  0.12030000000000000         -11.222319674472690     
  0.12060000000000000         -15.478401282638879     
  0.12089999999999999         -19.395250443453353     
  0.12119999999999999         -22.900573875667579     
  0.12150000000000001         -25.926658794447448     
  0.12180000000000001         -28.404596508140951     
  0.12210000000000000         -30.268541527119492     
  0.12239999999999999         -31.460951049890511     
  0.12270000000000002         -31.933441363347896     
  0.12300000000000001         -31.654934128849060     
  0.12330000000000001         -30.614477350452137     
  0.12360000000000000         -28.827926817093587     
  0.12390000000000000         -26.336855100205714     
  0.12419999999999999         -23.212082054940943     
  0.12450000000000001         -19.554029586960961     
  0.12480000000000001         -15.482779599228286     
  0.12509999999999999         -11.138620445360885     
  0.12540000000000001         -6.6726007862288368     
  0.12570000000000003         -2.2348985791914648     
  0.12600000000000000          2.0278623254477330     
  0.12630000000000002          5.9838314459915836     
  0.12659999999999999          9.5267620711626648     
  0.12690000000000001          12.571704946074497     
  0.12719999999999998          15.066296674769966     
  0.12750000000000000          16.989885439064476     
  0.12780000000000002          18.347253916487464     
  0.12809999999999999          19.171690109090811     
  0.12840000000000001          19.518306855446919     
  0.12869999999999998          19.455055359064104     
  0.12900000000000000          19.060495495807917     
  0.12930000000000003          18.416151161030591     
  0.12959999999999999          17.599668611198048     
  0.12990000000000002          16.679039103549890     
  0.13019999999999998          15.712930774505768     
  0.13050000000000000          14.742050259353269     
  0.13080000000000003          13.788948141317189     
  0.13109999999999999          12.864438132824612     
  0.13140000000000002          11.959814141585184     
  0.13169999999999998          11.052968089704944     
  0.13200000000000001          10.117711125607839     
  0.13229999999999997          9.1170788334962953     
  0.13260000000000000          8.0164118274934406     
  0.13290000000000002          6.7883773234952276     
  0.13319999999999999          5.4058971710023318     
  0.13350000000000001          3.8601327158259289     
  0.13380000000000003          2.1563723198277907     
  0.13410000000000000         0.30786594775595011     
  0.13440000000000002         -1.6506340617037709     
  0.13469999999999999         -3.6714418173518935     
  0.13500000000000001         -5.7033343674792469     
  0.13529999999999998         -7.6788430693108234     
  0.13560000000000000         -9.5295611023013080     
  0.13590000000000002         -11.194058487649990     
  0.13619999999999999         -12.605561334538665     
  0.13650000000000001         -13.712452973475976     
  0.13680000000000003         -14.476162046140461     
  0.13710000000000000         -14.865876289601273     
  0.13740000000000002         -14.874695869558632     
  0.13769999999999999         -14.508908360825112     
  0.13800000000000001         -13.789709175605129     
  0.13829999999999998         -12.759303170676382     
  0.13860000000000000         -11.470040390621305     
  0.13890000000000002         -9.9841118456378855     
  0.13919999999999999         -8.3737078207053912     
  0.13950000000000001         -6.7126179128016314     
  0.13979999999999998         -5.0723028464760640     
  0.14010000000000000         -3.5210120861738199     
  0.14040000000000002         -2.1157078837216279     
  0.14069999999999999        -0.89979034850089934     
  0.14100000000000001          9.8391551897274304E-002
  0.14130000000000004         0.86722815910983553     
  0.14160000000000000          1.4143680451152005     
  0.14189999999999997          1.7616285218744157     
  0.14219999999999999          1.9445831915375464     
  0.14250000000000002          2.0099418301389105     
  0.14279999999999998          2.0091238153169559     
  0.14310000000000000          1.9924428589394967     
  0.14339999999999997          2.0076110486385867     
  0.14369999999999999          2.0939149981589109     
  0.14400000000000002          2.2762868540026284     
  0.14429999999999998          2.5679314290378930     
  0.14460000000000001          2.9678330599147777     
  0.14490000000000003          3.4582500667744416     
  0.14520000000000000          4.0140924700193050     
  0.14550000000000002          4.6007886213680189     
  0.14579999999999999          5.1751942952750998     
  0.14610000000000001          5.6996803633635054     
  0.14640000000000003          6.1379909887096735     
  0.14670000000000000          6.4541554842057032     
  0.14699999999999996          6.6281624237366392     
  0.14729999999999999          6.6457772646457114     
  0.14760000000000001          6.4983764076071902     
  0.14789999999999998          6.1939940810274043     
  0.14820000000000000          5.7417464580952373     