  -1.4999999999999999E-002     0.0000000000000000     
  -1.4700000000000000E-002     5.4257640144264860E-027
  -1.4400000000000000E-002     4.0182556427036689E-022
  -1.4100000000000000E-002    -1.6930521057595690E-019
  -1.3800000000000000E-002    -6.8516795536094051E-018
  -1.3500000000000000E-002     8.3174322420648151E-017
  -1.3200000000000000E-002     2.9748546837487737E-016
  -1.2899999999999998E-002    -3.0529253856119838E-015
  -1.2600000000000000E-002    -1.3293447655496214E-015
  -1.2299999999999998E-002     2.5410812368853696E-014
  -1.2000000000000000E-002     2.4599534110154371E-014
  -1.1699999999999999E-002    -1.2672982437583867E-013
  -1.1399999999999999E-002    -2.4117186278562877E-013
  -1.1099999999999999E-002     3.7418177710445809E-013
  -1.0799999999999999E-002     1.0214747825842870E-012
  -1.0499999999999999E-002     5.5629498283434258E-013
  -1.0199999999999999E-002    -3.1645893284760455E-012
  -9.8999999999999991E-003    -7.0187991438865038E-012
  -9.5999999999999992E-003     2.4629169998719769E-012
  -9.2999999999999992E-003     2.7599377525862861E-011
  -8.9999999999999993E-003     1.4430260019932966E-011
  -8.6999999999999994E-003    -4.5606261975498476E-011
  -8.3999999999999995E-003    -6.1112852453818505E-011
  -8.0999999999999996E-003    -4.7721732447663688E-011
  -7.7999999999999988E-003     9.8396188086588298E-011
  -7.4999999999999997E-003     4.0107936837839715E-010
  -7.1999999999999998E-003     9.9574077296377514E-011
  -6.8999999999999981E-003    -8.7773110775941340E-010
  -6.5999999999999982E-003    -6.9014981824853352E-010
  -6.3000000000000000E-003     4.3768987555363884E-010
  -6.0000000000000001E-003     8.5243071718945206E-010
  -5.6999999999999985E-003     2.3972693971630854E-009
  -5.3999999999999986E-003     1.6023282294810988E-009
  -5.1000000000000004E-003    -6.2532838752806447E-009
  -4.7999999999999987E-003    -7.4569031206785185E-009
  -4.5000000000000005E-003     4.7771878256750648E-009
  -4.1999999999999989E-003     9.3940556583836872E-009
  -3.8999999999999990E-003     5.7762195501267964E-009
  -3.5999999999999990E-003     8.1676594769180790E-009
  -3.2999999999999991E-003    -1.3710696444656965E-008
  -2.9999999999999992E-003    -4.5978202035481920E-008
  -2.6999999999999993E-003     7.4789141897161526E-010
  -2.3999999999999994E-003     6.1027959848817903E-008
  -2.0999999999999977E-003     1.8541808762082382E-008
  -1.7999999999999995E-003     2.8754429277668665E-009
  -1.4999999999999979E-003     9.8724210056955976E-009
  -1.1999999999999997E-003    -1.1943283892024701E-007
  -8.9999999999999976E-004    -8.8274405192695761E-008
  -5.9999999999999810E-004     1.6508186871524774E-007
  -2.9999999999999992E-004     9.1553491030709028E-008
   0.0000000000000000         -6.7037773125135213E-008
   3.0000000000000165E-004     7.3667963706872996E-008
   5.9999999999999984E-004    -1.0346034596234545E-007
   9.0000000000000149E-004    -2.5631030871880455E-007
   1.2000000000000031E-003     2.8634928837414301E-007
   1.5000000000000013E-003     2.5902264896532075E-007
   1.8000000000000030E-003    -4.9782790913758255E-007
   2.1000000000000012E-003    -1.3764117065835484E-007
   2.3999999999999994E-003     5.7109965231238991E-007
   2.7000000000000010E-003    -9.8254950226290072E-009
   2.9999999999999992E-003    -3.7774739485406901E-007
   3.3000000000000008E-003     2.8294756456576870E-007
   3.6000000000000025E-003     5.5385249876919110E-007
   3.9000000000000007E-003    -3.5170694093640417E-007
   4.2000000000000023E-003    -1.4950212737679434E-006
   4.5000000000000005E-003    -3.2823167036666404E-007
   4.7999999999999987E-003     3.1751647810625993E-006
   5.1000000000000004E-003     5.1347895388260413E-006
   5.4000000000000020E-003     5.2644797684407261E-006
   5.7000000000000037E-003     9.0233784161029030E-006
   5.9999999999999984E-003     1.9163092339525613E-005
   6.3000000000000000E-003     3.2513756725196290E-005
   6.6000000000000017E-003     4.0427149741450214E-005
   6.9000000000000034E-003     3.1286128760283684E-005
   7.2000000000000015E-003     6.3380601542861265E-006
   7.5000000000000032E-003    -1.8420393439487065E-005
   7.8000000000000014E-003    -3.8550049271912032E-005
   8.0999999999999996E-003    -7.5773066509326212E-005
   8.4000000000000012E-003    -1.6366484755232476E-004
   8.7000000000000029E-003    -3.3402465935104104E-004
   9.0000000000000011E-003    -6.1792998732986947E-004
   9.2999999999999992E-003    -1.0601858579684434E-003
   9.6000000000000009E-003    -1.7552390468829862E-003
   9.8999999999999991E-003    -2.8683903147938257E-003
   1.0200000000000001E-002    -4.6106472529991536E-003
   1.0500000000000002E-002    -7.2257870076648705E-003
   1.0800000000000004E-002    -1.1026802939433741E-002
   1.1099999999999999E-002    -1.6440033603351171E-002
   1.1400000000000000E-002    -2.4019400822328889E-002
   1.1700000000000002E-002    -3.4440301481932348E-002
   1.2000000000000004E-002    -4.8469619322099824E-002
   1.2300000000000002E-002    -6.6917427959933912E-002
   1.2600000000000000E-002    -9.0633036052393992E-002
   1.2900000000000002E-002   -0.12047758272673789     
   1.3200000000000000E-002   -0.15719741529070161     
   1.3500000000000002E-002   -0.20128592567570100     
   1.3800000000000003E-002   -0.25285012395470979     
   1.4100000000000001E-002   -0.31138935587914429     
   1.4400000000000000E-002   -0.37556537320899014     
   1.4700000000000001E-002   -0.44305875609369549     
   1.4999999999999999E-002   -0.51047317709757944     
   1.5300000000000001E-002   -0.57321716721162530     
   1.5600000000000003E-002   -0.62543661239350357     
   1.5899999999999997E-002   -0.66008376243980427     
   1.6199999999999999E-002   -0.66923726920204085     
   1.6500000000000001E-002   -0.64460043105630960     
   1.6800000000000002E-002   -0.57812681539158739     
   1.7100000000000004E-002   -0.46252732190797285     
   1.7400000000000006E-002   -0.29227210196304415     
   1.7700000000000000E-002    -6.4350174254668421E-002
   1.8000000000000002E-002    0.22083769236876033     
   1.8300000000000004E-002    0.55881189813726873     
   1.8600000000000005E-002    0.94084966271987325     
   1.8900000000000000E-002     1.3535251997825910     
   1.9200000000000002E-002     1.7793062395289101     
   1.9500000000000003E-002     2.1970853557868359     
   1.9799999999999998E-002     2.5834275663666437     
   2.0100000000000000E-002     2.9139635677749878     
   2.0400000000000001E-002     3.1651498695900564     
   2.0700000000000003E-002     3.3159627183511740     
   2.0999999999999998E-002     3.3497736916209320     
   2.1299999999999999E-002     3.2555313759982885     
   2.1600000000000001E-002     3.0287446536298042     
   2.1900000000000003E-002     2.6721894080666413     
   2.2200000000000004E-002     2.1953278113671311     
   2.2500000000000006E-002     1.6137778188203549     
   2.2800000000000001E-002    0.94799170001238053     
   2.3100000000000002E-002    0.22137868140143924     
   2.3400000000000004E-002   -0.54163710107122709     
   2.3699999999999999E-002    -1.3182802987313913     
   2.4000000000000000E-002    -2.0883055846382867     
   2.4300000000000002E-002    -2.8369615511061625     
   2.4599999999999997E-002    -3.5553446256001342     
   2.4900000000000005E-002    -4.2411731215189921     
   2.5200000000000000E-002    -4.8988330258629844     
   2.5499999999999995E-002    -5.5382419469737645     
   2.5800000000000003E-002    -6.1727800143363183     
   2.6099999999999998E-002    -6.8169113284400193     
   2.6400000000000007E-002    -7.4823346321371655     
   2.6700000000000002E-002    -8.1744622307012342     
   2.6999999999999996E-002    -8.8880425419493960     
   2.7300000000000005E-002    -9.6030705277743422     
   2.7600000000000000E-002    -10.281926508834969     
   2.7900000000000008E-002    -10.867043076555344     
   2.8200000000000003E-002    -11.281360573855800     
   2.8499999999999998E-002    -11.430921869530843     
   2.8800000000000006E-002    -11.209124698795369     
   2.9100000000000001E-002    -10.506121931380729     
   2.9400000000000003E-002    -9.2176380348405349     
   2.9700000000000004E-002    -7.2583488425923210     
   3.0000000000000006E-002    -4.5745511437143422     
   3.0300000000000001E-002    -1.1542782550390620     
   3.0600000000000002E-002     2.9583436689753171     
   3.0900000000000004E-002     7.6608574814094492     
   3.1199999999999999E-002     12.789824565562924     
   3.1500000000000007E-002     18.122652284131444     
   3.1800000000000002E-002     23.391578335952861     
   3.2099999999999997E-002     28.297349146958531     
   3.2400000000000005E-002     32.529730774478125     
   3.2700000000000000E-002     35.790567650645492     
   3.3000000000000002E-002     37.819466322726342     
   3.3300000000000003E-002     38.412812094628379     
   3.3599999999999998E-002     37.444292065279740     
   3.3900000000000000E-002     34.878714917602103     
   3.4200000000000001E-002     30.773226140582835     
   3.4500000000000003E-002     25.279411621370095     
   3.4799999999999998E-002     18.632196870741435     
   3.5099999999999999E-002     11.132393422181526     
   3.5400000000000001E-002     3.1264706584099073     
   3.5699999999999996E-002    -5.0147736473246134     
   3.6000000000000004E-002    -12.925824643973328     
   3.6299999999999999E-002    -20.265015516963029     
   3.6600000000000008E-002    -26.736065410961640     
   3.6900000000000002E-002    -32.103612953850856     
   3.7199999999999997E-002    -36.199154044967109     
   3.7500000000000006E-002    -38.929939920252011     
   3.7800000000000000E-002    -40.270589191302804     
   3.8100000000000009E-002    -40.261092292600942     
   3.8400000000000004E-002    -38.996633554550051     
   3.8699999999999998E-002    -36.612675026990878     
   3.9000000000000007E-002    -33.275950756518640     
   3.9300000000000002E-002    -29.172367239080565     
   3.9600000000000003E-002    -24.493105717306278     
   3.9900000000000005E-002    -19.430337528122667     
   4.0200000000000000E-002    -14.171094476434313     
   4.0500000000000001E-002    -8.8843229488602145     
   4.0800000000000003E-002    -3.7306182580463254     
   4.1100000000000005E-002     1.1469381844915314     
   4.1399999999999999E-002     5.6303878783730763     
   4.1700000000000008E-002     9.6117443825441224     
   4.2000000000000003E-002     13.008307435919701     
   4.2299999999999997E-002     15.763989290529253     
   4.2600000000000006E-002     17.836538179972258     
   4.2900000000000001E-002     19.218030667600281     
   4.3200000000000002E-002     19.922150704662787     
   4.3500000000000004E-002     19.982520992233873     
   4.3799999999999999E-002     19.464622976490929     
   4.4100000000000000E-002     18.445713396340295     
   4.4400000000000002E-002     17.018258671472257     
   4.4700000000000004E-002     15.290704224989344     
   4.4999999999999998E-002     13.366200891414982     
   4.5300000000000000E-002     11.349074553707801     
   4.5600000000000002E-002     9.3391148514304962     
   4.5899999999999996E-002     7.4152378140562796     
   4.6200000000000005E-002     5.6463752092354325     
   4.6500000000000000E-002     4.0824414335313115     
   4.6799999999999994E-002     2.7493847946329195     
   4.7100000000000003E-002     1.6603853766212127     
   4.7399999999999998E-002    0.80850072331434397     
   4.7700000000000006E-002    0.17115177428620298     
   4.8000000000000001E-002   -0.28200625626153231     
   4.8300000000000010E-002   -0.59211193740179091     
   4.8600000000000004E-002   -0.80501348996329258     
   4.8899999999999999E-002   -0.96307313995275756     
   4.9200000000000008E-002    -1.1101244319887504     
   4.9500000000000002E-002    -1.2823249018990568     
   4.9800000000000011E-002    -1.5057660243213573     
   5.0100000000000006E-002    -1.7996912009295565     
   5.0400000000000000E-002    -2.1690742462310020     
   5.0700000000000009E-002    -2.6087183415113291     
   5.1000000000000004E-002    -3.1048675586147634     
   5.1299999999999998E-002    -3.6311561048255143     
   5.1600000000000007E-002    -4.1595709643648995     
   5.1900000000000002E-002    -4.6561705542730607     
   5.2200000000000010E-002    -5.0852821681566684     
   5.2500000000000005E-002    -5.4188011603573836     
   5.2800000000000000E-002    -5.6279540722875749     
   5.3099999999999994E-002    -5.6946549100017414     
   5.3400000000000003E-002    -5.6099682994311868     
   5.3699999999999998E-002    -5.3690369089152981     
   5.4000000000000006E-002    -4.9830179663117145     
   5.4300000000000001E-002    -4.4665923613733787     
   5.4599999999999996E-002    -3.8407445709559482     
   5.4900000000000004E-002    -3.1375350709970897     
   5.5199999999999999E-002    -2.3864459510909097     
   5.5499999999999994E-002    -1.6218676186741181     
   5.5800000000000002E-002   -0.87981171546966497     
   5.6099999999999997E-002   -0.18863387539343557     
   5.6400000000000006E-002    0.42123826455900060     
   5.6700000000000000E-002    0.92803031046908879     
   5.6999999999999995E-002     1.3185881928878862     
   5.7300000000000004E-002     1.5827285869234480     
   5.7599999999999998E-002     1.7237707974100553     
   5.7900000000000007E-002     1.7504560420450601     
   5.8200000000000002E-002     1.6777419846149189     
   5.8499999999999996E-002     1.5298907424275603     
   5.8800000000000005E-002     1.3312293691217563     
   5.9100000000000000E-002     1.1098129742453069     
   5.9400000000000008E-002    0.89336677984833690     
   5.9700000000000003E-002    0.70469324805031197     
   6.0000000000000012E-002    0.56512910820053197     
   6.0300000000000006E-002    0.48706092316873417     
   6.0600000000000001E-002    0.47762820214318469     
   6.0900000000000010E-002    0.53880525242629862     
   6.1200000000000004E-002    0.66223074081683531     
   6.1500000000000013E-002    0.83862138081194959     
   6.1800000000000008E-002     1.0517574214651373     
   6.2100000000000002E-002     1.2821118143461394     
   6.2399999999999997E-002     1.5118477479959167     
   6.2700000000000006E-002     1.7184293941834599     
   6.3000000000000000E-002     1.8838583075839299     
   6.3300000000000009E-002     1.9923274722652069     
   6.3600000000000004E-002     2.0281234709274871     
   6.3899999999999998E-002     1.9847769438839409     
   6.4199999999999993E-002     1.8578841608417651     
   6.4500000000000002E-002     1.6487119087329838     
   6.4800000000000010E-002     1.3677592421372544     
   6.5100000000000005E-002     1.0276235281765269     
   6.5400000000000000E-002    0.64836925431068271     
   6.5700000000000008E-002    0.25406861354492927     
   6.5999999999999989E-002   -0.13113124449335692     
   6.6299999999999998E-002   -0.47958691937970560     
   6.6600000000000006E-002   -0.76898329795291787     
   6.6900000000000001E-002   -0.98035851748357450     
   6.7199999999999996E-002    -1.1001170273272318     
   6.7500000000000004E-002    -1.1257151306745059     
   6.7800000000000013E-002    -1.0597180931780961     
   6.8099999999999994E-002   -0.91618638038959421     
   6.8400000000000002E-002   -0.71623767599545229     
   6.8700000000000011E-002   -0.48387911871803702     
   6.8999999999999992E-002   -0.25080781137584512     
   6.9300000000000000E-002    -4.4974783497705978E-002
   6.9600000000000009E-002    0.10856084058774892     
   6.9900000000000004E-002    0.18768601177773150     
   7.0199999999999999E-002    0.18285217357294523     
   7.0500000000000007E-002     9.1405356410448724E-002
   7.0800000000000016E-002    -7.9861253255562065E-002
   7.1099999999999997E-002   -0.31087733058270750     
   7.1400000000000005E-002   -0.57876324186617589     
   7.1700000000000000E-002   -0.85323045919770835     
   7.1999999999999995E-002    -1.1013733216879007     
   7.2300000000000003E-002    -1.2954210846662186     
   7.2600000000000012E-002    -1.4092010430544444     
   7.2900000000000006E-002    -1.4258800264289131     
   7.3200000000000001E-002    -1.3386584985074625     
   7.3499999999999996E-002    -1.1494047961021299     
   7.3800000000000004E-002   -0.87148837993755057     
   7.4099999999999999E-002   -0.52589332955608337     
   7.4400000000000008E-002   -0.13964408610747692     
   7.4700000000000003E-002    0.25652833571379285     
   7.5000000000000011E-002    0.63238600641644216     
   7.5299999999999992E-002    0.96014265729481929     
   7.5600000000000001E-002     1.2172932873469489     
   7.5900000000000009E-002     1.3892053580323598     
   7.6200000000000004E-002     1.4673087373197424     
   7.6499999999999999E-002     1.4524403728504405     
   7.6800000000000007E-002     1.3511562317050378     
   7.7099999999999988E-002     1.1744625041184522     
   7.7399999999999997E-002    0.93922886031349107     
   7.7700000000000005E-002    0.66227547874173009     
   7.8000000000000014E-002    0.36070777067399529     
   7.8299999999999995E-002     5.3061559623251375E-002
   7.8600000000000003E-002   -0.24617281668877955     
   7.8900000000000012E-002   -0.52341846408075776     
   7.9199999999999993E-002   -0.76514874499339991     
   7.9500000000000001E-002   -0.96288763354120022     
   7.9800000000000010E-002    -1.1075037540659587     
   8.0100000000000018E-002    -1.1915456196355050     
   8.0399999999999999E-002    -1.2121889196826425     
   8.0700000000000008E-002    -1.1665244710819840     
   8.1000000000000003E-002    -1.0548788257477830     
   8.1299999999999997E-002   -0.88279934999203902     
   8.1600000000000006E-002   -0.65676381525213168     
   8.1900000000000014E-002   -0.38794131900493556     
   8.2199999999999995E-002    -9.1745091808259238E-002
   8.2500000000000004E-002    0.21770300192422853     
   8.2799999999999999E-002    0.52215665897949493     
   8.3100000000000007E-002    0.80359494639057993     
   8.3400000000000002E-002     1.0470164898522958     
   8.3700000000000011E-002     1.2381316393296165     
   8.4000000000000005E-002     1.3658052092234849     
   8.4300000000000000E-002     1.4243032778058649     
   8.4599999999999995E-002     1.4113315475698855     
   8.4900000000000003E-002     1.3275207945440353     
   8.5199999999999998E-002     1.1803769208561765     
   8.5500000000000007E-002    0.97878631951104733     
   8.5800000000000001E-002    0.73408063874109319     
   8.6100000000000010E-002    0.46282860095906408     
   8.6399999999999991E-002    0.17870319274692079     
   8.6699999999999999E-002   -0.10253894226203614     
   8.7000000000000008E-002   -0.36359095497936006     
   8.7300000000000003E-002   -0.59399666338042600     
   8.7599999999999997E-002   -0.78135606443817740     
   8.7900000000000006E-002   -0.91641745674189068     
   8.8200000000000014E-002   -0.99803723718383131     
   8.8499999999999995E-002    -1.0230202462026878     
   8.8800000000000004E-002   -0.99523722703836470     
   8.9100000000000013E-002   -0.92329527996728089     
   8.9399999999999993E-002   -0.81301229455803892     
   8.9700000000000002E-002   -0.67863507060897210     
   9.0000000000000011E-002   -0.53227018926046232     
   9.0299999999999991E-002   -0.38406864998550344     
   9.0600000000000000E-002   -0.24889741612751703     
   9.0900000000000009E-002   -0.13437535117562882     
   9.1200000000000017E-002    -4.8309944347083966E-002
   9.1499999999999998E-002     2.5758133464509874E-003
   9.1800000000000007E-002     1.9192021589249826E-002
   9.2100000000000001E-002     7.8536428476918673E-004
   9.2399999999999996E-002    -4.8822146937769616E-002
   9.2700000000000005E-002   -0.12177092454482319     
   9.3000000000000013E-002   -0.21159624340289562     
   9.3300000000000008E-002   -0.30740776230862604     
   9.3600000000000003E-002   -0.39923209753425920     
   9.3899999999999997E-002   -0.47781311347322697     
   9.4200000000000006E-002   -0.53246265053380859     
   9.4500000000000001E-002   -0.55714869536499401     
   9.4800000000000009E-002   -0.54549198262315701     
   9.5100000000000004E-002   -0.49487337886026916     
   9.5399999999999999E-002   -0.40666796017090828     
   9.5699999999999993E-002   -0.28244690267175088     
   9.6000000000000002E-002   -0.12954912686487102     
   9.6300000000000011E-002     4.4372050560158062E-002
   9.6600000000000005E-002    0.23061564809209489     
   9.6900000000000000E-002    0.41679702866367546     
   9.7200000000000009E-002    0.59390810822094542     
   9.7499999999999989E-002    0.75194779282076940     
   9.7799999999999998E-002    0.88126684633439079     
   9.8100000000000007E-002    0.97702312671082581     
   9.8400000000000015E-002     1.0336897184608342     
   9.8699999999999996E-002     1.0486761743436774     
   9.9000000000000005E-002     1.0237713050760522     
   9.9300000000000013E-002    0.95956215776822495     
   9.9599999999999994E-002    0.86077564256836414     
   9.9900000000000003E-002    0.73455645669606662     
  0.10020000000000001         0.58639249451795972     
  0.10049999999999999         0.42508316498110527     
  0.10080000000000000         0.26046437845186571     
  0.10110000000000001          9.9273114535919887E-002
  0.10140000000000000         -4.9340031087526326E-002
  0.10170000000000000        -0.17726133488829965     
  0.10200000000000001        -0.28066731752897200     
  0.10230000000000002        -0.35390544307199323     
  0.10260000000000000        -0.39480630596480054     
  0.10290000000000001        -0.40556707266625713     
  0.10320000000000000        -0.38555901908237589     
  0.10350000000000001        -0.34024362497508026     
  0.10380000000000000        -0.27584275085444543     
  0.10410000000000001        -0.19639078549395561     
  0.10440000000000001        -0.11115998745490790     
  0.10470000000000000         -2.6440295749307313E-002
  0.10500000000000000          5.2807145887270097E-002
  0.10530000000000000         0.11844995036688144     
  0.10560000000000000         0.16743586926626200     
  0.10590000000000001         0.19703875565186468     
  0.10620000000000000         0.20395145759619782     
  0.10650000000000001         0.18939035564974441     
  0.10679999999999999         0.15425057447785789     
  0.10710000000000000         0.10066101973904228     
  0.10740000000000001          3.3721051240069876E-002
  0.10770000000000000         -4.2457090699457717E-002
  0.10800000000000000        -0.12210091439182300     
  0.10830000000000001        -0.19860149541536984     
  0.10859999999999999        -0.26578413995021921     
  0.10890000000000000        -0.31910717545992007     
  0.10920000000000001        -0.35300087619144888     
  0.10950000000000001        -0.36455629769260955     
  0.10979999999999999        -0.35332570137587122     
  0.11009999999999999        -0.31797320511979937     
  0.11040000000000001        -0.26199961044565262     
  0.11070000000000001        -0.18971086863592057     
  0.11100000000000000        -0.10426303273571205     
  0.11130000000000000         -1.3876196960484914E-002
  0.11160000000000002          7.5784169504161059E-002
  0.11190000000000001         0.15910240965365480     
  0.11220000000000001         0.22884950306006485     
  0.11250000000000000         0.28157706826216405     
  0.11280000000000000         0.31337639820600360     
  0.11309999999999999         0.32159527616180078     
  0.11340000000000001         0.30738684661055277     
  0.11369999999999998         0.27042731634481532     
  0.11400000000000000         0.21416178843560599     
  0.11430000000000000         0.14280756812634995     
  0.11460000000000002          6.0725836745166850E-002
  0.11489999999999999         -2.5599743451989149E-002
  0.11520000000000001        -0.11084411220241086     
  0.11550000000000001        -0.18858002309751640     
  0.11580000000000000        -0.25316207826996534     
  0.11609999999999999        -0.30158467096624231     
  0.11640000000000002        -0.32920078111570650     
  0.11670000000000001        -0.33572026091595125     
  0.11700000000000001        -0.32174461662924719     
  0.11730000000000000        -0.28830647229450590     
  0.11760000000000000        -0.24025355631975803     
  0.11789999999999999        -0.18123888971486024     
  0.11820000000000001        -0.11616447232426336     
  0.11850000000000001         -5.1452468282271208E-002
  0.11880000000000000          9.6543003626239597E-003
  0.11910000000000000          6.2331678860304301E-002
  0.11940000000000002         0.10382381103485580     
  0.11970000000000001         0.13280628522340815     
  0.12000000000000001         0.14809894048687391     
  0.12030000000000000         0.15036365617722056     
  0.12060000000000000         0.14030087484960266     
  0.12089999999999999         0.11924652396358407     
  0.12119999999999999          8.9065239737838808E-002
  0.12150000000000001          5.0972434756754552E-002
  0.12180000000000001          7.2538383779366007E-003
  0.12210000000000000         -4.1539000869241685E-002
  0.12239999999999999         -9.2837055968272325E-002
  0.12270000000000002        -0.14467427083396711     
  0.12300000000000001        -0.19634448825515605     
  0.12330000000000001        -0.24444474420570805     
  0.12360000000000000        -0.28725303386757078     
  0.12390000000000000        -0.32350898829271946     
  0.12419999999999999        -0.34939003317030121     
  0.12450000000000001        -0.36536669831409962     
  0.12480000000000001        -0.36922881445528843     
  0.12509999999999999        -0.35963084320295929     
  0.12540000000000001        -0.33913815719069751     
  0.12570000000000003        -0.30626247604546120     
  0.12600000000000000        -0.26263698606181263     
  0.12630000000000002        -0.21158777363899470     
  0.12659999999999999        -0.15298351967650092     
  0.12690000000000001         -9.1060380598699475E-002
  0.12719999999999998         -2.8010758790394504E-002
  0.12750000000000000          3.4853526797818404E-002
  0.12780000000000002          9.2663918328410463E-002
  0.12809999999999999         0.14456796630990465     
  0.12840000000000001         0.18911922787358756     
  0.12869999999999998         0.22210217227347540     
  0.12900000000000000         0.24561412785960679     
  0.12930000000000003         0.25793360011772892     
  0.12959999999999999         0.25878979873443547     
  0.12990000000000002         0.25205926243962790     
  0.13019999999999998         0.23731232158950205     
  0.13050000000000000         0.21810207199102258     
  0.13080000000000003         0.19840886422454038     
  0.13109999999999999         0.17841924875743592     
  0.13140000000000002         0.16278687700647207     
  0.13169999999999998         0.15304573453353365     
  0.13200000000000001         0.14846570539608334     
  0.13229999999999997         0.15198428377433557     
  0.13260000000000000         0.16109104641515268     
  0.13290000000000002         0.17405629653316274     
  0.13319999999999999         0.19149123785869093     
  0.13350000000000001         0.20832821585268396     
  0.13380000000000003         0.22400707002179993     
  0.13410000000000000         0.23740196346862874     
  0.13440000000000002         0.24474559603848517     
  0.13469999999999999         0.24717637322170083     
  0.13500000000000001         0.24347792581464678     
  0.13529999999999998         0.23253964172953079     
  0.13560000000000000         0.21681290002213546     
  0.13590000000000002         0.19501970678111452     
  0.13619999999999999         0.16890694422798486     
  0.13650000000000001         0.13981660911209043     
  0.13680000000000003         0.10774074923431083     
  0.13710000000000000          7.5193423298274720E-002
  0.13740000000000002          4.2248731871138194E-002
  0.13769999999999999          1.0016201995334484E-002
  0.13800000000000001         -1.9738006108188742E-002
  0.13829999999999998         -4.7721725858460760E-002
  0.13860000000000000         -7.2243072117977758E-002
  0.13890000000000002         -9.3157034986554171E-002
  0.13919999999999999        -0.11184981669184646     
  0.13950000000000001        -0.12622700548334154     
  0.13979999999999998        -0.13784945716442337     
  0.14010000000000000        -0.14734232668845662     
  0.14040000000000002        -0.15261608207701086     
  0.14069999999999999        -0.15607221300695140     
  0.14100000000000001        -0.15631054859994356     
  0.14130000000000004        -0.15176707269538112     
  0.14160000000000000        -0.14425091966141754     
  0.14189999999999997        -0.13159258657351264     
  0.14219999999999999        -0.11337168217733412     
  0.14250000000000002         -9.1784676390275946E-002
  0.14279999999999998         -6.4887853922721062E-002
  0.14310000000000000         -3.4568651800469592E-002
  0.14339999999999997         -3.8014274245000926E-003
  0.14369999999999999          2.8278116004503112E-002
  0.14400000000000002          5.7493472203023199E-002
  0.14429999999999998          8.1463673448165103E-002
  0.14460000000000001         0.10077445309033012     
  0.14490000000000003         0.11105845349048121     
  0.14520000000000000         0.11239187891173710     
  0.14550000000000002         0.10608020163946073     
  0.14579999999999999          8.9610881876304144E-002
  0.14610000000000001          6.6003327736497711E-002
  0.14640000000000003          3.7306888112140599E-002
  0.14670000000000000          3.2221406215699328E-003
  0.14699999999999996         -3.1589136108976908E-002
  0.14729999999999999         -6.6012098185042320E-002
  0.14760000000000001         -9.8809326815731569E-002
  0.14789999999999998        -0.12655112313227812     
  0.14820000000000000        -0.14901996884590774     