  -1.4999999999999999E-002     0.0000000000000000     
  -1.4700000000000000E-002     0.0000000000000000     
  -1.4400000000000000E-002     0.0000000000000000     
  -1.4100000000000000E-002     0.0000000000000000     
  -1.3800000000000000E-002     2.1680482380280094E-037
  -1.3500000000000000E-002     2.0632307310049773E-034
  -1.3200000000000000E-002    -1.9868323435426881E-032
  -1.2899999999999998E-002    -9.3969721174675490E-031
  -1.2600000000000000E-002     2.2863722171647836E-029
  -1.2299999999999998E-002     1.7442297815065456E-028
  -1.2000000000000000E-002    -4.2171426281939377E-027
  -1.1699999999999999E-002     4.0192958452311574E-027
  -1.1399999999999999E-002     1.7661642107562060E-025
  -1.1099999999999999E-002    -5.4501168012054151E-025
  -1.0799999999999999E-002    -2.4201736441493228E-024
  -1.0499999999999999E-002     1.0113697832266679E-023
  -1.0199999999999999E-002     1.9075306066748960E-023
  -9.8999999999999991E-003    -8.6307134659152217E-023
  -9.5999999999999992E-003    -1.6994547810500227E-022
  -9.2999999999999992E-003     5.5968366644287078E-022
  -8.9999999999999993E-003     1.1985865128819704E-021
  -8.6999999999999994E-003    -2.4059987566796947E-021
  -8.3999999999999995E-003    -6.3417331385526890E-021
  -8.0999999999999996E-003     3.0253681978260716E-021
  -7.7999999999999988E-003     2.8246530128116059E-020
  -7.4999999999999997E-003     3.1562220488265717E-020
  -7.1999999999999998E-003    -8.4283378921730169E-020
  -6.8999999999999981E-003    -2.9812601685484928E-019
  -6.5999999999999982E-003     1.5652430094707351E-019
  -6.3000000000000000E-003     1.2855116404156753E-018
  -6.0000000000000001E-003     1.6301669602372168E-019
  -5.6999999999999985E-003    -2.9138989225044510E-018
  -5.3999999999999986E-003    -2.8957392475945848E-018
  -5.1000000000000004E-003    -3.9672941859325142E-019
  -4.7999999999999987E-003     1.2826142323584832E-017
  -4.5000000000000005E-003     3.3065078102874349E-017
  -4.1999999999999989E-003    -3.7961503714924784E-017
  -3.8999999999999990E-003    -1.3143875857318775E-016
  -3.5999999999999990E-003     6.9960604758354472E-017
  -3.2999999999999991E-003     2.2007205744287483E-016
  -2.9999999999999992E-003    -4.7619363254143668E-017
  -2.6999999999999993E-003     4.1233904308613626E-016
  -2.3999999999999994E-003    -6.4770536884998947E-016
  -2.0999999999999977E-003    -2.9292526343088414E-015
  -1.7999999999999995E-003     3.6308684879389771E-015
  -1.4999999999999979E-003     4.4640811621954136E-015
  -1.1999999999999997E-003    -5.5493280824273094E-015
  -8.9999999999999976E-004     4.1664863472125579E-015
  -5.9999999999999810E-004    -9.7515635231129165E-015
  -2.9999999999999992E-004    -2.3006333820862940E-014
   0.0000000000000000          4.5922370487025094E-014
   3.0000000000000165E-004     2.2126723753644996E-014
   5.9999999999999984E-004    -1.3316443740916925E-014
   9.0000000000000149E-004    -1.7680549573679671E-017
   1.2000000000000031E-003    -2.5638785344983207E-013
   1.5000000000000013E-003     1.7000765189067826E-013
   1.8000000000000030E-003     5.0874518970025214E-013
   2.1000000000000012E-003    -8.3946352291375967E-013
   2.3999999999999994E-003     6.8799665179540146E-013
   2.7000000000000010E-003     1.3205198187047634E-012
   2.9999999999999992E-003    -5.0757531244173016E-012
   3.3000000000000008E-003     1.3306344339576044E-012
   3.6000000000000025E-003     1.0525137084948598E-011
   3.9000000000000007E-003    -1.0808715833793693E-011
   4.2000000000000023E-003    -6.8954066790899773E-012
   4.5000000000000005E-003     2.5629193061761769E-011
   4.7999999999999987E-003    -1.8532684210614932E-011
   5.1000000000000004E-003    -3.4180381489782260E-011
   5.4000000000000020E-003     6.2998966764953340E-011
   5.7000000000000037E-003     1.9973298361059947E-011
   5.9999999999999984E-003    -9.7613481059432900E-011
   6.3000000000000000E-003     2.6343225711784998E-011
   6.6000000000000017E-003     9.0857566765435329E-011
   6.9000000000000034E-003    -1.0488360000002054E-010
   7.2000000000000015E-003    -5.1043719697496387E-011
   7.5000000000000032E-003     2.1570054812066965E-010
   7.8000000000000014E-003     1.8548830554956132E-011
   8.0999999999999996E-003    -3.5173740201683861E-010
   8.4000000000000012E-003     3.1467998637254596E-011
   8.7000000000000029E-003     4.5555302205782121E-010
   9.0000000000000011E-003    -2.6630706795161296E-010
   9.2999999999999992E-003    -3.8150494127942094E-010
   9.6000000000000009E-003     8.6270284143643053E-010
   9.8999999999999991E-003    -7.1112422883494490E-011
   1.0200000000000001E-002    -1.6974429635841029E-009
   1.0500000000000002E-002     1.0904929799026105E-009
   1.0800000000000004E-002     2.2552730405063294E-009
   1.1099999999999999E-002    -2.8669038684694406E-009
   1.1400000000000000E-002    -2.2159339854920526E-009
   1.1700000000000002E-002     5.7626730605752047E-009
   1.2000000000000004E-002     2.9324070640049578E-009
   1.2300000000000002E-002    -1.0263581009228812E-008
   1.2600000000000000E-002    -1.0300929059785387E-008
   1.2900000000000002E-002     1.1377675889708565E-008
   1.3200000000000000E-002     3.5155423612721841E-008
   1.3500000000000002E-002     2.4996216143787235E-008
   1.3800000000000003E-002    -7.7466289374656546E-008
   1.4100000000000001E-002    -2.2616423709061818E-007
   1.4400000000000000E-002     1.3147634554804613E-007
   1.4700000000000001E-002     1.7018346766232358E-006
   1.4999999999999999E-002     3.6459282089843568E-006
   1.5300000000000001E-002     4.4550723811253723E-006
   1.5600000000000003E-002     7.4887105471184103E-006
   1.5899999999999997E-002     2.1268352726426941E-005
   1.6199999999999999E-002     4.7571182287884652E-005
   1.6500000000000001E-002     7.3418867258066652E-005
   1.6800000000000002E-002     8.4926887629759902E-005
   1.7100000000000004E-002     8.9862566582771532E-005
   1.7400000000000006E-002     1.1622364996080603E-004
   1.7700000000000000E-002     1.7961543393770185E-004
   1.8000000000000002E-002     2.6070788844445987E-004
   1.8300000000000004E-002     3.3232893405060737E-004
   1.8600000000000005E-002     4.0030837114606765E-004
   1.8900000000000000E-002     4.9079723504593525E-004
   1.9200000000000002E-002     5.9998609326646145E-004
   1.9500000000000003E-002     6.7651714088637913E-004
   1.9799999999999998E-002     6.4051761270543799E-004
   2.0100000000000000E-002     3.9267200057136527E-004
   2.0400000000000001E-002    -1.9610954956127152E-004
   2.0700000000000003E-002    -1.3056216390084348E-003
   2.0999999999999998E-002    -3.2040723594624729E-003
   2.1299999999999999E-002    -6.2838299030011325E-003
   2.1600000000000001E-002    -1.1064914548255825E-002
   2.1900000000000003E-002    -1.8179833229391696E-002
   2.2200000000000004E-002    -2.8366186832619954E-002
   2.2500000000000006E-002    -4.2467338485639994E-002
   2.2800000000000001E-002    -6.1430504527007324E-002
   2.3100000000000002E-002    -8.6259686508403752E-002
   2.3400000000000004E-002   -0.11787383745330175     
   2.3699999999999999E-002   -0.15693689872604039     
   2.4000000000000000E-002   -0.20373619198129997     
   2.4300000000000002E-002   -0.25803296560014388     
   2.4599999999999997E-002   -0.31880701959397206     
   2.4900000000000005E-002   -0.38396485767843019     
   2.5200000000000000E-002   -0.45012246564290948     
   2.5499999999999995E-002   -0.51251970887492404     
   2.5800000000000003E-002   -0.56498425309439582     
   2.6099999999999998E-002   -0.59994279958787189     
   2.6400000000000007E-002   -0.60870299234236980     
   2.6700000000000002E-002   -0.58186520773899209     
   2.6999999999999996E-002   -0.51003667443499490     
   2.7300000000000005E-002   -0.38469156436642588     
   2.7600000000000000E-002   -0.19911957102111033     
   2.7900000000000008E-002     5.0366554664959012E-002
   2.8200000000000003E-002    0.36347612127778028     
   2.8499999999999998E-002    0.73486502186588942     
   2.8800000000000006E-002     1.1535366371994793     
   2.9100000000000001E-002     1.6025135099460650     
   2.9400000000000003E-002     2.0590564234222049     
   2.9700000000000004E-002     2.4957102189964124     
   3.0000000000000006E-002     2.8814593499400747     
   3.0300000000000001E-002     3.1838629142918102     
   3.0600000000000002E-002     3.3718133747346406     
   3.0900000000000004E-002     3.4176479886150193     
   3.1199999999999999E-002     3.3004264275485440     
   3.1500000000000007E-002     3.0083311732125604     
   3.1800000000000002E-002     2.5402047060515560     
   3.2099999999999997E-002     1.9072820143725160     
   3.2400000000000005E-002     1.1330430355956085     
   3.2700000000000000E-002    0.25231663462898507     
   3.3000000000000002E-002   -0.69054891186121647     
   3.3300000000000003E-002    -1.6444465632000833     
   3.3599999999999998E-002    -2.5554708126269285     
   3.3900000000000000E-002    -3.3700460408468134     
   3.4200000000000001E-002    -4.0403341364672576     
   3.4500000000000003E-002    -4.5264146081267977     
   3.4799999999999998E-002    -4.7999190615335099     
   3.5099999999999999E-002    -4.8467385749123491     
   3.5400000000000001E-002    -4.6665013423379893     
   3.5699999999999996E-002    -4.2737484688259046     
   3.6000000000000004E-002    -3.6962515028947971     
   3.6299999999999999E-002    -2.9723123103913087     
   3.6600000000000008E-002    -2.1488510739101105     
   3.6900000000000002E-002    -1.2776631744040272     
   3.7199999999999997E-002   -0.41187013118879345     
   3.7500000000000006E-002    0.39646146254359749     
   3.7800000000000000E-002     1.1000372309822199     
   3.8100000000000009E-002     1.6579386126185018     
   3.8400000000000004E-002     2.0376614278584055     
   3.8699999999999998E-002     2.2168520425414449     
   3.9000000000000007E-002     2.1833560402385332     
   3.9300000000000002E-002     1.9361999434903803     
   3.9600000000000003E-002     1.4853817058235528     
   3.9900000000000005E-002    0.85150222419055765     
   4.0200000000000000E-002     6.5542620710247440E-002
   4.0500000000000001E-002   -0.83267412317992739     
   4.0800000000000003E-002    -1.7954851610683695     
   4.1100000000000005E-002    -2.7688807177487860     
   4.1399999999999999E-002    -3.6955719438469732     
   4.1700000000000008E-002    -4.5170469342944326     
   4.2000000000000003E-002    -5.1767041649873358     
   4.2299999999999997E-002    -5.6238095529593579     
   4.2600000000000006E-002    -5.8154031847146337     
   4.2900000000000001E-002    -5.7208895764951135     
   4.3200000000000002E-002    -5.3237940644549289     
   4.3500000000000004E-002    -4.6231606229791682     
   4.3799999999999999E-002    -3.6356793190987204     
   4.4100000000000000E-002    -2.3941668302061827     
   4.4400000000000002E-002   -0.94712220692001936     
   4.4700000000000004E-002    0.64348590800249272     
   4.4999999999999998E-002     2.3061916354850620     
   4.5300000000000000E-002     3.9628606136149349     
   4.5600000000000002E-002     5.5341618839895403     
   4.5899999999999996E-002     6.9433253799444508     
   4.6200000000000005E-002     8.1203920956013462     
   4.6500000000000000E-002     9.0073876285057732     
   4.6799999999999994E-002     9.5605462439067068     
   4.7100000000000003E-002     9.7537028847182992     
   4.7399999999999998E-002     9.5806505370178314     
   4.7700000000000006E-002     9.0546671469451674     
   4.8000000000000001E-002     8.2095097990776136     
   4.8300000000000010E-002     7.0973952145532300     
   4.8600000000000004E-002     5.7857681761013584     
   4.8899999999999999E-002     4.3547400890501411     
   4.9200000000000008E-002     2.8918083707670070     
   4.9500000000000002E-002     1.4857442687231581     
   4.9800000000000011E-002    0.22250352263328343     
   5.0100000000000006E-002   -0.82199493329082762     
   5.0400000000000000E-002    -1.5872811651811749     
   5.0700000000000009E-002    -2.0316967895192941     
   5.1000000000000004E-002    -2.1366856198630169     
   5.1299999999999998E-002    -1.9090131192514930     
   5.1600000000000007E-002    -1.3797784183072257     
   5.1900000000000002E-002   -0.60389335382788911     
   5.2200000000000010E-002    0.34291186687440822     
   5.2500000000000005E-002     1.3693166934450431     
   5.2800000000000000E-002     2.3735046975603922     
   5.3099999999999994E-002     3.2489152852240961     
   5.3400000000000003E-002     3.8926849304989886     
   5.3699999999999998E-002     4.2104503639400006     
   5.4000000000000006E-002     4.1242083132711205     
   5.4300000000000001E-002     3.5797724858549795     
   5.4599999999999996E-002     2.5498811605015295     
   5.4900000000000004E-002     1.0412029997263745     
   5.5199999999999999E-002   -0.90159919658128462     
   5.5499999999999994E-002    -3.1973864506707850     
   5.5800000000000002E-002    -5.7245291534374703     
   5.6099999999999997E-002    -8.3262562473233164     
   5.6400000000000006E-002    -10.818849678947185     
   5.6700000000000000E-002    -12.996016637633794     
   5.6999999999999995E-002    -14.646605501385846     
   5.7300000000000004E-002    -15.569807004513038     
   5.7599999999999998E-002    -15.589832707776431     
   5.7900000000000007E-002    -14.579745160088661     
   5.8200000000000002E-002    -12.475058570964132     
   5.8499999999999996E-002    -9.2889944180576194     
   5.8800000000000005E-002    -5.1248007226811740     
   5.9100000000000000E-002   -0.17360506373861506     
   5.9400000000000008E-002     5.2868193649343445     
   5.9700000000000003E-002     10.907681202348892     
   6.0000000000000012E-002     16.292653347258714     
   6.0300000000000006E-002     21.023227626001230     
   6.0600000000000001E-002     24.696095538074697     
   6.0900000000000010E-002     26.954901333830996     
   6.1200000000000004E-002     27.522978907308044     
   6.1500000000000013E-002     26.234913608300751     
   6.1800000000000008E-002     23.050310562824677     
   6.2100000000000002E-002     18.066950482704982     
   6.2399999999999997E-002     11.518374482903875     
   6.2700000000000006E-002     3.7559293120212667     
   6.3000000000000000E-002    -4.7721077342214642     
   6.3300000000000009E-002    -13.554886904111658     
   6.3600000000000004E-002    -22.059654610420370     
   6.3899999999999998E-002    -29.766623417844912     
   6.4199999999999993E-002    -36.212448002177567     
   6.4500000000000002E-002    -41.019642253990689     
   6.4800000000000010E-002    -43.921029229940004     
   6.5100000000000005E-002    -44.776514081308910     
   6.5400000000000000E-002    -43.575370204827536     
   6.5700000000000008E-002    -40.429947053966828     
   6.5999999999999989E-002    -35.562220081177152     
   6.6299999999999998E-002    -29.278423154063866     
   6.6600000000000006E-002    -21.945623798314600     
   6.6900000000000001E-002    -13.960592709457146     
   6.7199999999999996E-002    -5.7233271508894390     
   6.7500000000000004E-002     2.3887843916855385     
   6.7800000000000013E-002     10.040588979668328     
   6.8099999999999994E-002     16.952587798752695     
   6.8400000000000002E-002     22.913583654098435     
   6.8700000000000011E-002     27.777869816883403     
   6.8999999999999992E-002     31.470510964291663     
   6.9300000000000000E-002     33.973485444222177     
   6.9600000000000009E-002     35.324668270681485     
   6.9900000000000004E-002     35.604418035534877     
   7.0199999999999999E-002     34.921008119152098     
   7.0500000000000007E-002     33.409886656433869     
   7.0800000000000016E-002     31.214720277406329     
   7.1099999999999997E-002     28.482196092309660     
   7.1400000000000005E-002     25.360296792456712     
   7.1700000000000000E-002     21.982603227181318     
   7.1999999999999995E-002     18.473355615207929     
   7.2300000000000003E-002     14.942604542957895     
   7.2600000000000012E-002     11.478837704506155     
   7.2900000000000006E-002     8.1589008000217973     
   7.3200000000000001E-002     5.0398626736693624     
   7.3499999999999996E-002     2.1613748216953965     
   7.3800000000000004E-002   -0.44746873902961037     
   7.4099999999999999E-002    -2.7736322734919674     
   7.4400000000000008E-002    -4.8154564642568705     
   7.4700000000000003E-002    -6.5770756681810090     
   7.5000000000000011E-002    -8.0754727526223942     
   7.5299999999999992E-002    -9.3298402098723461     
   7.5600000000000001E-002    -10.364657930928528     
   7.5900000000000009E-002    -11.209983471769213     
   7.6200000000000004E-002    -11.891542359947985     
   7.6499999999999999E-002    -12.439529287688520     
   7.6800000000000007E-002    -12.878623611409010     
   7.7099999999999988E-002    -13.227153117217807     
   7.7399999999999997E-002    -13.501499342692288     
   7.7700000000000005E-002    -13.705255168753284     
   7.8000000000000014E-002    -13.836536232803399     
   7.8299999999999995E-002    -13.885101871367329     
   7.8600000000000003E-002    -13.830269290606681     
   7.8900000000000012E-002    -13.650179027503979     
   7.9199999999999993E-002    -13.317240360125350     
   7.9500000000000001E-002    -12.804450845844217     
   7.9800000000000010E-002    -12.091702271569272     
   8.0100000000000018E-002    -11.161115339098009     
   8.0399999999999999E-002    -10.009908580881154     
   8.0700000000000008E-002    -8.6445226132923665     
   8.1000000000000003E-002    -7.0838754972030777     
   8.1299999999999997E-002    -5.3643847913125260     
   8.1600000000000006E-002    -3.5280930235986343     
   8.1900000000000014E-002    -1.6308215617420694     
   8.2199999999999995E-002    0.26363347376041735     
   8.2500000000000004E-002     2.0951402921312718     
   8.2799999999999999E-002     3.7957399828997671     
   8.3100000000000007E-002     5.3066415712080923     
   8.3400000000000002E-002     6.5801846149659511     
   8.3700000000000011E-002     7.5713577118109727     
   8.4000000000000005E-002     8.2578308204219315     
   8.4300000000000000E-002     8.6304237688979182     
   8.4599999999999995E-002     8.6916276999109154     
   8.4900000000000003E-002     8.4688547028027958     
   8.5199999999999998E-002     7.9978834399314671     
   8.5500000000000007E-002     7.3275273572282638     
   8.5800000000000001E-002     6.5213315047487770     
   8.6100000000000010E-002     5.6411364789110277     
   8.6399999999999991E-002     4.7526608899619998     
   8.6699999999999999E-002     3.9194367945593287     
   8.7000000000000008E-002     3.1920560872993446     
   8.7300000000000003E-002     2.6130340660167257     
   8.7599999999999997E-002     2.2080291561587533     
   8.7900000000000006E-002     1.9854228700878935     
   8.8200000000000014E-002     1.9387034273634471     
   8.8499999999999995E-002     2.0436685519248226     
   8.8800000000000004E-002     2.2636695224948502     
   8.9100000000000013E-002     2.5522513030012401     
   8.9399999999999993E-002     2.8560496329706142     
   8.9700000000000002E-002     3.1216554958566656     
   9.0000000000000011E-002     3.2982380206671391     
   9.0299999999999991E-002     3.3412247159906228     
   9.0600000000000000E-002     3.2187622645518026     
   9.0900000000000009E-002     2.9105907018884665     
   9.1200000000000017E-002     2.4118857975704566     
   9.1499999999999998E-002     1.7340013677537014     
   9.1800000000000007E-002    0.90153341566024303     
   9.2100000000000001E-002    -4.7431770534969220E-002
   9.2399999999999996E-002    -1.0629539774590193     
   9.2700000000000005E-002    -2.0899830354769602     
   9.3000000000000013E-002    -3.0693647467839336     
   9.3300000000000008E-002    -3.9412769651343758     
   9.3600000000000003E-002    -4.6543833438393385     
   9.3899999999999997E-002    -5.1634272914670536     
   9.4200000000000006E-002    -5.4362114956868091     
   9.4500000000000001E-002    -5.4577945189325465     
   9.4800000000000009E-002    -5.2270957387538237     
   9.5100000000000004E-002    -4.7621785927727043     
   9.5399999999999999E-002    -4.0976201084499895     
   9.5699999999999993E-002    -3.2809487566777924     
   9.6000000000000002E-002    -2.3711410278023384     
   9.6300000000000011E-002    -1.4348569024567344     
   9.6600000000000005E-002   -0.53899983503678051     
   9.6900000000000000E-002    0.25283559511042214     
   9.7200000000000009E-002    0.88609330489691152     
   9.7499999999999989E-002     1.3183335292268610     
   9.7799999999999998E-002     1.5263601819988053     
   9.8100000000000007E-002     1.5041448873049201     
   9.8400000000000015E-002     1.2653681032580908     
   9.8699999999999996E-002    0.84508299270559750     
   9.9000000000000005E-002    0.28962093428026020     
   9.9300000000000013E-002   -0.34051319778583317     
   9.9599999999999994E-002   -0.97748894621702087     
   9.9900000000000003E-002    -1.5586663033398811     
  0.10020000000000001         -2.0212501353175765     
  0.10049999999999999         -2.3157131345344171     
  0.10080000000000000         -2.4123453631925011     
  0.10110000000000001         -2.2915723313534642     
  0.10140000000000000         -1.9593220024528124     
  0.10170000000000000         -1.4402227994249990     
  0.10200000000000001        -0.76816747368919103     
  0.10230000000000002          2.1509499982403368E-003
  0.10260000000000000         0.81442338255691904     
  0.10290000000000001          1.6105818627597084     
  0.10320000000000000          2.3310618445180329     
  0.10350000000000001          2.9300801013474915     
  0.10380000000000000          3.3688783130407218     
  0.10410000000000001          3.6218471491377326     
  0.10440000000000001          3.6820401781037706     
  0.10470000000000000          3.5500425802507394     
  0.10500000000000000          3.2431611973294951     
  0.10530000000000000          2.7889680059415745     
  0.10560000000000000          2.2178415861985377     
  0.10590000000000001          1.5717535708033445     
  0.10620000000000000         0.88987268491513349     
  0.10650000000000001         0.21133077541371426     
  0.10679999999999999        -0.42225243796428935     
  0.10710000000000000        -0.98121064604139807     
  0.10740000000000001         -1.4351948759061719     
  0.10770000000000000         -1.7609298374894191     
  0.10800000000000000         -1.9488896487345531     
  0.10830000000000001         -1.9896005394427010     
  0.10859999999999999         -1.8864770967896192     
  0.10890000000000000         -1.6528524712089805     
  0.10920000000000001         -1.3036242830193479     
  0.10950000000000001        -0.86639432847627518     
  0.10979999999999999        -0.37165097522710766     
  0.11009999999999999         0.14951152167018694     
  0.11040000000000001         0.66009734758715244     
  0.11070000000000001          1.1276838953030603     
  0.11100000000000000          1.5231118550966680     
  0.11130000000000000          1.8202450168998987     
  0.11160000000000002          2.0023837059334864     
  0.11190000000000001          2.0589009440940016     
  0.11220000000000001          1.9872623103059328     
  0.11250000000000000          1.7944021870500473     
  0.11280000000000000          1.4936236307189845     
  0.11309999999999999          1.1038035754380262     
  0.11340000000000001         0.65059157177446969     
  0.11369999999999998         0.16101284054310300     
  0.11400000000000000        -0.33691077712396328     
  0.11430000000000000        -0.81309764800033202     
  0.11460000000000002         -1.2429131810938900     
  0.11489999999999999         -1.6041956974388192     
  0.11520000000000001         -1.8783263152983389     
  0.11550000000000001         -2.0567742393525230     
  0.11580000000000000         -2.1337136923079330     
  0.11609999999999999         -2.1108966530183864     
  0.11640000000000002         -1.9994448328352927     
  0.11670000000000001         -1.8099605929105655     
  0.11700000000000001         -1.5625321081246730     
  0.11730000000000000         -1.2792952040120287     
  0.11760000000000000        -0.97755729465551178     
  0.11789999999999999        -0.68311409303497816     
  0.11820000000000001        -0.41407019026208602     
  0.11850000000000001        -0.18318215944341343     
  0.11880000000000000         -7.1980515412918902E-003
  0.11910000000000000         0.11023208078083715     
  0.11940000000000002         0.16726042062210517     
  0.11970000000000001         0.16293911885805235     
  0.12000000000000001         0.10918908988406149     
  0.12030000000000000          1.3311757261417992E-002
  0.12060000000000000        -0.11190550780279387     
  0.12089999999999999        -0.24821180130411746     
  0.12119999999999999        -0.38458297658028329     
  0.12150000000000001        -0.50385341518930193     
  0.12180000000000001        -0.59339129817662195     
  0.12210000000000000        -0.64479540367186550     
  0.12239999999999999        -0.64840633679529636     
  0.12270000000000002        -0.60359736256079055     
  0.12300000000000001        -0.51051959477870690     
  0.12330000000000001        -0.37327917276168604     
  0.12360000000000000        -0.20214710019052246     
  0.12390000000000000         -5.1821547312110444E-003
  0.12419999999999999         0.20278103296215177     
  0.12450000000000001         0.40799754939559940     
  0.12480000000000001         0.60092315771910998     
  0.12509999999999999         0.76531893155751862     
  0.12540000000000001         0.89461446941471023     
  0.12570000000000003         0.98302418644769096     
  0.12600000000000000          1.0220093362770406     
  0.12630000000000002          1.0162592365939629     
  0.12659999999999999         0.96590670762191677     
  0.12690000000000001         0.87355672828253772     
  0.12719999999999998         0.75184738422884911     
  0.12750000000000000         0.60550258774954491     
  0.12780000000000002         0.44487336410572287     
  0.12809999999999999         0.28427733930177679     
  0.12840000000000001         0.12997877396883142     
  0.12869999999999998         -6.6745226152167131E-003
  0.12900000000000000        -0.11547758537867614     
  0.12930000000000003        -0.19352360215993383     
  0.12959999999999999        -0.23505570217481564     
  0.12990000000000002        -0.23785627160205225     
  0.13019999999999998        -0.20627897270780418     
  0.13050000000000000        -0.14227578552033238     
  0.13080000000000003         -5.1833697193980510E-002
  0.13109999999999999          5.4804622730138697E-002
  0.13140000000000002         0.17085022477382014     
  0.13169999999999998         0.28726154020219835     
  0.13200000000000001         0.39371047199774034     
  0.13229999999999997         0.48491502991282398     
  0.13260000000000000         0.55437434940148855     
  0.13290000000000002         0.59706003505011096     
  0.13319999999999999         0.61379122475649317     
  0.13350000000000001         0.60251280500058479     
  0.13380000000000003         0.56510470147786129     
  0.13410000000000000         0.50767626131765653     
  0.13440000000000002         0.43170088183354555     
  0.13469999999999999         0.34444320362877723     
  0.13500000000000001         0.25278909367720725     
  0.13529999999999998         0.16011406646535931     
  0.13560000000000000          7.5239000914367610E-002
  0.13590000000000002          2.3024556301250894E-003
  0.13619999999999999         -5.5712829966865815E-002
  0.13650000000000001         -9.3034294516801244E-002
  0.13680000000000003        -0.11113895482122074     
  0.13710000000000000        -0.10986428377789920     
  0.13740000000000002         -8.9868571762115310E-002
  0.13769999999999999         -5.7763561166220709E-002
  0.13800000000000001         -1.6625370289526098E-002
  0.13829999999999998          2.7991376025075482E-002
  0.13860000000000000          6.8033652215781643E-002
  0.13890000000000002         0.10098059042976208     
  0.13919999999999999         0.12150371713308639     
  0.13950000000000001         0.12558970524084900     
  0.13979999999999998         0.11434094496921518     
  0.14010000000000000          8.5956376136380255E-002
  0.14040000000000002          4.2447473423512405E-002
  0.14069999999999999         -1.1951900349093693E-002
  0.14100000000000001         -7.5814190768757089E-002
  0.14130000000000004        -0.14484724549887701     
  0.14160000000000000        -0.21414276468040394     
  0.14189999999999997        -0.28212168880762489     
  0.14219999999999999        -0.34455918130544605     
  0.14250000000000002        -0.39855968517472995     
  0.14279999999999998        -0.44317396731647130     
  0.14310000000000000        -0.47567471871536665     
  0.14339999999999997        -0.49551507361833058     
  0.14369999999999999        -0.50225991104207557     
  0.14400000000000002        -0.49607449739329867     
  0.14429999999999998        -0.47831682436746381     
  0.14460000000000001        -0.45020987753927916     
  0.14490000000000003        -0.41453111777420731     
  0.14520000000000000        -0.37459642980763019     
  0.14550000000000002        -0.33242251143270751     
  0.14579999999999999        -0.29233970292776867     
  0.14610000000000001        -0.25695709582867132     
  0.14640000000000003        -0.22704857974169385     
  0.14670000000000000        -0.20562573979029886     
  0.14699999999999996        -0.19090173840172278     
  0.14729999999999999        -0.18257234222205193     
  0.14760000000000001        -0.18004825342760974     
  0.14789999999999998        -0.17882862329579369     
  0.14820000000000000        -0.17787161732307349     