  -1.4999999999999999E-002     0.0000000000000000     
  -1.4700000000000000E-002     0.0000000000000000     
  -1.4400000000000000E-002     0.0000000000000000     
  -1.4100000000000000E-002     0.0000000000000000     
  -1.3800000000000000E-002     0.0000000000000000     
  -1.3500000000000000E-002     0.0000000000000000     
  -1.3200000000000000E-002     0.0000000000000000     
  -1.2899999999999998E-002     0.0000000000000000     
  -1.2600000000000000E-002     0.0000000000000000     
  -1.2299999999999998E-002     0.0000000000000000     
  -1.2000000000000000E-002     0.0000000000000000     
  -1.1699999999999999E-002     0.0000000000000000     
  -1.1399999999999999E-002     0.0000000000000000     
  -1.1099999999999999E-002     0.0000000000000000     
  -1.0799999999999999E-002     0.0000000000000000     
  -1.0499999999999999E-002     0.0000000000000000     
  -1.0199999999999999E-002     0.0000000000000000     
  -9.8999999999999991E-003     0.0000000000000000     
  -9.5999999999999992E-003     0.0000000000000000     
  -9.2999999999999992E-003     0.0000000000000000     
  -8.9999999999999993E-003     0.0000000000000000     
  -8.6999999999999994E-003     0.0000000000000000     
  -8.3999999999999995E-003     0.0000000000000000     
  -8.0999999999999996E-003     0.0000000000000000     
  -7.7999999999999988E-003     0.0000000000000000     
  -7.4999999999999997E-003     0.0000000000000000     
  -7.1999999999999998E-003     0.0000000000000000     
  -6.8999999999999981E-003     0.0000000000000000     
  -6.5999999999999982E-003     0.0000000000000000     
  -6.3000000000000000E-003     0.0000000000000000     
  -6.0000000000000001E-003     0.0000000000000000     
  -5.6999999999999985E-003     0.0000000000000000     
  -5.3999999999999986E-003     0.0000000000000000     
  -5.1000000000000004E-003     0.0000000000000000     
  -4.7999999999999987E-003     0.0000000000000000     
  -4.5000000000000005E-003     0.0000000000000000     
  -4.1999999999999989E-003     0.0000000000000000     
  -3.8999999999999990E-003     0.0000000000000000     
  -3.5999999999999990E-003     0.0000000000000000     
  -3.2999999999999991E-003     0.0000000000000000     
  -2.9999999999999992E-003     0.0000000000000000     
  -2.6999999999999993E-003     0.0000000000000000     
  -2.3999999999999994E-003     0.0000000000000000     
  -2.0999999999999977E-003     0.0000000000000000     
  -1.7999999999999995E-003     0.0000000000000000     
  -1.4999999999999979E-003     0.0000000000000000     
  -1.1999999999999997E-003     0.0000000000000000     
  -8.9999999999999976E-004     0.0000000000000000     
  -5.9999999999999810E-004     0.0000000000000000     
  -2.9999999999999992E-004     0.0000000000000000     
   0.0000000000000000          0.0000000000000000     
   3.0000000000000165E-004     0.0000000000000000     
   5.9999999999999984E-004     0.0000000000000000     
   9.0000000000000149E-004     0.0000000000000000     
   1.2000000000000031E-003     0.0000000000000000     
   1.5000000000000013E-003     0.0000000000000000     
   1.8000000000000030E-003     0.0000000000000000     
   2.1000000000000012E-003     0.0000000000000000     
   2.3999999999999994E-003     0.0000000000000000     
   2.7000000000000010E-003     0.0000000000000000     
   2.9999999999999992E-003     0.0000000000000000     
   3.3000000000000008E-003     0.0000000000000000     
   3.6000000000000025E-003     0.0000000000000000     
   3.9000000000000007E-003     0.0000000000000000     
   4.2000000000000023E-003     0.0000000000000000     
   4.5000000000000005E-003     0.0000000000000000     
   4.7999999999999987E-003     0.0000000000000000     
   5.1000000000000004E-003     0.0000000000000000     
   5.4000000000000020E-003     0.0000000000000000     
   5.7000000000000037E-003     0.0000000000000000     
   5.9999999999999984E-003     0.0000000000000000     
   6.3000000000000000E-003     0.0000000000000000     
   6.6000000000000017E-003     0.0000000000000000     
   6.9000000000000034E-003     0.0000000000000000     
   7.2000000000000015E-003     0.0000000000000000     
   7.5000000000000032E-003     0.0000000000000000     
   7.8000000000000014E-003     0.0000000000000000     
   8.0999999999999996E-003     0.0000000000000000     
   8.4000000000000012E-003    -1.7045556772293721E-037
   8.7000000000000029E-003     8.5513965751826876E-038
   9.0000000000000011E-003     2.7097217004824036E-036
   9.2999999999999992E-003    -1.0781545802288335E-035
   9.6000000000000009E-003     1.7315462117271278E-035
   9.8999999999999991E-003    -3.7838983355131227E-035
   1.0200000000000001E-002    -6.0148373708601884E-035
   1.0500000000000002E-002     3.0117476161010948E-034
   1.0800000000000004E-002    -6.5280372194361993E-034
   1.1099999999999999E-002    -8.6491795430684702E-034
   1.1400000000000000E-002     3.4542341934668417E-033
   1.1700000000000002E-002    -2.3361045339546104E-033
   1.2000000000000004E-002    -7.2229673489203345E-033
   1.2300000000000002E-002     1.8651038336233974E-032
   1.2600000000000000E-002    -1.1549752524890147E-033
   1.2900000000000002E-002    -6.8690807035659362E-032
   1.3200000000000000E-002     1.1537771696995247E-031
   1.3500000000000002E-002     5.9844879590402574E-032
   1.3800000000000003E-002    -4.9542207722135522E-031
   1.4100000000000001E-002     5.6407423380428435E-031
   1.4400000000000000E-002     8.0251404475805015E-031
   1.4700000000000001E-002    -3.0759109922773995E-030
   1.4999999999999999E-002     1.9822803372815078E-030
   1.5300000000000001E-002     6.8865138055292771E-030
   1.5600000000000003E-002    -1.6242396017151736E-029
   1.5899999999999997E-002     2.2786323148654768E-030
   1.6199999999999999E-002     4.5592484230487807E-029
   1.6500000000000001E-002    -7.0871525059733653E-029
   1.6800000000000002E-002    -3.2976473961193094E-029
   1.7100000000000004E-002     2.4520726262301198E-028
   1.7400000000000006E-002    -2.4067513688725552E-028
   1.7700000000000000E-002    -3.4083273162924770E-028
   1.8000000000000002E-002     1.0819502721143529E-027
   1.8300000000000004E-002    -5.1862840411807569E-028
   1.8600000000000005E-002    -2.0627598205202741E-027
   1.8900000000000000E-002     3.8362605993784789E-027
   1.9200000000000002E-002     2.6360458886937816E-028
   1.9500000000000003E-002    -9.2464968283045478E-027
   1.9799999999999998E-002     1.0107401364835640E-026
   2.0100000000000000E-002     9.0108251839728280E-027
   2.0400000000000001E-002    -3.1419725174641006E-026
   2.0700000000000003E-002     1.4094891839414270E-026
   2.0999999999999998E-002     4.9283159224727338E-026
   2.1299999999999999E-002    -7.3942206530933879E-026
   2.1600000000000001E-002    -2.9095598369986806E-026
   2.1900000000000003E-002     1.6138683478128582E-025
   2.2200000000000004E-002    -6.1947281452075718E-026
   2.2500000000000006E-002    -2.6590775372987745E-025
   2.2800000000000001E-002     2.7543169814360687E-025
   2.3100000000000002E-002     4.1929255854375816E-025
   2.3400000000000004E-002    -9.0445306886964356E-025
   2.3699999999999999E-002    -3.6993109137601948E-025
   2.4000000000000000E-002     2.6171219081328549E-024
   2.4300000000000002E-002    -1.8091952931266308E-024
   2.4599999999999997E-002    -4.1970546922878738E-024
   2.4900000000000005E-002     1.1049599050732306E-023
   2.5200000000000000E-002    -1.2355345174288848E-023
   2.5499999999999995E-002    -8.0369739095325369E-024
   2.5800000000000003E-002     1.1767559050240947E-022
   2.6099999999999998E-002    -3.3390585095874607E-022
   2.6400000000000007E-002    -2.3158102710820473E-023
   2.6700000000000002E-002     2.7316466168777526E-021
   2.6999999999999996E-002    -6.1804313849491692E-021
   2.7300000000000005E-002    -6.6895377178267161E-021
   2.7600000000000000E-002     5.8365617593564641E-020
   2.7900000000000008E-002    -7.0920006466058531E-020
   2.8200000000000003E-002    -2.5475184068741109E-019
   2.8499999999999998E-002     9.2715910049728973E-019
   2.8800000000000006E-002    -4.2594790702911334E-020
   2.9100000000000001E-002    -5.3569582742857648E-018
   2.9400000000000003E-002     7.8606494024973338E-018
   2.9700000000000004E-002     1.9617839535854673E-017
   3.0000000000000006E-002    -6.3842468395298375E-017
   3.0300000000000001E-002    -5.5729782102440738E-017
   3.0600000000000002E-002     4.5439478969022852E-016
   3.0900000000000004E-002    -1.2714208317260583E-016
   3.1199999999999999E-002    -2.8459214081136849E-015
   3.1500000000000007E-002     4.8010530120548032E-015
   3.1800000000000002E-002     9.9141847806156614E-015
   3.2099999999999997E-002    -4.1070696192230001E-014
   3.2400000000000005E-002     8.6852904234502105E-015
   3.2700000000000000E-002     1.7962239949175690E-013
   3.3000000000000002E-002    -2.6878058126279275E-013
   3.3300000000000003E-002    -3.8685950626150333E-013
   3.3599999999999998E-002     1.3865150756137099E-012
   3.3900000000000000E-002    -5.8794306067566545E-015
   3.4200000000000001E-002    -4.3397995254210651E-012
   3.4500000000000003E-002     2.7647256164672592E-012
   3.4799999999999998E-002     1.1676609172777699E-011
   3.5099999999999999E-002    -1.3397274997723713E-011
   3.5400000000000001E-002    -3.2988609221355153E-011
   3.5699999999999996E-002     6.3798001259733218E-011
   3.6000000000000004E-002     6.7033899916729411E-011
   3.6299999999999999E-002    -2.6054488555809448E-010
   3.6600000000000008E-002     5.0065967198003483E-011
   3.6900000000000002E-002     6.5124658442878628E-010
   3.7199999999999997E-002    -9.3714712830571454E-010
   3.7500000000000006E-002    -1.7965259976711960E-010
   3.7800000000000000E-002     3.3433932517361985E-009
   3.8100000000000009E-002    -6.9309025747285467E-009
   3.8400000000000004E-002    -7.9817579190650975E-009
   3.8699999999999998E-002     3.8510492066694584E-008
   3.9000000000000007E-002     1.7311602819100112E-008
   3.9300000000000002E-002    -1.8839649650158595E-007
   3.9600000000000003E-002     1.0320446878754459E-007
   3.9900000000000005E-002     3.9145642306861609E-006
   4.0200000000000000E-002     1.7352273752313718E-005
   4.0500000000000001E-002     4.4200547375551552E-005
   4.0800000000000003E-002     7.6836811482241721E-005
   4.1100000000000005E-002     1.0297479257232532E-004
   4.1399999999999999E-002     1.3015144880717015E-004
   4.1700000000000008E-002     1.8935573561756477E-004
   4.2000000000000003E-002     3.0405042425966385E-004
   4.2299999999999997E-002     4.7487443499697780E-004
   4.2600000000000006E-002     7.0623253994276237E-004
   4.2900000000000001E-002     1.0292656627363854E-003
   4.3200000000000002E-002     1.4910499721926701E-003
   4.3500000000000004E-002     2.1372839961297193E-003
   4.3799999999999999E-002     3.0125457376816850E-003
   4.4100000000000000E-002     4.1708598967479145E-003
   4.4400000000000002E-002     5.6789599075626430E-003
   4.4700000000000004E-002     7.6038948932238490E-003
   4.4999999999999998E-002     9.9960090216142852E-003
   4.5300000000000000E-002     1.2879351955413853E-002
   4.5600000000000002E-002     1.6244823598245917E-002
   4.5899999999999996E-002     2.0033580275297891E-002
   4.6200000000000005E-002     2.4107695580951806E-002
   4.6500000000000000E-002     2.8222401281407850E-002
   4.6799999999999994E-002     3.2018175693447996E-002
   4.7100000000000003E-002     3.4993618824570777E-002
   4.7399999999999998E-002     3.6457856023620644E-002
   4.7700000000000006E-002     3.5549297466516389E-002
   4.8000000000000001E-002     3.1328674003702310E-002
   4.8300000000000010E-002     2.2820030560752144E-002
   4.8600000000000004E-002     9.0073457115052193E-003
   4.8899999999999999E-002    -1.1057769195264034E-002
   4.9200000000000008E-002    -3.8022397121762419E-002
   4.9500000000000002E-002    -7.2066212320458151E-002
   4.9800000000000011E-002   -0.11281270480259992     
   5.0100000000000006E-002   -0.15917429255179241     
   5.0400000000000000E-002   -0.20914900251864935     
   5.0700000000000009E-002   -0.25976760347341610     
   5.1000000000000004E-002   -0.30718196506199053     
   5.1299999999999998E-002   -0.34677799247195179     
   5.1600000000000007E-002   -0.37337162546012281     
   5.1900000000000002E-002   -0.38158727709008700     
   5.2200000000000010E-002   -0.36636336898055472     
   5.2500000000000005E-002   -0.32347334407923306     
   5.2800000000000000E-002   -0.25011099504451090     
   5.3099999999999994E-002   -0.14542988926378991     
   5.3400000000000003E-002    -1.0946398019412371E-002
   5.3699999999999998E-002    0.14912781557011964     
   5.4000000000000006E-002    0.32790868896679304     
   5.4300000000000001E-002    0.51602187799852739     
   5.4599999999999996E-002    0.70211795705990843     
   5.4900000000000004E-002    0.87367058801533881     
   5.5199999999999999E-002     1.0178333386425384     
   5.5499999999999994E-002     1.1226002163948747     
   5.5800000000000002E-002     1.1778885664939032     
   5.6099999999999997E-002     1.1765176087140656     
   5.6400000000000006E-002     1.1150673939649116     
   5.6700000000000000E-002    0.99427404072533454     
   5.6999999999999995E-002    0.81929310083828399     
   5.7300000000000004E-002    0.59923657094415383     
   5.7599999999999998E-002    0.34670489063673432     
   5.7900000000000007E-002     7.6778686097064175E-002
   5.8200000000000002E-002   -0.19422610607411112     
   5.8499999999999996E-002   -0.45000723752572380     
   5.8800000000000005E-002   -0.67558979010732445     
   5.9100000000000000E-002   -0.85840516596173488     
   5.9400000000000008E-002   -0.98922966357240427     
   5.9700000000000003E-002    -1.0628764839011289     
   6.0000000000000012E-002    -1.0783309342507088     
   6.0300000000000006E-002    -1.0387299534101728     
   6.0600000000000001E-002   -0.95096112863110882     
   6.0900000000000010E-002   -0.82487190653700693     
   6.1200000000000004E-002   -0.67259167474496551     
   6.1500000000000013E-002   -0.50741112278872413     
   6.1800000000000008E-002   -0.34285365373149418     
   6.2100000000000002E-002   -0.19179534826082445     
   6.2399999999999997E-002    -6.5426824801350397E-002
   6.2700000000000006E-002     2.7283139092823240E-002
   6.3000000000000000E-002     8.0248790297821671E-002
   6.3300000000000009E-002     9.0546017298169051E-002
   6.3600000000000004E-002     5.8464571448536437E-002
   6.3899999999999998E-002    -1.2307277570791593E-002
   6.4199999999999993E-002   -0.11518919242531619     
   6.4500000000000002E-002   -0.24106044559911100     
   6.4800000000000010E-002   -0.37881691611027718     
   6.5100000000000005E-002   -0.51625044747835169     
   6.5400000000000000E-002   -0.64068581582563966     
   6.5700000000000008E-002   -0.73999272353932910     
   6.5999999999999989E-002   -0.80349779900434326     
   6.6299999999999998E-002   -0.82249333592047802     
   6.6600000000000006E-002   -0.79132326710241474     
   6.6900000000000001E-002   -0.70751396873371042     
   6.7199999999999996E-002   -0.57209587693588659     
   6.7500000000000004E-002   -0.38981257333763925     
   6.7800000000000013E-002   -0.16864230752218673     
   6.8099999999999994E-002     8.0625024337068821E-002
   6.8400000000000002E-002    0.34497897791448812     
   6.8700000000000011E-002    0.61032432831931116     
   6.8999999999999992E-002    0.86186070034198314     
   6.9300000000000000E-002     1.0857622802809843     
   6.9600000000000009E-002     1.2694639638929999     
   6.9900000000000004E-002     1.4027802757829955     
   7.0199999999999999E-002     1.4783307430124268     
   7.0500000000000007E-002     1.4918163230640036     
   7.0800000000000016E-002     1.4424934047891282     
   7.1099999999999997E-002     1.3326037111212690     
   7.1400000000000005E-002     1.1673856832399301     
   7.1700000000000000E-002    0.95455803968328001     
   7.1999999999999995E-002    0.70355648519897407     
   7.2300000000000003E-002    0.42523297764239953     
   7.2600000000000012E-002    0.13099708784844327     
   7.2900000000000006E-002   -0.16744715987259678     
   7.3200000000000001E-002   -0.45881295047471210     
   7.3499999999999996E-002   -0.73247495916145988     
   7.3800000000000004E-002   -0.97835285996652366     
   7.4099999999999999E-002    -1.1876440874867662     
   7.4400000000000008E-002    -1.3524370703139668     
   7.4700000000000003E-002    -1.4660527146663029     
   7.5000000000000011E-002    -1.5232556675531725     
   7.5299999999999992E-002    -1.5201645960220740     
   7.5600000000000001E-002    -1.4547059008393310     
   7.5900000000000009E-002    -1.3267457521148176     
   7.6200000000000004E-002    -1.1384863217349173     
   7.6499999999999999E-002   -0.89465885505749299     
   7.6800000000000007E-002   -0.60262035208524978     
   7.7099999999999988E-002   -0.27233845180794736     
   7.7399999999999997E-002     8.3793384105006211E-002
   7.7700000000000005E-002    0.45145601254914536     
   7.8000000000000014E-002    0.81496602135526730     
   7.8299999999999995E-002     1.1582292668802441     
   7.8600000000000003E-002     1.4654301022983751     
   7.8900000000000012E-002     1.7221460338034902     
   7.9199999999999993E-002     1.9163817735667399     
   7.9500000000000001E-002     2.0389074557490865     
   7.9800000000000010E-002     2.0839957994205194     
   8.0100000000000018E-002     2.0498919110575460     
   8.0399999999999999E-002     1.9383003916316914     
   8.0700000000000008E-002     1.7542693913839233     
   8.1000000000000003E-002     1.5059442117140005     
   8.1299999999999997E-002     1.2036476023098581     
   8.1600000000000006E-002    0.85932994850488997     
   8.1900000000000014E-002    0.48589150279116222     
   8.2199999999999995E-002     9.6594251978265044E-002
   8.2500000000000004E-002   -0.29517365230560005     
   8.2799999999999999E-002   -0.67619446519986925     
   8.3100000000000007E-002    -1.0338756007833394     
   8.3400000000000002E-002    -1.3559492818160770     
   8.3700000000000011E-002    -1.6308697891813360     
   8.4000000000000005E-002    -1.8480431889339961     
   8.4300000000000000E-002    -1.9978396290447793     
   8.4599999999999995E-002    -2.0726504729996318     
   8.4900000000000003E-002    -2.0668103592018445     
   8.5199999999999998E-002    -1.9777214641337877     
   8.5500000000000007E-002    -1.8065233353249646     
   8.5800000000000001E-002    -1.5581004846320003     
   8.6100000000000010E-002    -1.2421829919431717     
   8.6399999999999991E-002   -0.87264148554822185     
   8.6699999999999999E-002   -0.46736124002233381     
   8.7000000000000008E-002    -4.7623894220886170E-002
   8.7300000000000003E-002    0.36378582386019642     
   8.7599999999999997E-002    0.74307508199941652     
   8.7900000000000006E-002     1.0678957674763230     
   8.8200000000000014E-002     1.3189676589742005     
   8.8499999999999995E-002     1.4811365794727915     
   8.8800000000000004E-002     1.5452410869381004     
   8.9100000000000013E-002     1.5084690935602127     
   8.9399999999999993E-002     1.3750231661975660     
   8.9700000000000002E-002     1.1556896768935720     
   9.0000000000000011E-002    0.86701101458509755     
   9.0299999999999991E-002    0.53039411782071388     
   9.0600000000000000E-002    0.17011658509432612     
   9.0900000000000009E-002   -0.18833774938861106     
   9.1200000000000017E-002   -0.51996131903937115     
   9.1499999999999998E-002   -0.80221243948238496     
   9.1800000000000007E-002    -1.0165302209833880     
   9.2100000000000001E-002    -1.1493280058038748     
   9.2399999999999996E-002    -1.1931241688165766     
   9.2700000000000005E-002    -1.1465422555341100     
   9.3000000000000013E-002    -1.0142102367362731     
   9.3300000000000008E-002   -0.80642347111036616     
   9.3600000000000003E-002   -0.53781450381021123     
   9.3899999999999997E-002   -0.22671316216782328     
   9.4200000000000006E-002    0.10673609882083415     
   9.4500000000000001E-002    0.44188842198169892     
   9.4800000000000009E-002    0.75858798050809817     
   9.5100000000000004E-002     1.0389409759560635     
   9.5399999999999999E-002     1.2678532165873937     
   9.5699999999999993E-002     1.4341410904732346     
   9.6000000000000002E-002     1.5305074850029063     
   9.6300000000000011E-002     1.5539702048952164     
   9.6600000000000005E-002     1.5056564363025211     
   9.6900000000000000E-002     1.3896972823242941     
   9.7200000000000009E-002     1.2136081525828604     
   9.7499999999999989E-002    0.98658250993045415     
   9.7799999999999998E-002    0.71912993120818591     
   9.8100000000000007E-002    0.42268113509263783     
   9.8400000000000015E-002    0.10799815315059130     
   9.8699999999999996E-002   -0.21414763120734034     
   9.9000000000000005E-002   -0.53412563906023935     
   9.9300000000000013E-002   -0.84321711413832334     
   9.9599999999999994E-002    -1.1332926463678288     
   9.9900000000000003E-002    -1.3975870661887060     
  0.10020000000000001         -1.6296626933422100     
  0.10049999999999999         -1.8240259526895675     
  0.10080000000000000         -1.9755020105739787     
  0.10110000000000001         -2.0797201553008953     
  0.10140000000000000         -2.1333297831915976     
  0.10170000000000000         -2.1336607132209888     
  0.10200000000000001         -2.0796149200975744     
  0.10230000000000002         -1.9713001553825342     
  0.10260000000000000         -1.8106346140087202     
  0.10290000000000001         -1.6009510264304632     
  0.10320000000000000         -1.3470099053075022     
  0.10350000000000001         -1.0549088726558917     
  0.10380000000000000        -0.73156577645885346     
  0.10410000000000001        -0.38452182816921820     
  0.10440000000000001         -2.1556770132137734E-002
  0.10470000000000000         0.34935790808150424     
  0.10500000000000000         0.72069264670009325     
  0.10530000000000000          1.0845555404065834     
  0.10560000000000000          1.4328022410857846     
  0.10590000000000001          1.7571848980731899     
  0.10620000000000000          2.0485809744004264     
  0.10650000000000001          2.2975134297720623     
  0.10679999999999999          2.4933827668570139     
  0.10710000000000000          2.6258244699804774     
  0.10740000000000001          2.6848301494846849     
  0.10770000000000000          2.6613145148846047     
  0.10800000000000000          2.5489010852017602     
  0.10830000000000001          2.3441778314347754     
  0.10859999999999999          2.0483331104869951     
  0.10890000000000000          1.6675251593116709     
  0.10920000000000001          1.2128835178130108     
  0.10950000000000001         0.70137995284960197     
  0.10979999999999999         0.15393697070413787     
  0.11009999999999999        -0.40464570312907366     
  0.11040000000000001        -0.94746658828679098     
  0.11070000000000001         -1.4478351912155243     
  0.11100000000000000         -1.8797489589160579     
  0.11130000000000000         -2.2211604226473565     
  0.11160000000000002         -2.4543565988111768     
  0.11190000000000001         -2.5673004294834891     
  0.11220000000000001         -2.5550709012848296     
  0.11250000000000000         -2.4188121448486286     
  0.11280000000000000         -2.1669952664780610     
  0.11309999999999999         -1.8134814323775359     
  0.11340000000000001         -1.3772893743143833     
  0.11369999999999998        -0.88142922109295596     
  0.11400000000000000        -0.35076711441862030     
  0.11430000000000000         0.18805024374427454     
  0.11460000000000002         0.70984268774908521     
  0.11489999999999999          1.1908225367345755     
  0.11520000000000001          1.6101073465315054     
  0.11550000000000001          1.9517868103219360     
  0.11580000000000000          2.2038244333369117     
  0.11609999999999999          2.3608143144065372     
  0.11640000000000002          2.4223820940952692     
  0.11670000000000001          2.3935619570488944     
  0.11700000000000001          2.2849926627285750     
  0.11730000000000000          2.1104888037353344     
  0.11760000000000000          1.8877902731004994     
  0.11789999999999999          1.6356237677152048     
  0.11820000000000001          1.3727389357873736     
  0.11850000000000001          1.1169801525472256     
  0.11880000000000000         0.88242065583497431     
  0.11910000000000000         0.68007959799205331     
  0.11940000000000002         0.51561721615924005     
  0.11970000000000001         0.38943694679153423     
  0.12000000000000001         0.29794237091358083     
  0.12030000000000000         0.23207194315568613     
  0.12060000000000000         0.18040486876780565     
  0.12089999999999999         0.12967459320923722     
  0.12119999999999999          6.5998460632853431E-002
  0.12150000000000001         -2.2460666722293195E-002
  0.12180000000000001        -0.14508912464567561     
  0.12210000000000000        -0.30661821589716554     
  0.12239999999999999        -0.50786647268925644     
  0.12270000000000002        -0.74407375745752569     
  0.12300000000000001         -1.0056509748286051     
  0.12330000000000001         -1.2803933200619944     
  0.12360000000000000         -1.5526492362780648     
  0.12390000000000000         -1.8066348643852024     
  0.12419999999999999         -2.0271835516114631     
  0.12450000000000001         -2.2010807414232896     
  0.12480000000000001         -2.3196653137020640     
  0.12509999999999999         -2.3777693217964342     
  0.12540000000000001         -2.3757113361004589     
  0.12570000000000003         -2.3184684146609391     
  0.12600000000000000         -2.2147390332935970     
  0.12630000000000002         -2.0766014455884076     
  0.12659999999999999         -1.9171934067813701     
  0.12690000000000001         -1.7501551914251907     
  0.12719999999999998         -1.5878035020897097     
  0.12750000000000000         -1.4395732542239346     
  0.12780000000000002         -1.3116491691124366     
  0.12809999999999999         -1.2058163886716071     
  0.12840000000000001         -1.1202739483212591     
  0.12869999999999998         -1.0496877907733078     
  0.12900000000000000        -0.98526124370907309     
  0.12930000000000003        -0.91720004433420521     
  0.12959999999999999        -0.83485885766349566     
  0.12990000000000002        -0.72820862893177618     
  0.13019999999999998        -0.58942456898971185     
  0.13050000000000000        -0.41306952293016685     
  0.13080000000000003        -0.19766018142812447     
  0.13109999999999999          5.5009112914366054E-002
  0.13140000000000002         0.33883161102736792     
  0.13169999999999998         0.64452443504669199     
  0.13200000000000001         0.95965348436207232     
  0.13229999999999997          1.2700183932404034     
  0.13260000000000000          1.5601500294308184     
  0.13290000000000002          1.8141720222141804     
  0.13319999999999999          2.0181458797019038     
  0.13350000000000001          2.1594091257332249     
  0.13380000000000003          2.2292185978270425     
  0.13410000000000000          2.2226468926772140     
  0.13440000000000002          2.1390645055486193     
  0.13469999999999999          1.9838225826963645     
  0.13500000000000001          1.7658570914511078     
  0.13529999999999998          1.4995946200563819     
  0.13560000000000000          1.2027824506106459     
  0.13590000000000002         0.89504656480926670     
  0.13619999999999999         0.59727965919835024     
  0.13650000000000001         0.32901372866825873     
  0.13680000000000003         0.10752434607224309     
  0.13710000000000000         -5.4540147925901769E-002
  0.13740000000000002        -0.14968532234645762     
  0.13769999999999999        -0.17655422345489491     
  0.13800000000000001        -0.14013264551286275     
  0.13829999999999998         -5.0543749773421021E-002
  0.13860000000000000          7.6664994485728805E-002
  0.13890000000000002         0.22388060135401661     
  0.13919999999999999         0.37189070052766271     
  0.13950000000000001         0.50206742027028239     
  0.13979999999999998         0.59859327980936117     
  0.14010000000000000         0.64845886863539104     
  0.14040000000000002         0.64433635782011967     
  0.14069999999999999         0.58278578889584653     
  0.14100000000000001         0.46534684045393016     
  0.14130000000000004         0.29820370555065995     
  0.14160000000000000          8.9488769391388334E-002
  0.14189999999999997        -0.14867807009285600     
  0.14219999999999999        -0.40422037080410439     
  0.14250000000000002        -0.66384979867986094     
  0.14279999999999998        -0.91400696457287112     
  0.14310000000000000         -1.1428594005340831     
  0.14339999999999997         -1.3376786660658269     
  0.14369999999999999         -1.4884909584132000     
  0.14400000000000002         -1.5858171811532575     
  0.14429999999999998         -1.6220222901624233     
  0.14460000000000001         -1.5926414277465917     
  0.14490000000000003         -1.4944764379869893     
  0.14520000000000000         -1.3291169678224153     
  0.14550000000000002         -1.1002067643513991     
  0.14579999999999999        -0.81519410064153486     
  0.14610000000000001        -0.48512455126423315     
  0.14640000000000003        -0.12199944044638261     
  0.14670000000000000         0.25877118313898262     
  0.14699999999999996         0.64234988302952944     
  0.14729999999999999          1.0130948084609250     
  0.14760000000000001          1.3557224265009462     
  0.14789999999999998          1.6556768735867902     
  0.14820000000000000          1.8970799080082217     