  -1.4999999999999999E-002     0.0000000000000000     
  -1.4700000000000000E-002     0.0000000000000000     
  -1.4400000000000000E-002     0.0000000000000000     
  -1.4100000000000000E-002     2.4046393178454802E-035
  -1.3800000000000000E-002     4.9772973467084695E-033
  -1.3500000000000000E-002    -7.1894712603544835E-030
  -1.3200000000000000E-002    -2.4800220068313420E-028
  -1.2899999999999998E-002     8.5201145335611932E-027
  -1.2600000000000000E-002     3.7826708506558291E-026
  -1.2299999999999998E-002    -1.2574183534635555E-024
  -1.2000000000000000E-002     2.2680443942929625E-024
  -1.1699999999999999E-002     3.7225873335113808E-023
  -1.1399999999999999E-002    -1.2195126287232953E-022
  -1.1099999999999999E-002    -3.4820434848017303E-022
  -1.0799999999999999E-002     1.3284056045794566E-021
  -1.0499999999999999E-002     2.8709373100460879E-021
  -1.0199999999999999E-002    -8.3180997055265117E-021
  -9.8999999999999991E-003    -2.3424960314221616E-020
  -9.5999999999999992E-003     4.1599123442709901E-020
  -9.2999999999999992E-003     1.1419138782456984E-019
  -8.9999999999999993E-003    -4.8576955366763662E-020
  -8.6999999999999994E-003    -4.8721150402158975E-019
  -8.3999999999999995E-003    -5.1597934394545821E-019
  -8.0999999999999996E-003     1.2311865483125101E-018
  -7.7999999999999988E-003     4.8683440096417906E-018
  -7.4999999999999997E-003    -1.5223324866374577E-018
  -7.1999999999999998E-003    -2.0427403751384169E-017
  -6.8999999999999981E-003    -3.7094663281814653E-018
  -6.5999999999999982E-003     3.9862441905233809E-017
  -6.3000000000000000E-003     4.0864434958807443E-017
  -6.0000000000000001E-003     2.1416348575765755E-017
  -5.6999999999999985E-003    -1.4264969570082444E-016
  -5.3999999999999986E-003    -4.8830768281132579E-016
  -5.1000000000000004E-003     3.9764226029264775E-016
  -4.7999999999999987E-003     1.5040010161008363E-015
  -4.5000000000000005E-003    -4.3100363857508867E-016
  -4.1999999999999989E-003    -1.8740182526001060E-015
  -3.8999999999999990E-003    -2.3314125688004748E-016
  -3.5999999999999990E-003    -5.7239348679435593E-015
  -3.2999999999999991E-003     5.8275496184322193E-015
  -2.9999999999999992E-003     2.9729267968785010E-014
  -2.6999999999999993E-003    -2.9821192468284222E-014
  -2.3999999999999994E-003    -2.4253143585715218E-014
  -2.0999999999999977E-003     2.4750386643278091E-014
  -1.7999999999999995E-003    -9.2296533416731394E-014
  -1.4999999999999979E-003     1.6558603813453390E-013
  -1.1999999999999997E-003     1.7795681502623883E-013
  -8.9999999999999976E-004    -4.2699962599394423E-013
  -5.9999999999999810E-004     2.3433537705443002E-013
  -2.9999999999999992E-004    -3.1250770487574158E-013
   0.0000000000000000         -8.2474585939253299E-013
   3.0000000000000165E-004     2.9714046381675500E-012
   5.9999999999999984E-004    -9.4488540224522970E-013
   9.0000000000000149E-004    -3.8768399714446350E-012
   1.2000000000000031E-003     6.7640655807226937E-012
   1.5000000000000013E-003    -6.1157580304300371E-012
   1.8000000000000030E-003    -9.4413871325227428E-012
   2.1000000000000012E-003     2.7642619342494146E-011
   2.3999999999999994E-003    -6.4378541620698540E-012
   2.7000000000000010E-003    -3.3140356541475234E-011
   2.9999999999999992E-003     4.0729303447991342E-011
   3.3000000000000008E-003    -1.7185359169855940E-011
   3.6000000000000025E-003    -5.1581539918591445E-011
   3.9000000000000007E-003     1.0619272233131502E-010
   4.2000000000000023E-003    -2.2814965205811571E-011
   4.5000000000000005E-003    -1.1552421031433501E-010
   4.7999999999999987E-003     1.9016254736960627E-010
   5.1000000000000004E-003    -8.7423581764154891E-011
   5.4000000000000020E-003    -3.4899343890249808E-010
   5.7000000000000037E-003     4.7291455186841848E-010
   5.9999999999999984E-003     3.3028197965954916E-010
   6.3000000000000000E-003    -8.0688295971511441E-010
   6.6000000000000017E-003    -3.6864608049570724E-011
   6.9000000000000034E-003     8.7794491940198147E-010
   7.2000000000000015E-003    -4.2196762705737366E-010
   7.5000000000000032E-003    -7.2155938594536155E-010
   7.8000000000000014E-003     7.1282293941282573E-010
   8.0999999999999996E-003     5.0772021318608888E-010
   8.4000000000000012E-003    -5.1773350193193772E-010
   8.7000000000000029E-003    -2.3370077396094614E-010
   9.0000000000000011E-003     4.2047495117079332E-011
   9.2999999999999992E-003    -4.3688346425757880E-010
   9.6000000000000009E-003    -3.5924140944708722E-010
   9.8999999999999991E-003     2.0934070795936776E-009
   1.0200000000000001E-002     3.9158629790147334E-009
   1.0500000000000002E-002    -5.2449104829603188E-009
   1.0800000000000004E-002    -1.7707344602158983E-008
   1.1099999999999999E-002     4.8445405017936606E-009
   1.1400000000000000E-002     5.8014321687833170E-008
   1.1700000000000002E-002     3.1919399201140058E-008
   1.2000000000000004E-002    -1.4071700276306626E-007
   1.2300000000000002E-002    -2.0230367072358809E-007
   1.2600000000000000E-002     3.2165828752649680E-007
   1.2900000000000002E-002     1.5424302950821894E-006
   1.3200000000000000E-002     3.2824924199774854E-006
   1.3500000000000002E-002     5.6689538215395841E-006
   1.3800000000000003E-002     8.3187509493287154E-006
   1.4100000000000001E-002     1.0573601232431241E-005
   1.4400000000000000E-002     1.6089702224378833E-005
   1.4700000000000001E-002     3.2643313899931553E-005
   1.4999999999999999E-002     6.0149130826148833E-005
   1.5300000000000001E-002     8.6349210317158298E-005
   1.5600000000000003E-002     1.0482838973254721E-004
   1.5899999999999997E-002     1.2799339021845533E-004
   1.6199999999999999E-002     1.7039875803617763E-004
   1.6500000000000001E-002     2.2841045193559676E-004
   1.6800000000000002E-002     2.8825377772832134E-004
   1.7100000000000004E-002     3.4764226670417519E-004
   1.7400000000000006E-002     4.1391628643624155E-004
   1.7700000000000000E-002     4.7381000052723339E-004
   1.8000000000000002E-002     4.7291736026450844E-004
   1.8300000000000004E-002     3.2877648116232968E-004
   1.8600000000000005E-002    -5.5713790080408717E-005
   1.8900000000000000E-002    -8.0966235922304047E-004
   1.9200000000000002E-002    -2.1262273797472680E-003
   1.9500000000000003E-002    -4.2916336972223688E-003
   1.9799999999999998E-002    -7.7011136372412310E-003
   2.0100000000000000E-002    -1.2858510659896825E-002
   2.0400000000000001E-002    -2.0393786473895899E-002
   2.0700000000000003E-002    -3.1098379994501810E-002
   2.0999999999999998E-002    -4.5928764049157210E-002
   2.1299999999999999E-002    -6.5990635814842852E-002
   2.1600000000000001E-002    -9.2531166103084594E-002
   2.1900000000000003E-002   -0.12689511814640675     
   2.2200000000000004E-002   -0.17043387492981729     
   2.2500000000000006E-002   -0.22438290926953861     
   2.2800000000000001E-002   -0.28974297793015724     
   2.3100000000000002E-002   -0.36717568366139275     
   2.3400000000000004E-002   -0.45685779819701822     
   2.3699999999999999E-002   -0.55826519165537136     
   2.4000000000000000E-002   -0.66995564846357680     
   2.4300000000000002E-002   -0.78947450505608008     
   2.4599999999999997E-002   -0.91333231085210054     
   2.4900000000000005E-002    -1.0370170040739812     
   2.5200000000000000E-002    -1.1550692719820748     
   2.5499999999999995E-002    -1.2612305185091646     
   2.5800000000000003E-002    -1.3488609979280513     
   2.6099999999999998E-002    -1.4113013065378301     
   2.6400000000000007E-002    -1.4423872550767793     
   2.6700000000000002E-002    -1.4368727992371308     
   2.6999999999999996E-002    -1.3909772620373402     
   2.7300000000000005E-002    -1.3028511558006390     
   2.7600000000000000E-002    -1.1728511879311661     
   2.7900000000000008E-002    -1.0037045196919663     
   2.8200000000000003E-002   -0.80037924180620323     
   2.8499999999999998E-002   -0.57002626083228247     
   2.8800000000000006E-002   -0.32133979388185940     
   2.9100000000000001E-002    -6.3954476071649613E-002
   2.9400000000000003E-002    0.19199958896753602     
   2.9700000000000004E-002    0.43705839153025089     
   3.0000000000000006E-002    0.66261199152657335     
   3.0300000000000001E-002    0.86209439303444413     
   3.0600000000000002E-002     1.0309470706611443     
   3.0900000000000004E-002     1.1674821461139466     
   3.1199999999999999E-002     1.2725972764348648     
   3.1500000000000007E-002     1.3500718833981094     
   3.1800000000000002E-002     1.4064007725325967     
   3.2099999999999997E-002     1.4503736782839698     
   3.2400000000000005E-002     1.4927987830455247     
   3.2700000000000000E-002     1.5456345211392342     
   3.3000000000000002E-002     1.6219522071645867     
   3.3300000000000003E-002     1.7346875955805445     
   3.3599999999999998E-002     1.8956961140125212     
   3.3900000000000000E-002     2.1150795589603626     
   3.4200000000000001E-002     2.3993370014441830     
   3.4500000000000003E-002     2.7510329685298305     
   3.4799999999999998E-002     3.1667994562686217     
   3.5099999999999999E-002     3.6371420509266033     
   3.5400000000000001E-002     4.1456262244068753     
   3.5699999999999996E-002     4.6689531444379648     
   3.6000000000000004E-002     5.1775720369990061     
   3.6299999999999999E-002     5.6369522382965407     
   3.6600000000000008E-002     6.0098376328361258     
   3.6900000000000002E-002     6.2582645326784405     
   3.7199999999999997E-002     6.3467480446275086     
   3.7500000000000006E-002     6.2449781816110725     
   3.7800000000000000E-002     5.9305254148078914     
   3.8100000000000009E-002     5.3908755274569593     
   3.8400000000000004E-002     4.6252287164309340     
   3.8699999999999998E-002     3.6443178288713058     
   3.9000000000000007E-002     2.4711197201134718     
   3.9300000000000002E-002     1.1386585955792090     
   3.9600000000000003E-002   -0.31160469426378457     
   3.9900000000000005E-002    -1.8318569234453794     
   4.0200000000000000E-002    -3.3713985811797289     
   4.0500000000000001E-002    -4.8780951869819056     
   4.0800000000000003E-002    -6.3015713392900832     
   4.1100000000000005E-002    -7.5947063745515653     
   4.1399999999999999E-002    -8.7150204319595286     
   4.1700000000000008E-002    -9.6257547325007824     
   4.2000000000000003E-002    -10.296609624094229     
   4.2299999999999997E-002    -10.704111775317873     
   4.2600000000000006E-002    -10.832077364918124     
   4.2900000000000001E-002    -10.672847805126970     
   4.3200000000000002E-002    -10.227244759636132     
   4.3500000000000004E-002    -9.5058099483999214     
   4.3799999999999999E-002    -8.5296599533893271     
   4.4100000000000000E-002    -7.3303974360931647     
   4.4400000000000002E-002    -5.9510547796419218     
   4.4700000000000004E-002    -4.4441048149846196     
   4.4999999999999998E-002    -2.8715657457448427     
   4.5300000000000000E-002    -1.3010811163195259     
   4.5600000000000002E-002    0.19672762028780855     
   4.5899999999999996E-002     1.5516631373716643     
   4.6200000000000005E-002     2.6995910244275754     
   4.6500000000000000E-002     3.5852213602406424     
   4.6799999999999994E-002     4.1684370728202760     
   4.7100000000000003E-002     4.4255399084812037     
   4.7399999999999998E-002     4.3546005438378952     
   4.7700000000000006E-002     3.9747461974690301     
   4.8000000000000001E-002     3.3281987539794713     
   4.8300000000000010E-002     2.4783987502030618     
   4.8600000000000004E-002     1.5072855010072364     
   4.8899999999999999E-002    0.51177882264543861     
   4.9200000000000008E-002   -0.40212357764141637     
   4.9500000000000002E-002    -1.1264669333788118     
   4.9800000000000011E-002    -1.5583426149932995     
   5.0100000000000006E-002    -1.6100862368238238     
   5.0400000000000000E-002    -1.2152327931309752     
   5.0700000000000009E-002   -0.34045685017258553     
   5.1000000000000004E-002     1.0113026701656909     
   5.1299999999999998E-002     2.7920129301773793     
   5.1600000000000007E-002     4.9095763159632479     
   5.1900000000000002E-002     7.2284564838706711     
   5.2200000000000010E-002     9.5747211221546191     
   5.2500000000000005E-002     11.747857392954462     
   5.2800000000000000E-002     13.532636060947794     
   5.3099999999999994E-002     14.718430404569560     
   5.3400000000000003E-002     15.116065735276109     
   5.3699999999999998E-002     14.578003947820108     
   5.4000000000000006E-002     13.015479756044932     
   5.4300000000000001E-002     10.410938959527762     
   5.4599999999999996E-002     6.8269997262947335     
   5.4900000000000004E-002     2.4069620333399131     
   5.5199999999999999E-002    -2.6307294577461007     
   5.5499999999999994E-002    -8.0063325950060946     
   5.5800000000000002E-002    -13.397232068684630     
   5.6099999999999997E-002    -18.463324517522995     
   5.6400000000000006E-002    -22.871914626042020     
   5.6700000000000000E-002    -26.326147061358910     
   5.6999999999999995E-002    -28.586061539108961     
   5.7300000000000004E-002    -29.491289478830069     
   5.7599999999999998E-002    -28.968559979046823     
   5.7900000000000007E-002    -27.041941884180801     
   5.8200000000000002E-002    -23.823108690623933     
   5.8499999999999996E-002    -19.506158715601103     
   5.8800000000000005E-002    -14.346410730523964     
   5.9100000000000000E-002    -8.6404838004072353     
   5.9400000000000008E-002    -2.7032007884363942     
   5.9700000000000003E-002     3.1595013637191705     
   6.0000000000000012E-002     8.6648319743522002     
   6.0300000000000006E-002     13.581081277584161     
   6.0600000000000001E-002     17.727334423519096     
   6.0900000000000010E-002     20.989732919863773     
   6.1200000000000004E-002     23.317548235122384     
   6.1500000000000013E-002     24.715086160011008     
   6.1800000000000008E-002     25.241826244728198     
   6.2100000000000002E-002     24.988559280019764     
   6.2399999999999997E-002     24.075340368217699     
   6.2700000000000006E-002     22.630082393530024     
   6.3000000000000000E-002     20.782194103188143     
   6.3300000000000009E-002     18.651596596803955     
   6.3600000000000004E-002     16.339588551744779     
   6.3899999999999998E-002     13.930944319530173     
   6.4199999999999993E-002     11.485242483713233     
   6.4500000000000002E-002     9.0461583432476367     
   6.4800000000000010E-002     6.6384401315474655     
   6.5100000000000005E-002     4.2762063413646425     
   6.5400000000000000E-002     1.9668871020213272     
   6.5700000000000008E-002   -0.28659591494257297     
   6.5999999999999989E-002    -2.4753764429603784     
   6.6299999999999998E-002    -4.5914508628110733     
   6.6600000000000006E-002    -6.6124476630000721     
   6.6900000000000001E-002    -8.5139794059336964     
   6.7199999999999996E-002    -10.260262034472028     
   6.7500000000000004E-002    -11.811223691336782     
   6.7800000000000013E-002    -13.122797538181429     
   6.8099999999999994E-002    -14.151469571724803     
   6.8400000000000002E-002    -14.857410727161191     
   6.8700000000000011E-002    -15.208755835370489     
   6.8999999999999992E-002    -15.185784181328394     
   6.9300000000000000E-002    -14.782141922798083     
   6.9600000000000009E-002    -14.009818261970285     
   6.9900000000000004E-002    -12.897257187267364     
   7.0199999999999999E-002    -11.489652390705956     
   7.0500000000000007E-002    -9.8477837380792401     
   7.0800000000000016E-002    -8.0433339641739110     
   7.1099999999999997E-002    -6.1569764543117671     
   7.1400000000000005E-002    -4.2697876054645310     
   7.1700000000000000E-002    -2.4634388079670009     
   7.1999999999999995E-002   -0.80703116883926063     
   7.2300000000000003E-002    0.63551284596723157     
   7.2600000000000012E-002     1.8238485280373240     
   7.2900000000000006E-002     2.7282111566426925     
   7.3200000000000001E-002     3.3444830429599204     
   7.3499999999999996E-002     3.6835597422916533     
   7.3800000000000004E-002     3.7754990000687192     
   7.4099999999999999E-002     3.6653710257255323     
   7.4400000000000008E-002     3.4073425506465789     
   7.4700000000000003E-002     3.0656433784576489     
   7.5000000000000011E-002     2.7009250949931736     
   7.5299999999999992E-002     2.3758432512527037     
   7.5600000000000001E-002     2.1408264432267154     
   7.5900000000000009E-002     2.0365965245233077     
   7.6200000000000004E-002     2.0875502529845793     
   7.6499999999999999E-002     2.3015768348246994     
   7.6800000000000007E-002     2.6698419126857749     
   7.7099999999999988E-002     3.1649020016005762     
   7.7399999999999997E-002     3.7486586374345165     
   7.7700000000000005E-002     4.3684412517766011     
   7.8000000000000014E-002     4.9691366970677011     
   7.8299999999999995E-002     5.4910774153785802     
   7.8600000000000003E-002     5.8817146466941370     
   7.8900000000000012E-002     6.0924505420749515     
   7.9199999999999993E-002     6.0910752135504662     
   7.9500000000000001E-002     5.8568080760546612     
   7.9800000000000010E-002     5.3872264503580141     
   8.0100000000000018E-002     4.6961744224449520     
   8.0399999999999999E-002     3.8114661767752542     
   8.0700000000000008E-002     2.7772564414857670     
   8.1000000000000003E-002     1.6434820463149293     
   8.1299999999999997E-002    0.47120511471835436     
   8.1600000000000006E-002   -0.68077945841699405     
   8.1900000000000014E-002    -1.7514408272914626     
   8.2199999999999995E-002    -2.6889932016742786     
   8.2500000000000004E-002    -3.4486110245440020     
   8.2799999999999999E-002    -3.9980588460352893     
   8.3100000000000007E-002    -4.3191821100030365     
   8.3400000000000002E-002    -4.4075805893809425     
   8.3700000000000011E-002    -4.2747859949527536     
   8.4000000000000005E-002    -3.9451331687881854     
   8.4300000000000000E-002    -3.4562013653734387     
   8.4599999999999995E-002    -2.8527330585812205     
   8.4900000000000003E-002    -2.1882237148853041     
   8.5199999999999998E-002    -1.5147526364493464     
   8.5500000000000007E-002   -0.88557670966402591     
   8.5800000000000001E-002   -0.34663156149494578     
   8.6100000000000010E-002     6.5537587522632196E-002
   8.6399999999999991E-002    0.32459310047885681     
   8.6699999999999999E-002    0.42018250376783822     
   8.7000000000000008E-002    0.35366415464304318     
   8.7300000000000003E-002    0.14188159756913560     
   8.7599999999999997E-002   -0.18802878617796681     
   8.7900000000000006E-002   -0.59876420077466386     
   8.8200000000000014E-002    -1.0481944619580621     
   8.8499999999999995E-002    -1.4915612054123024     
   8.8800000000000004E-002    -1.8873060007256415     
   8.9100000000000013E-002    -2.1973371281178764     
   8.9399999999999993E-002    -2.3945929851672170     
   8.9700000000000002E-002    -2.4595857369976044     
   9.0000000000000011E-002    -2.3861183216358066     
   9.0299999999999991E-002    -2.1772449014922781     
   9.0600000000000000E-002    -1.8465901293867413     
   9.0900000000000009E-002    -1.4167325656555088     
   9.1200000000000017E-002   -0.91325042747442930     
   9.1499999999999998E-002   -0.36807077646889841     
   9.1800000000000007E-002    0.18978305037166335     
   9.2100000000000001E-002    0.73080997596808928     
   9.2399999999999996E-002     1.2289116628654584     
   9.2700000000000005E-002     1.6649336597356315     
   9.3000000000000013E-002     2.0204751313841589     
   9.3300000000000008E-002     2.2874929438310860     
   9.3600000000000003E-002     2.4572144035676713     
   9.3899999999999997E-002     2.5301927621855049     
   9.4200000000000006E-002     2.5072199291436803     
   9.4500000000000001E-002     2.3933005543489934     
   9.4800000000000009E-002     2.1982796100215536     
   9.5100000000000004E-002     1.9313194722175582     
   9.5399999999999999E-002     1.6078009075700770     
   9.5699999999999993E-002     1.2434905223066828     
   9.6000000000000002E-002    0.85707691642370409     
   9.6300000000000011E-002    0.46954733765779000     
   9.6600000000000005E-002    0.10144266496084978     
   9.6900000000000000E-002   -0.22421612645430578     
   9.7200000000000009E-002   -0.49025877590248901     
   9.7499999999999989E-002   -0.67845489064643061     
   9.7799999999999998E-002   -0.77908924612682628     
   9.8100000000000007E-002   -0.78613539342405725     
   9.8400000000000015E-002   -0.70195264469581153     
   9.8699999999999996E-002   -0.53595342892471476     
   9.9000000000000005E-002   -0.30405519511754342     
   9.9300000000000013E-002    -2.8379044198577966E-002
   9.9599999999999994E-002    0.26566228295288480     
   9.9900000000000003E-002    0.55064678050125360     
  0.10020000000000001         0.79985298980202613     
  0.10049999999999999         0.99016779970421620     
  0.10080000000000000          1.1032447776638583     
  0.10110000000000001          1.1280298460303140     
  0.10140000000000000          1.0610435288241700     
  0.10170000000000000         0.90635279988123008     
  0.10200000000000001         0.67587320626162750     
  0.10230000000000002         0.38774494244849333     
  0.10260000000000000          6.2411884624989603E-002
  0.10290000000000001        -0.27325777041213667     
  0.10320000000000000        -0.59760824646791688     
  0.10350000000000001        -0.88563754559338870     
  0.10380000000000000         -1.1198225280919676     
  0.10410000000000001         -1.2853114015366349     
  0.10440000000000001         -1.3742151419887012     
  0.10470000000000000         -1.3842129213685137     
  0.10500000000000000         -1.3198143727895817     
  0.10530000000000000         -1.1898709378419894     
  0.10560000000000000         -1.0090298118242815     
  0.10590000000000001        -0.79477247769099479     
  0.10620000000000000        -0.56554853511005976     
  0.10650000000000001        -0.34230713004132546     
  0.10679999999999999        -0.14243501845941195     
  0.10710000000000000          1.7838577790354998E-002
  0.10740000000000001         0.12576861427740860     
  0.10770000000000000         0.17503944709834912     
  0.10800000000000000         0.16230289014338067     
  0.10830000000000001          9.1170458358615286E-002
  0.10859999999999999         -3.0584956731424764E-002
  0.10890000000000000        -0.18972616739695936     
  0.10920000000000001        -0.37228430723019990     
  0.10950000000000001        -0.55798502379917536     
  0.10979999999999999        -0.73143724249271025     
  0.11009999999999999        -0.87318218165175532     
  0.11040000000000001        -0.96990300309976529     
  0.11070000000000001         -1.0096663594620545     
  0.11100000000000000        -0.98681877339809310     
  0.11130000000000000        -0.89875390115002984     
  0.11160000000000002        -0.74990987140301724     
  0.11190000000000001        -0.54829621359492409     
  0.11220000000000001        -0.30577770136519300     
  0.11250000000000000         -3.8068517767683982E-002
  0.11280000000000000         0.23864761428610151     
  0.11309999999999999         0.50677605027915562     
  0.11340000000000001         0.75119123345050975     
  0.11369999999999998         0.95744043605077866     
  0.11400000000000000          1.1147809210384412     
  0.11430000000000000          1.2172038635556719     
  0.11460000000000002          1.2597942778585953     
  0.11489999999999999          1.2458897652789722     
  0.11520000000000001          1.1768342556286253     
  0.11550000000000001          1.0638632895329578     
  0.11580000000000000         0.91257812303975339     
  0.11609999999999999         0.73799896830928002     
  0.11640000000000002         0.54962556438215515     
  0.11670000000000001         0.36061356231672559     
  0.11700000000000001         0.18292136831198752     
  0.11730000000000000          2.4422209716096127E-002
  0.11760000000000000        -0.10426262343088824     
  0.11789999999999999        -0.19938111882161880     
  0.11820000000000001        -0.25607139439884852     
  0.11850000000000001        -0.27407841758544960     
  0.11880000000000000        -0.25537489007299874     
  0.11910000000000000        -0.20325332982435509     
  0.11940000000000002        -0.12478487928854748     
  0.11970000000000001         -2.5887906933550899E-002
  0.12000000000000001          8.2340095625123733E-002
  0.12030000000000000         0.19375835074891229     
  0.12060000000000000         0.29698012070294078     
  0.12089999999999999         0.38651704425069061     
  0.12119999999999999         0.45443183008226273     
  0.12150000000000001         0.49676316992648928     
  0.12180000000000001         0.51057797959635387     
  0.12210000000000000         0.49532312266436829     
  0.12239999999999999         0.45182729574429836     
  0.12270000000000002         0.38317196151460403     
  0.12300000000000001         0.29345209470780909     
  0.12330000000000001         0.18713023516063271     
  0.12360000000000000          7.0803541114399793E-002
  0.12390000000000000         -5.0437388311999287E-002
  0.12419999999999999        -0.17005974530075935     
  0.12450000000000001        -0.28242640288751608     
  0.12480000000000001        -0.38210401762752777     
  0.12509999999999999        -0.46461076293146153     
  0.12540000000000001        -0.52573991833840816     
  0.12570000000000003        -0.56274074255437001     
  0.12600000000000000        -0.57403301350481206     
  0.12630000000000002        -0.55842085561531496     
  0.12659999999999999        -0.51874183409345542     
  0.12690000000000001        -0.45470755582786304     
  0.12719999999999998        -0.37251143003065645     
  0.12750000000000000        -0.27470120567280776     
  0.12780000000000002        -0.16771746841072141     
  0.12809999999999999         -5.7277886523207450E-002
  0.12840000000000001          5.2264327461095036E-002
  0.12869999999999998         0.15335794510320905     
  0.12900000000000000         0.24416966581352706     
  0.12930000000000003         0.31802488423945063     
  0.12959999999999999         0.37485128162426479     
  0.12990000000000002         0.41059415648563091     
  0.13019999999999998         0.42613972182021304     
  0.13050000000000000         0.42093641804312132     
  0.13080000000000003         0.39578707485375625     
  0.13109999999999999         0.35385998677441866     
  0.13140000000000002         0.29635733609828951     
  0.13169999999999998         0.22817309985750411     
  0.13200000000000001         0.15193672089352819     
  0.13229999999999997          7.3040232611352979E-002
  0.13260000000000000         -4.4460915801165166E-003
  0.13290000000000002         -7.6845606884328996E-002
  0.13319999999999999        -0.13947581890711869     
  0.13350000000000001        -0.19007225912891229     
  0.13380000000000003        -0.22675583020359313     
  0.13410000000000000        -0.24854851889632429     
  0.13440000000000002        -0.25684095559071191     
  0.13469999999999999        -0.25345238372469059     
  0.13500000000000001        -0.24050246992804003     
  0.13529999999999998        -0.22316493925086761     
  0.13560000000000000        -0.20258650725506000     
  0.13590000000000002        -0.18503472517107808     
  0.13619999999999999        -0.17065583589146843     
  0.13650000000000001        -0.16355053042671444     
  0.13680000000000003        -0.16373210320580195     
  0.13710000000000000        -0.17129725317932093     
  0.13740000000000002        -0.18638246588646168     
  0.13769999999999999        -0.20632681105049810     
  0.13800000000000001        -0.23097767147450846     
  0.13829999999999998        -0.25708930435482152     
  0.13860000000000000        -0.28331010198650491     
  0.13890000000000002        -0.30753994507273147     
  0.13919999999999999        -0.32759634943654747     
  0.13950000000000001        -0.34246580485844269     
  0.13979999999999998        -0.34934390651445490     
  0.14010000000000000        -0.34806762744054670     
  0.14040000000000002        -0.33683974694002072     
  0.14069999999999999        -0.31459717638547241     
  0.14100000000000001        -0.28219595820193122     
  0.14130000000000004        -0.23874778740041752     
  0.14160000000000000        -0.18649870892470238     
  0.14189999999999997        -0.12653575483935459     
  0.14219999999999999         -6.1358685918534842E-002
  0.14250000000000002          5.6157396244078941E-003
  0.14279999999999998          7.2349915608330553E-002
  0.14310000000000000         0.13424889194699802     
  0.14339999999999997         0.19019927685930918     
  0.14369999999999999         0.23654335765416695     
  0.14400000000000002         0.27274330960966520     
  0.14429999999999998         0.29772380661847819     
  0.14460000000000001         0.31129636275780226     
  0.14490000000000003         0.31486890116794980     
  0.14520000000000000         0.30852087279018220     
  0.14550000000000002         0.29496893839874061     
  0.14579999999999999         0.27486967241895160     
  0.14610000000000001         0.25077370207708660     
  0.14640000000000003         0.22394644797494664     
  0.14670000000000000         0.19550707523098743     
  0.14699999999999996         0.16754602702185148     
  0.14729999999999999         0.14042936535224651     
  0.14760000000000001         0.11580903996459621     
  0.14789999999999998          9.4282090410270636E-002
  0.14820000000000000          7.5751433101195184E-002