  -1.4999999999999999E-002     0.0000000000000000     
  -1.4700000000000000E-002     0.0000000000000000     
  -1.4400000000000000E-002     0.0000000000000000     
  -1.4100000000000000E-002     0.0000000000000000     
  -1.3800000000000000E-002     0.0000000000000000     
  -1.3500000000000000E-002     0.0000000000000000     
  -1.3200000000000000E-002     0.0000000000000000     
  -1.2899999999999998E-002     0.0000000000000000     
  -1.2600000000000000E-002     0.0000000000000000     
  -1.2299999999999998E-002     0.0000000000000000     
  -1.2000000000000000E-002     0.0000000000000000     
  -1.1699999999999999E-002     0.0000000000000000     
  -1.1399999999999999E-002     0.0000000000000000     
  -1.1099999999999999E-002     0.0000000000000000     
  -1.0799999999999999E-002     0.0000000000000000     
  -1.0499999999999999E-002     0.0000000000000000     
  -1.0199999999999999E-002     0.0000000000000000     
  -9.8999999999999991E-003     0.0000000000000000     
  -9.5999999999999992E-003     0.0000000000000000     
  -9.2999999999999992E-003     0.0000000000000000     
  -8.9999999999999993E-003     0.0000000000000000     
  -8.6999999999999994E-003     0.0000000000000000     
  -8.3999999999999995E-003     0.0000000000000000     
  -8.0999999999999996E-003     0.0000000000000000     
  -7.7999999999999988E-003     0.0000000000000000     
  -7.4999999999999997E-003     0.0000000000000000     
  -7.1999999999999998E-003     0.0000000000000000     
  -6.8999999999999981E-003     0.0000000000000000     
  -6.5999999999999982E-003     0.0000000000000000     
  -6.3000000000000000E-003     0.0000000000000000     
  -6.0000000000000001E-003     0.0000000000000000     
  -5.6999999999999985E-003     0.0000000000000000     
  -5.3999999999999986E-003     0.0000000000000000     
  -5.1000000000000004E-003     0.0000000000000000     
  -4.7999999999999987E-003     0.0000000000000000     
  -4.5000000000000005E-003     0.0000000000000000     
  -4.1999999999999989E-003     0.0000000000000000     
  -3.8999999999999990E-003     0.0000000000000000     
  -3.5999999999999990E-003     0.0000000000000000     
  -3.2999999999999991E-003     0.0000000000000000     
  -2.9999999999999992E-003     0.0000000000000000     
  -2.6999999999999993E-003     0.0000000000000000     
  -2.3999999999999994E-003     0.0000000000000000     
  -2.0999999999999977E-003     0.0000000000000000     
  -1.7999999999999995E-003     0.0000000000000000     
  -1.4999999999999979E-003     0.0000000000000000     
  -1.1999999999999997E-003     0.0000000000000000     
  -8.9999999999999976E-004     0.0000000000000000     
  -5.9999999999999810E-004     0.0000000000000000     
  -2.9999999999999992E-004     0.0000000000000000     
   0.0000000000000000          0.0000000000000000     
   3.0000000000000165E-004     0.0000000000000000     
   5.9999999999999984E-004     0.0000000000000000     
   9.0000000000000149E-004     0.0000000000000000     
   1.2000000000000031E-003     0.0000000000000000     
   1.5000000000000013E-003     0.0000000000000000     
   1.8000000000000030E-003     0.0000000000000000     
   2.1000000000000012E-003     0.0000000000000000     
   2.3999999999999994E-003     0.0000000000000000     
   2.7000000000000010E-003     0.0000000000000000     
   2.9999999999999992E-003     0.0000000000000000     
   3.3000000000000008E-003     0.0000000000000000     
   3.6000000000000025E-003     0.0000000000000000     
   3.9000000000000007E-003     0.0000000000000000     
   4.2000000000000023E-003     0.0000000000000000     
   4.5000000000000005E-003     0.0000000000000000     
   4.7999999999999987E-003     0.0000000000000000     
   5.1000000000000004E-003     0.0000000000000000     
   5.4000000000000020E-003     0.0000000000000000     
   5.7000000000000037E-003     0.0000000000000000     
   5.9999999999999984E-003     0.0000000000000000     
   6.3000000000000000E-003     0.0000000000000000     
   6.6000000000000017E-003     0.0000000000000000     
   6.9000000000000034E-003     0.0000000000000000     
   7.2000000000000015E-003     0.0000000000000000     
   7.5000000000000032E-003     0.0000000000000000     
   7.8000000000000014E-003     0.0000000000000000     
   8.0999999999999996E-003     0.0000000000000000     
   8.4000000000000012E-003     2.7835039613145820E-036
   8.7000000000000029E-003     3.7429584408992510E-035
   9.0000000000000011E-003    -7.0970918238944000E-035
   9.2999999999999992E-003    -1.0912645190594573E-034
   9.6000000000000009E-003     3.7492513578540008E-034
   9.8999999999999991E-003    -2.4093302445664661E-033
   1.0200000000000001E-002     6.6557594229979202E-033
   1.0500000000000002E-002    -9.5524446888735097E-033
   1.0800000000000004E-002    -6.4469530801471688E-034
   1.1099999999999999E-002     3.1583916741540015E-032
   1.1400000000000000E-002    -4.9291160466066266E-032
   1.1700000000000002E-002    -3.8154406509314044E-032
   1.2000000000000004E-002     2.5306981854511889E-031
   1.2300000000000002E-002    -2.8758978910087657E-031
   1.2600000000000000E-002    -4.4821049926944162E-031
   1.2900000000000002E-002     1.7897801437895673E-030
   1.3200000000000000E-002    -1.3547030391659229E-030
   1.3500000000000002E-002    -4.0494486664304318E-030
   1.3800000000000003E-002     1.1108562259668215E-029
   1.4100000000000001E-002    -3.7620136131997902E-030
   1.4400000000000000E-002    -3.1252977241031110E-029
   1.4700000000000001E-002     6.0637916025059398E-029
   1.4999999999999999E-002     8.2027612381056011E-030
   1.5300000000000001E-002    -2.0482234533744286E-028
   1.5600000000000003E-002     2.8200787918754028E-028
   1.5899999999999997E-002     2.0591464983947107E-028
   1.6199999999999999E-002    -1.1471090061177871E-027
   1.6500000000000001E-002     1.0693846948042121E-027
   1.6800000000000002E-002     1.7460188881110660E-027
   1.7100000000000004E-002    -5.4874942987259470E-027
   1.7400000000000006E-002     2.9442205917918274E-027
   1.7700000000000000E-002     1.0594690679698283E-026
   1.8000000000000002E-002    -2.2212349465334023E-026
   1.8300000000000004E-002     2.9783689993669339E-027
   1.8600000000000005E-002     5.1235852156379129E-026
   1.8900000000000000E-002    -7.4039101249343474E-026
   1.9200000000000002E-002    -2.5943922347454071E-026
   1.9500000000000003E-002     2.0195557061070086E-025
   1.9799999999999998E-002    -1.8920038251530379E-025
   2.0100000000000000E-002    -2.0998755729770906E-025
   2.0400000000000001E-002     6.3648702115720895E-025
   2.0700000000000003E-002    -2.8395619304280322E-025
   2.0999999999999998E-002    -9.3456550574797690E-025
   2.1299999999999999E-002     1.4678326788171233E-024
   2.1600000000000001E-002     3.1635900499256383E-025
   2.1900000000000003E-002    -2.8224415372058334E-024
   2.2200000000000004E-002     1.5251306345108313E-024
   2.2500000000000006E-002     3.9918891438255083E-024
   2.2800000000000001E-002    -4.8761296390445866E-024
   2.3100000000000002E-002    -6.3909616157492955E-024
   2.3400000000000004E-002     1.6167877839596400E-023
   2.3699999999999999E-002     4.5358466531246277E-024
   2.4000000000000000E-002    -5.1833850290846948E-023
   2.4300000000000002E-002     5.1931119181475948E-023
   2.4599999999999997E-002     8.8804888173038631E-023
   2.4900000000000005E-002    -3.4776085355353187E-022
   2.5200000000000000E-002     3.4342502584136934E-022
   2.5499999999999995E-002     1.0821956812950796E-021
   2.5800000000000003E-002    -5.0259298886280106E-021
   2.6099999999999998E-002     5.2409686359910999E-021
   2.6400000000000007E-002     2.4087160478400410E-020
   2.6700000000000002E-002    -9.7284049177289449E-020
   2.6999999999999996E-002     5.2063281039849986E-020
   2.7300000000000005E-002     5.6653363659507566E-019
   2.7600000000000000E-002    -1.5473707480028305E-018
   2.7900000000000008E-002    -6.1868726227663098E-019
   2.8200000000000003E-002     1.0950403441267642E-017
   2.8499999999999998E-002    -1.5497411818344515E-017
   2.8800000000000006E-002    -3.9654845833731564E-017
   2.9100000000000001E-002     1.4924601001883222E-016
   2.9400000000000003E-002     2.2096440451290482E-017
   2.9700000000000004E-002    -8.8135645095850666E-016
   3.0000000000000006E-002     9.0544577874046516E-016
   3.0300000000000001E-002     4.2154384684694694E-015
   3.0600000000000002E-002    -1.0420350980694383E-014
   3.0900000000000004E-002    -1.3072637527572629E-014
   3.1199999999999999E-002     7.9809116588408823E-014
   3.1500000000000007E-002    -2.9738556275599149E-014
   3.1800000000000002E-002    -4.0912870614092425E-013
   3.2099999999999997E-002     7.1833408556875992E-013
   3.2400000000000005E-002     1.1078631876195843E-012
   3.2700000000000000E-002    -4.9238023134651507E-012
   3.3000000000000002E-002     1.3331944286281749E-012
   3.3300000000000003E-002     1.9465974588443167E-011
   3.3599999999999998E-002    -2.9016971651092701E-011
   3.3900000000000000E-002    -4.0732950760331302E-011
   3.4200000000000001E-002     1.5149145244659313E-010
   3.4500000000000003E-002    -2.5179279683329815E-011
   3.4799999999999998E-002    -4.6846688436482777E-010
   3.5099999999999999E-002     5.5709901063353619E-010
   3.5400000000000001E-002     8.3402700607760340E-010
   3.5699999999999996E-002    -2.3717754034310774E-009
   3.6000000000000004E-002    -5.1142233095823284E-011
   3.6299999999999999E-002     6.1556775138701633E-009
   3.6600000000000008E-002    -5.1296788033093938E-009
   3.6900000000000002E-002    -1.0193962505573288E-008
   3.7199999999999997E-002     1.9279286234651905E-008
   3.7500000000000006E-002     6.3321888268650146E-009
   3.7800000000000000E-002    -4.4042440975838865E-008
   3.8100000000000009E-002     2.1712653276370832E-008
   3.8400000000000004E-002     6.4513236280519524E-008
   3.8699999999999998E-002    -1.3206035519557795E-007
   3.9000000000000007E-002     1.3341630454376217E-008
   3.9300000000000002E-002     1.8478255142554102E-006
   3.9600000000000003E-002     7.2780316455625323E-006
   3.9900000000000005E-002     1.7807781252174777E-005
   4.0200000000000000E-002     3.1141053856767562E-005
   4.0500000000000001E-002     4.2840240191724139E-005
   4.0800000000000003E-002     5.5803247090179793E-005
   4.1100000000000005E-002     8.0693141310911494E-005
   4.1399999999999999E-002     1.2508619376765166E-004
   4.1700000000000008E-002     1.9293172307399174E-004
   4.2000000000000003E-002     2.9248260293730598E-004
   4.2299999999999997E-002     4.3664500282768003E-004
   4.2600000000000006E-002     6.4173129927036130E-004
   4.2900000000000001E-002     9.2748163043199900E-004
   4.3200000000000002E-002     1.3162404927802287E-003
   4.3500000000000004E-002     1.8388731404280030E-003
   4.3799999999999999E-002     2.5346650887068450E-003
   4.4100000000000000E-002     3.4375004144279941E-003
   4.4400000000000002E-002     4.5739540582844379E-003
   4.4700000000000004E-002     5.9781613212702058E-003
   4.4999999999999998E-002     7.6931276508763486E-003
   4.5300000000000000E-002     9.7501282517985319E-003
   4.5600000000000002E-002     1.2143073201362861E-002
   4.5899999999999996E-002     1.4833103526664393E-002
   4.6200000000000005E-002     1.7768217893010519E-002
   4.6500000000000000E-002     2.0867055946609772E-002
   4.6799999999999994E-002     2.3989530922795942E-002
   4.7100000000000003E-002     2.6958004208830374E-002
   4.7399999999999998E-002     2.9585756802969803E-002
   4.7700000000000006E-002     3.1666696321348817E-002
   4.8000000000000001E-002     3.2966151811333159E-002
   4.8300000000000010E-002     3.3270511412827775E-002
   4.8600000000000004E-002     3.2441280037991828E-002
   4.8899999999999999E-002     3.0436622696817253E-002
   4.9200000000000008E-002     2.7311258340108623E-002
   4.9500000000000002E-002     2.3227747517782001E-002
   4.9800000000000011E-002     1.8460068635567126E-002
   5.0100000000000006E-002     1.3382851842532850E-002
   5.0400000000000000E-002     8.3963377173956518E-003
   5.0700000000000009E-002     3.8568060947389714E-003
   5.1000000000000004E-002    -1.9659409901580708E-005
   5.1299999999999998E-002    -3.2563469534982589E-003
   5.1600000000000007E-002    -6.2278173315725698E-003
   5.1900000000000002E-002    -9.8006690634349289E-003
   5.2200000000000010E-002    -1.5334397154140939E-002
   5.2500000000000005E-002    -2.4624968891715737E-002
   5.2800000000000000E-002    -3.9833031420159912E-002
   5.3099999999999994E-002    -6.3353195047833391E-002
   5.3400000000000003E-002    -9.7496665481977635E-002
   5.3699999999999998E-002   -0.14416027876255225     
   5.4000000000000006E-002   -0.20444090202449527     
   5.4300000000000001E-002   -0.27830409873663298     
   5.4599999999999996E-002   -0.36422485420752443     
   5.4900000000000004E-002   -0.45898214815865052     
   5.5199999999999999E-002   -0.55759920108914207     
   5.5499999999999994E-002   -0.65348245742550592     
   5.5800000000000002E-002   -0.73871627087483993     
   5.6099999999999997E-002   -0.80461153544545527     
   5.6400000000000006E-002   -0.84236208160425463     
   5.6700000000000000E-002   -0.84392813642788034     
   5.6999999999999995E-002   -0.80264560221838899     
   5.7300000000000004E-002   -0.71423039491603380     
   5.7599999999999998E-002   -0.57729605080812585     
   5.7900000000000007E-002   -0.39372798408475279     
   5.8200000000000002E-002   -0.16898049685341893     
   5.8499999999999996E-002     8.8283650237729119E-002
   5.8800000000000005E-002    0.36648917504513134     
   5.9100000000000000E-002    0.65181536911670512     
   5.9400000000000008E-002    0.92931702283863471     
   5.9700000000000003E-002     1.1836487408688763     
   6.0000000000000012E-002     1.4005961858160521     
   6.0300000000000006E-002     1.5675482063855424     
   6.0600000000000001E-002     1.6747711253296520     
   6.0900000000000010E-002     1.7158501713152186     
   6.1200000000000004E-002     1.6882147151798075     
   6.1500000000000013E-002     1.5932034773304238     
   6.1800000000000008E-002     1.4359318478529186     
   6.2100000000000002E-002     1.2247518683321532     
   6.2399999999999997E-002    0.97098269977669982     
   6.2700000000000006E-002    0.68763228151078259     
   6.3000000000000000E-002    0.38895265098713622     
   6.3300000000000009E-002     8.9357903175073194E-002
   6.3600000000000004E-002   -0.19753269495877998     
   6.3899999999999998E-002   -0.45941238563204223     
   6.4199999999999993E-002   -0.68601575108498081     
   6.4500000000000002E-002   -0.86952123110721691     
   6.4800000000000010E-002    -1.0048585266508983     
   6.5100000000000005E-002    -1.0896057222007898     
   6.5400000000000000E-002    -1.1237662152489327     
   6.5700000000000008E-002    -1.1099286358189304     
   6.5999999999999989E-002    -1.0522420634798557     
   6.6299999999999998E-002   -0.95654590613532620     
   6.6600000000000006E-002   -0.82959009213023871     
   6.6900000000000001E-002   -0.67902207672944059     
   6.7199999999999996E-002   -0.51255666831051261     
   6.7500000000000004E-002   -0.33820684751974300     
   6.7800000000000013E-002   -0.16380858400825513     
   6.8099999999999994E-002     3.0814916001359037E-003
   6.8400000000000002E-002    0.15542215766029385     
   6.8700000000000011E-002    0.28671079133268068     
   6.8999999999999992E-002    0.39137237457020829     
   6.9300000000000000E-002    0.46503402757211248     
   6.9600000000000009E-002    0.50476397683223928     
   6.9900000000000004E-002    0.50932092599549916     
   7.0199999999999999E-002    0.47971910800603701     
   7.0500000000000007E-002    0.41898417411948830     
   7.0800000000000016E-002    0.33242031221425788     
   7.1099999999999997E-002    0.22746119047396432     
   7.1400000000000005E-002    0.11307229401369941     
   7.1700000000000000E-002    -5.0809717519103540E-004
   7.1999999999999995E-002   -0.10275247537092366     
   7.2300000000000003E-002   -0.18356849332769054     
   7.2600000000000012E-002   -0.23426856247733732     
   7.2900000000000006E-002   -0.24815768027473578     
   7.3200000000000001E-002   -0.22169145649476568     
   7.3499999999999996E-002   -0.15449183381737711     
   7.3800000000000004E-002    -4.9787625785956115E-002
   7.4099999999999999E-002     8.5330844635404815E-002
   7.4400000000000008E-002    0.24069164954714001     
   7.4700000000000003E-002    0.40339158240378137     
   7.5000000000000011E-002    0.55849888188745911     
   7.5299999999999992E-002    0.69046071370099726     
   7.5600000000000001E-002    0.78383455675150870     
   7.5900000000000009E-002    0.82478605321521103     
   7.6200000000000004E-002    0.80217771695861906     
   7.6499999999999999E-002    0.70868717654755575     
   7.6800000000000007E-002    0.54165654138981301     
   7.7099999999999988E-002    0.30388785556151388     
   7.7399999999999997E-002     3.5422337131059810E-003
   7.7700000000000005E-002   -0.34558088549533023     
   7.8000000000000014E-002   -0.72484874122781584     
   7.8299999999999995E-002    -1.1118826961795720     
   7.8600000000000003E-002    -1.4818222779311390     
   7.8900000000000012E-002    -1.8091142590540981     
   7.9199999999999993E-002    -2.0695200521441408     
   7.9500000000000001E-002    -2.2421293932359325     
   7.9800000000000010E-002    -2.3110538290703979     
   8.0100000000000018E-002    -2.2670575001775672     
   8.0399999999999999E-002    -2.1086004606635247     
   8.0700000000000008E-002    -1.8419845903796019     
   8.1000000000000003E-002    -1.4813974639588849     
   8.1299999999999997E-002    -1.0478528185563236     
   8.1600000000000006E-002   -0.56746613191858841     
   8.1900000000000014E-002    -6.9499619675296886E-002
   8.2199999999999995E-002    0.41584060330183348     
   8.2500000000000004E-002    0.85989790444259862     
   8.2799999999999999E-002     1.2380307990579591     
   8.3100000000000007E-002     1.5310019469795793     
   8.3400000000000002E-002     1.7265007831733121     
   8.3700000000000011E-002     1.8199478824325945     
   8.4000000000000005E-002     1.8141960420797092     
   8.4300000000000000E-002     1.7190354441587952     
   8.4599999999999995E-002     1.5498819955405183     
   8.4900000000000003E-002     1.3263584991661144     
   8.5199999999999998E-002     1.0703195942071886     
   8.5500000000000007E-002    0.80418151489345302     
   8.5800000000000001E-002    0.54903840490799205     
   8.6100000000000010E-002    0.32349305289091684     
   8.6399999999999991E-002    0.14250846018412902     
   8.6699999999999999E-002     1.6586574331505798E-002
   8.7000000000000008E-002    -4.8435756281921337E-002
   8.7300000000000003E-002    -5.1102549866258500E-002
   8.7599999999999997E-002     5.3217269996144526E-003
   8.7900000000000006E-002    0.11428367394460173     
   8.8200000000000014E-002    0.26563239348774625     
   8.8499999999999995E-002    0.44701593951150065     
   8.8800000000000004E-002    0.64426254794018811     
   8.9100000000000013E-002    0.84216176920387686     
   8.9399999999999993E-002     1.0253990839463498     
   8.9700000000000002E-002     1.1791119546521727     
   9.0000000000000011E-002     1.2895697358813885     
   9.0299999999999991E-002     1.3454523132497020     
   9.0600000000000000E-002     1.3377281519746957     
   9.0900000000000009E-002     1.2611946006857355     
   9.1200000000000017E-002     1.1141321839113532     
   9.1499999999999998E-002    0.89948394020933298     
   9.1800000000000007E-002    0.62389376039311517     
   9.2100000000000001E-002    0.29819344720653068     
   9.2399999999999996E-002    -6.3406916869025068E-002
   9.2700000000000005E-002   -0.44456614495118246     
   9.3000000000000013E-002   -0.82738619134542402     
   9.3300000000000008E-002    -1.1940721263852163     
   9.3600000000000003E-002    -1.5278881873267312     
   9.3899999999999997E-002    -1.8142538258399132     
   9.4200000000000006E-002    -2.0418958957457147     
   9.4500000000000001E-002    -2.2027087607962557     
   9.4800000000000009E-002    -2.2924480929379052     
   9.5100000000000004E-002    -2.3102269745723429     
   9.5399999999999999E-002    -2.2578406971705665     
   9.5699999999999993E-002    -2.1393697944345451     
   9.6000000000000002E-002    -1.9603399743437391     
   9.6300000000000011E-002    -1.7272076120034028     
   9.6600000000000005E-002    -1.4467418876059368     
   9.6900000000000000E-002    -1.1265030544808869     
   9.7200000000000009E-002   -0.77456635000457730     
   9.7499999999999989E-002   -0.40063833140052757     
   9.7799999999999998E-002    -1.5596578172480694E-002
   9.8100000000000007E-002    0.36636385426523393     
   9.8400000000000015E-002    0.72915295999931651     
   9.8699999999999996E-002     1.0537874637631814     
   9.9000000000000005E-002     1.3191019344732673     
   9.9300000000000013E-002     1.5033247617583698     
   9.9599999999999994E-002     1.5858798256576068     
   9.9900000000000003E-002     1.5487449459147431     
  0.10020000000000001          1.3796656456578014     
  0.10049999999999999          1.0734412998245038     
  0.10080000000000000         0.63477495338344525     
  0.10110000000000001          7.8111516078770427E-002
  0.10140000000000000        -0.57032124679155805     
  0.10170000000000000         -1.2749410830088077     
  0.10200000000000001         -1.9910875649790019     
  0.10230000000000002         -2.6685738789013418     
  0.10260000000000000         -3.2541075105528745     
  0.10290000000000001         -3.6962986454179534     
  0.10320000000000000         -3.9484088958960535     
  0.10350000000000001         -3.9731813050028184     
  0.10380000000000000         -3.7449834901933721     
  0.10410000000000001         -3.2538164144296156     
  0.10440000000000001         -2.5047722214222765     
  0.10470000000000000         -1.5201546120573024     
  0.10500000000000000        -0.33780514563705422     
  0.10530000000000000         0.99119124113978829     
  0.10560000000000000          2.4040609016907166     
  0.10590000000000001          3.8308821620179812     
  0.10620000000000000          5.1983448239599150     
  0.10650000000000001          6.4332858531740191     
  0.10679999999999999          7.4674865401969921     
  0.10710000000000000          8.2411004825460914     
  0.10740000000000001          8.7058946469997558     
  0.10770000000000000          8.8285610042459268     
  0.10800000000000000          8.5914346445492260     
  0.10830000000000001          7.9957167215680709     
  0.10859999999999999          7.0591069541934770     
  0.10890000000000000          5.8176952410353593     
  0.10920000000000001          4.3224621510382537     
  0.10950000000000001          2.6387420061482727     
  0.10979999999999999         0.84046536895229362     
  0.11009999999999999        -0.99057361588529347     
  0.11040000000000001         -2.7718916557211628     
  0.11070000000000001         -4.4224935469187638     
  0.11100000000000000         -5.8698669602971467     
  0.11130000000000000         -7.0512377133689688     
  0.11160000000000002         -7.9199415679749841     
  0.11190000000000001         -8.4462129179741527     
  0.11220000000000001         -8.6188422755382472     
  0.11250000000000000         -8.4466020142689047     
  0.11280000000000000         -7.9561120460779993     
  0.11309999999999999         -7.1892386739953089     
  0.11340000000000001         -6.2015954169772627     
  0.11369999999999998         -5.0562377909909983     
  0.11400000000000000         -3.8208528316495163     
  0.11430000000000000         -2.5627003283799206     
  0.11460000000000002         -1.3433012157667676     
  0.11489999999999999        -0.21664386184524967     
  0.11520000000000001         0.77525323014802405     
  0.11550000000000001          1.6038904270286123     
  0.11580000000000000          2.2542255130072486     
  0.11609999999999999          2.7256105264135253     
  0.11640000000000002          3.0286956248122099     
  0.11670000000000001          3.1857507733775390     
  0.11700000000000001          3.2239118203202599     
  0.11730000000000000          3.1769643481430871     
  0.11760000000000000          3.0768841023625497     
  0.11789999999999999          2.9552586840149844     
  0.11820000000000001          2.8370533787853303     
  0.11850000000000001          2.7410894261659307     
  0.11880000000000000          2.6775220265315025     
  0.11910000000000000          2.6484707210803675     
  0.11940000000000002          2.6474452787675369     
  0.11970000000000001          2.6627827398654307     
  0.12000000000000001          2.6768639710278204     
  0.12030000000000000          2.6717248484884073     
  0.12060000000000000          2.6282384799456380     
  0.12089999999999999          2.5317716879388912     
  0.12119999999999999          2.3705136930895767     
  0.12150000000000001          2.1398782767483042     
  0.12180000000000001          1.8397464682605638     
  0.12210000000000000          1.4771480403870507     
  0.12239999999999999          1.0621247067181836     
  0.12270000000000002         0.60872695133568189     
  0.12300000000000001         0.13145205375077379     
  0.12330000000000001        -0.35485592606981103     
  0.12360000000000000        -0.83893099638793278     
  0.12390000000000000         -1.3102045384492738     
  0.12419999999999999         -1.7636570082501710     
  0.12450000000000001         -2.1949534794177041     
  0.12480000000000001         -2.6033525902420123     
  0.12509999999999999         -2.9878178159061988     
  0.12540000000000001         -3.3476052908321150     
  0.12570000000000003         -3.6795335565145963     
  0.12600000000000000         -3.9788635666020946     
  0.12630000000000002         -4.2370234565308929     
  0.12659999999999999         -4.4443393914962472     
  0.12690000000000001         -4.5882803279109092     
  0.12719999999999998         -4.6571794900987902     
  0.12750000000000000         -4.6405202334424729     
  0.12780000000000002         -4.5300575658624425     
  0.12809999999999999         -4.3234287592247957     
  0.12840000000000001         -4.0223237243055747     
  0.12869999999999998         -3.6346436534499906     
  0.12900000000000000         -3.1749001331197850     
  0.12930000000000003         -2.6600957463641950     
  0.12959999999999999         -2.1130717106260501     
  0.12990000000000002         -1.5562125509860025     
  0.13019999999999998         -1.0127497754539130     
  0.13050000000000000        -0.50370075802308800     
  0.13080000000000003         -4.5022735469660034E-002
  0.13109999999999999         0.35008809080853975     
  0.13140000000000002         0.67606873029694836     
  0.13169999999999998         0.93248803248453316     
  0.13200000000000001          1.1245728186024844     
  0.13229999999999997          1.2625361071438426     
  0.13260000000000000          1.3605586783983628     
  0.13290000000000002          1.4350860512052610     
  0.13319999999999999          1.5032080706785940     
  0.13350000000000001          1.5819384070475717     
  0.13380000000000003          1.6860793983087912     
  0.13410000000000000          1.8263176811901853     
  0.13440000000000002          2.0102839625659170     
  0.13469999999999999          2.2388885243053642     
  0.13500000000000001          2.5097296574518038     
  0.13529999999999998          2.8129592428354271     
  0.13560000000000000          3.1364987567361569     
  0.13590000000000002          3.4625051891637599     
  0.13619999999999999          3.7726226928542888     
  0.13650000000000001          4.0460831002655659     
  0.13680000000000003          4.2641812805411909     
  0.13710000000000000          4.4097148548611882     
  0.13740000000000002          4.4695269314025268     
  0.13769999999999999          4.4353758558733531     
  0.13800000000000001          4.3046108903806850     
  0.13829999999999998          4.0796171740993135     
  0.13860000000000000          3.7700148977097077     
  0.13890000000000002          3.3888775059187450     
  0.13919999999999999          2.9546240275296904     
  0.13950000000000001          2.4878445306712451     
  0.13979999999999998          2.0108561878736602     
  0.14010000000000000          1.5460016826611751     
  0.14040000000000002          1.1133916236419101     
  0.14069999999999999         0.73041083902915116     
  0.14100000000000001         0.41117588590052107     
  0.14130000000000004         0.16273858997045312     
  0.14160000000000000         -1.0479932632708230E-002
  0.14189999999999997        -0.11194336780896515     
  0.14219999999999999        -0.14990067074668467     
  0.14250000000000002        -0.13566635294630844     
  0.14279999999999998         -8.7043183684304914E-002
  0.14310000000000000         -2.1460423659736688E-002
  0.14339999999999997          3.9989064714729738E-002
  0.14369999999999999          7.7682155515433782E-002
  0.14400000000000002          7.1836853317198218E-002
  0.14429999999999998          5.3132595264960957E-003
  0.14460000000000001        -0.13638040131958817     
  0.14490000000000003        -0.36487283329022430     
  0.14520000000000000        -0.68716820233729259     
  0.14550000000000002         -1.1057383143194266     
  0.14579999999999999         -1.6193974564211948     
  0.14610000000000001         -2.2173866925778003     
  0.14640000000000003         -2.8857302852381825     
  0.14670000000000000         -3.5991826863827430     
  0.14699999999999996         -4.3246590257305684     
  0.14729999999999999         -5.0202391155485504     
  0.14760000000000001         -5.6343849602259519     
  0.14789999999999998         -6.1099385600865892     
  0.14820000000000000         -6.3866310275883480     