  -1.4999999999999999E-002     0.0000000000000000     
  -1.4700000000000000E-002     0.0000000000000000     
  -1.4400000000000000E-002     0.0000000000000000     
  -1.4100000000000000E-002     0.0000000000000000     
  -1.3800000000000000E-002     0.0000000000000000     
  -1.3500000000000000E-002     0.0000000000000000     
  -1.3200000000000000E-002     0.0000000000000000     
  -1.2899999999999998E-002     0.0000000000000000     
  -1.2600000000000000E-002     0.0000000000000000     
  -1.2299999999999998E-002     0.0000000000000000     
  -1.2000000000000000E-002     0.0000000000000000     
  -1.1699999999999999E-002     0.0000000000000000     
  -1.1399999999999999E-002     0.0000000000000000     
  -1.1099999999999999E-002     0.0000000000000000     
  -1.0799999999999999E-002     0.0000000000000000     
  -1.0499999999999999E-002     0.0000000000000000     
  -1.0199999999999999E-002     0.0000000000000000     
  -9.8999999999999991E-003     0.0000000000000000     
  -9.5999999999999992E-003     0.0000000000000000     
  -9.2999999999999992E-003     0.0000000000000000     
  -8.9999999999999993E-003     0.0000000000000000     
  -8.6999999999999994E-003     0.0000000000000000     
  -8.3999999999999995E-003     0.0000000000000000     
  -8.0999999999999996E-003     0.0000000000000000     
  -7.7999999999999988E-003     0.0000000000000000     
  -7.4999999999999997E-003     0.0000000000000000     
  -7.1999999999999998E-003     0.0000000000000000     
  -6.8999999999999981E-003     0.0000000000000000     
  -6.5999999999999982E-003     0.0000000000000000     
  -6.3000000000000000E-003     0.0000000000000000     
  -6.0000000000000001E-003     0.0000000000000000     
  -5.6999999999999985E-003     0.0000000000000000     
  -5.3999999999999986E-003     0.0000000000000000     
  -5.1000000000000004E-003     0.0000000000000000     
  -4.7999999999999987E-003     0.0000000000000000     
  -4.5000000000000005E-003     0.0000000000000000     
  -4.1999999999999989E-003     0.0000000000000000     
  -3.8999999999999990E-003     0.0000000000000000     
  -3.5999999999999990E-003     0.0000000000000000     
  -3.2999999999999991E-003     0.0000000000000000     
  -2.9999999999999992E-003     0.0000000000000000     
  -2.6999999999999993E-003     0.0000000000000000     
  -2.3999999999999994E-003     0.0000000000000000     
  -2.0999999999999977E-003     0.0000000000000000     
  -1.7999999999999995E-003     0.0000000000000000     
  -1.4999999999999979E-003     0.0000000000000000     
  -1.1999999999999997E-003     0.0000000000000000     
  -8.9999999999999976E-004     0.0000000000000000     
  -5.9999999999999810E-004     0.0000000000000000     
  -2.9999999999999992E-004     0.0000000000000000     
   0.0000000000000000          0.0000000000000000     
   3.0000000000000165E-004     0.0000000000000000     
   5.9999999999999984E-004     0.0000000000000000     
   9.0000000000000149E-004     0.0000000000000000     
   1.2000000000000031E-003     0.0000000000000000     
   1.5000000000000013E-003     0.0000000000000000     
   1.8000000000000030E-003     0.0000000000000000     
   2.1000000000000012E-003     0.0000000000000000     
   2.3999999999999994E-003     0.0000000000000000     
   2.7000000000000010E-003     0.0000000000000000     
   2.9999999999999992E-003     0.0000000000000000     
   3.3000000000000008E-003     0.0000000000000000     
   3.6000000000000025E-003     0.0000000000000000     
   3.9000000000000007E-003     2.6877376225044261E-037
   4.2000000000000023E-003    -2.2669847240034933E-036
   4.5000000000000005E-003     4.8157146952949192E-036
   4.7999999999999987E-003     1.6988873678743182E-036
   5.1000000000000004E-003    -4.1485407636423421E-035
   5.4000000000000020E-003     1.8477834002777097E-034
   5.7000000000000037E-003    -7.2304616685774163E-034
   5.9999999999999984E-003     1.5109012558277024E-033
   6.3000000000000000E-003     7.5328987757187006E-034
   6.6000000000000017E-003    -1.2124417542077243E-032
   6.9000000000000034E-003     2.7527996277331153E-032
   7.2000000000000015E-003    -4.2845931202584316E-033
   7.5000000000000032E-003    -1.2420951385393161E-031
   7.8000000000000014E-003     2.8666739860236270E-031
   8.0999999999999996E-003    -2.5731629356298778E-032
   8.4000000000000012E-003    -1.2358212012746336E-030
   8.7000000000000029E-003     2.5841664302380019E-030
   9.0000000000000011E-003     1.7780001866025548E-031
   9.2999999999999992E-003    -1.0979355121963266E-029
   9.6000000000000009E-003     1.9962572723690753E-029
   9.8999999999999991E-003     6.0694607725798699E-030
   1.0200000000000001E-002    -8.7666914362214507E-029
   1.0500000000000002E-002     1.3377975239874905E-028
   1.0800000000000004E-002     9.0611520769251423E-029
   1.1099999999999999E-002    -6.4595898401428026E-028
   1.1400000000000000E-002     7.6837072856755433E-028
   1.1700000000000002E-002     1.0202121917832748E-027
   1.2000000000000004E-002    -4.3816060042740630E-027
   1.2300000000000002E-002     3.5594849673695819E-027
   1.2600000000000000E-002     9.3231305979295892E-027
   1.2900000000000002E-002    -2.6771603776242115E-026
   1.3200000000000000E-002     1.0850752467549396E-026
   1.3500000000000002E-002     7.0775421065937889E-026
   1.3800000000000003E-002    -1.4326609407622331E-025
   1.4100000000000001E-002    -5.7132895266015171E-027
   1.4400000000000000E-002     4.5108870076922759E-025
   1.4700000000000001E-002    -6.5373779481472703E-025
   1.4999999999999999E-002    -3.7270950156938782E-025
   1.5300000000000001E-002     2.4353614614320485E-024
   1.5600000000000003E-002    -2.4533182740601234E-024
   1.5899999999999997E-002    -3.2381645538346111E-024
   1.6199999999999999E-002     1.1171839343805810E-023
   1.6500000000000001E-002    -6.9773545037575893E-024
   1.6800000000000002E-002    -1.9142592822351523E-023
   1.7100000000000004E-002     4.3313114655398213E-023
   1.7400000000000006E-002    -1.0899502065828863E-023
   1.7700000000000000E-002    -8.8641478704687603E-023
   1.8000000000000002E-002     1.3947932983320028E-022
   1.8300000000000004E-002     2.2318211075605155E-023
   1.8600000000000005E-002    -3.3219634133047069E-022
   1.8900000000000000E-002     3.5980022623025656E-022
   1.9200000000000002E-002     2.4741596302550228E-022
   1.9500000000000003E-002    -1.0038546286649914E-021
   1.9799999999999998E-002     6.9197448188867516E-022
   2.0100000000000000E-002     1.0472349785113589E-021
   2.0400000000000001E-002    -2.3736518498643549E-021
   2.0700000000000003E-002     8.7102231194379845E-022
   2.0999999999999998E-002     2.7317433134808662E-021
   2.1299999999999999E-002    -4.1634931464897315E-021
   2.1600000000000001E-002     9.6947972228790816E-022
   2.1900000000000003E-002     3.5711432793228283E-021
   2.2200000000000004E-002    -5.4806344660247221E-021
   2.2500000000000006E-002     5.7652111738072807E-021
   2.2800000000000001E-002    -2.9231039838752890E-021
   2.3100000000000002E-002    -1.1905519431904140E-020
   2.3400000000000004E-002     2.2408653915309080E-020
   2.3699999999999999E-002     3.6689701999673438E-020
   2.4000000000000000E-002    -1.1601439552755783E-019
   2.4300000000000002E-002    -3.0022563199556733E-019
   2.4599999999999997E-002     1.7698455179576467E-018
   2.4900000000000005E-002    -1.7875085832581098E-018
   2.5200000000000000E-002    -8.9097635856922871E-018
   2.5499999999999995E-002     3.3460149916893396E-017
   2.5800000000000003E-002    -1.6719663486984680E-017
   2.6099999999999998E-002    -1.7600319005533679E-016
   2.6400000000000007E-002     4.5364885884624655E-016
   2.6700000000000002E-002     2.1038835078779799E-016
   2.6999999999999996E-002    -3.0321671175620627E-015
   2.7300000000000005E-002     3.6516650224083037E-015
   2.7600000000000000E-002     1.1948986575755843E-014
   2.7900000000000008E-002    -3.7790672456351731E-014
   2.8200000000000003E-002    -1.6046123795598878E-014
   2.8499999999999998E-002     2.3039039199220481E-013
   2.8800000000000006E-002    -2.0433287588699257E-013
   2.9100000000000001E-002    -9.6710613312209743E-013
   2.9400000000000003E-002     2.2133302379474211E-012
   2.9700000000000004E-002     2.1758182834557255E-012
   3.0000000000000006E-002    -1.3024900424593607E-011
   3.0300000000000001E-002     4.8115425627925002E-012
   3.0600000000000002E-002     5.0909834140457158E-011
   3.0900000000000004E-002    -7.3932487858491613E-011
   3.1199999999999999E-002    -1.1955527279500536E-010
   3.1500000000000007E-002     3.8511604075672897E-010
   3.1800000000000002E-002     3.5164060193138171E-011
   3.2099999999999997E-002    -1.2309667683128651E-009
   3.2400000000000005E-002     9.7098621721223578E-010
   3.2700000000000000E-002     2.3989177271153034E-009
   3.3000000000000002E-002    -4.2257142252721180E-009
   3.3300000000000003E-002    -1.5653290619471995E-009
   3.3599999999999998E-002     9.0242390524197162E-009
   3.3900000000000000E-002    -6.4443379574523628E-009
   3.4200000000000001E-002    -6.6289296367753615E-009
   3.4500000000000003E-002     2.2288324989938157E-008
   3.4799999999999998E-002    -2.5671437248916496E-008
   3.5099999999999999E-002    -3.8686408337758203E-008
   3.5400000000000001E-002     1.3527882414681042E-007
   3.5699999999999996E-002     8.5986884948950944E-007
   3.6000000000000004E-002     4.8800540212902520E-006
   3.6299999999999999E-002     1.6052248825799003E-005
   3.6600000000000008E-002     3.3277215685452490E-005
   3.6900000000000002E-002     5.3093594639601991E-005
   3.7199999999999997E-002     7.9285979489773805E-005
   3.7500000000000006E-002     1.1868931635027845E-004
   3.7800000000000000E-002     1.7375379311173329E-004
   3.8100000000000009E-002     2.5448792252810726E-004
   3.8400000000000004E-002     3.8379032659825436E-004
   3.8699999999999998E-002     5.7899946139794260E-004
   3.9000000000000007E-002     8.5127608063441829E-004
   3.9300000000000002E-002     1.2291005255296902E-003
   3.9600000000000003E-002     1.7580299598857806E-003
   3.9900000000000005E-002     2.4813861050376907E-003
   4.0200000000000000E-002     3.4415776847215021E-003
   4.0500000000000001E-002     4.6909037785559261E-003
   4.0800000000000003E-002     6.2863906610075354E-003
   4.1100000000000005E-002     8.2753462303550174E-003
   4.1399999999999999E-002     1.0682022168371243E-002
   4.1700000000000008E-002     1.3497163874041134E-002
   4.2000000000000003E-002     1.6671373627044846E-002
   4.2299999999999997E-002     2.0107115253016679E-002
   4.2600000000000006E-002     2.3627140501064025E-002
   4.2900000000000001E-002     2.6927815079700174E-002
   4.3200000000000002E-002     2.9567036167376139E-002
   4.3500000000000004E-002     3.0997635981275057E-002
   4.3799999999999999E-002     3.0571070028833740E-002
   4.4100000000000000E-002     2.7505941329292221E-002
   4.4400000000000002E-002     2.0921137790547599E-002
   4.4700000000000004E-002     9.9539758829476042E-003
   4.4999999999999998E-002    -6.1269517786093700E-003
   4.5300000000000000E-002    -2.7840421681909661E-002
   4.5600000000000002E-002    -5.5389667762921146E-002
   4.5899999999999996E-002    -8.8487545655553931E-002
   4.6200000000000005E-002   -0.12616288088327832     
   4.6500000000000000E-002   -0.16669382183039522     
   4.6799999999999994E-002   -0.20758384631090623     
   4.7100000000000003E-002   -0.24553370503260658     
   4.7399999999999998E-002   -0.27650769785469431     
   4.7700000000000006E-002   -0.29598394509145287     
   4.8000000000000001E-002   -0.29930326185004391     
   4.8300000000000010E-002   -0.28204708309787063     
   4.8600000000000004E-002   -0.24051200582693399     
   4.8899999999999999E-002   -0.17226045792614122     
   4.9200000000000008E-002    -7.6597233202754605E-002
   4.9500000000000002E-002     4.5032011012704390E-002
   4.9800000000000011E-002    0.18874784716782095     
   5.0100000000000006E-002    0.34825007431605431     
   5.0400000000000000E-002    0.51498129863051600     
   5.0700000000000009E-002    0.67855388797938920     
   5.1000000000000004E-002    0.82749120715217350     
   5.1299999999999998E-002    0.95012115842615752     
   5.1600000000000007E-002     1.0355910077939827     
   5.1900000000000002E-002     1.0748651784612162     
   5.2200000000000010E-002     1.0616960019701789     
   5.2500000000000005E-002    0.99340613014719992     
   5.2800000000000000E-002    0.87126309404321989     
   5.3099999999999994E-002    0.70049233194499827     
   5.3400000000000003E-002    0.49013174287996852     
   5.3699999999999998E-002    0.25221454659118647     
   5.4000000000000006E-002     7.9923812930127180E-004
   5.4300000000000001E-002   -0.24927017059260503     
   5.4599999999999996E-002   -0.48357474219545105     
   5.4900000000000004E-002   -0.68931363072208796     
   5.5199999999999999E-002   -0.85655311067907303     
   5.5499999999999994E-002   -0.97868778338739104     
   5.5800000000000002E-002    -1.0529929632039405     
   5.6099999999999997E-002    -1.0806847783004345     
   5.6400000000000006E-002    -1.0663895212859857     
   5.6700000000000000E-002    -1.0176040610985226     
   5.6999999999999995E-002   -0.94377635073838473     
   5.7300000000000004E-002   -0.85514493000153446     
   5.7599999999999998E-002   -0.76201281960012246     
   5.7900000000000007E-002   -0.67347734797168102     
   5.8200000000000002E-002   -0.59689282462256488     
   5.8499999999999996E-002   -0.53724855994966725     
   5.8800000000000005E-002   -0.49670662455070391     
   5.9100000000000000E-002   -0.47489834036310907     
   5.9400000000000008E-002   -0.46879730293236987     
   5.9700000000000003E-002   -0.47323900727352308     
   6.0000000000000012E-002   -0.48150591507224794     
   6.0300000000000006E-002   -0.48574288756475437     
   6.0600000000000001E-002   -0.47800759411871263     
   6.0900000000000010E-002   -0.45067145824503457     
   6.1200000000000004E-002   -0.39714600125324817     
   6.1500000000000013E-002   -0.31264636035352067     
   6.1800000000000008E-002   -0.19433340880203415     
   6.2100000000000002E-002    -4.2051351783153668E-002
   6.2399999999999997E-002    0.14185402381540810     
   6.2700000000000006E-002    0.35249811878529747     
   6.3000000000000000E-002    0.58247275621361072     
   6.3300000000000009E-002    0.82237878644656104     
   6.3600000000000004E-002     1.0613268071668367     
   6.3899999999999998E-002     1.2874940933823824     
   6.4199999999999993E-002     1.4887214132760636     
   6.4500000000000002E-002     1.6535853615050664     
   6.4800000000000010E-002     1.7716978920913959     
   6.5100000000000005E-002     1.8344067208582244     
   6.5400000000000000E-002     1.8355264527729755     
   6.5700000000000008E-002     1.7713515097091390     
   6.5999999999999989E-002     1.6411810770233957     
   6.6299999999999998E-002     1.4472326066815646     
   6.6600000000000006E-002     1.1943991364751496     
   6.6900000000000001E-002    0.89038608231621508     
   6.7199999999999996E-002    0.54505571010367238     
   6.7500000000000004E-002    0.17023724274129895     
   6.7800000000000013E-002   -0.22098904193758218     
   6.8099999999999994E-002   -0.61481332449225135     
   6.8400000000000002E-002   -0.99682371702889561     
   6.8700000000000011E-002    -1.3531895018247528     
   6.8999999999999992E-002    -1.6707478686742803     
   6.9300000000000000E-002    -1.9373238269537110     
   6.9600000000000009E-002    -2.1430328912379206     
   6.9900000000000004E-002    -2.2793730986643062     
   7.0199999999999999E-002    -2.3405227663613699     
   7.0500000000000007E-002    -2.3233337143844115     
   7.0800000000000016E-002    -2.2268762107363234     
   7.1099999999999997E-002    -2.0533688398254988     
   7.1400000000000005E-002    -1.8075040187909168     
   7.1700000000000000E-002    -1.4964819822679942     
   7.1999999999999995E-002    -1.1302204966179703     
   7.2300000000000003E-002   -0.72026910589054061     
   7.2600000000000012E-002   -0.28036875117851157     
   7.2900000000000006E-002    0.17440757550852448     
   7.3200000000000001E-002    0.62810454280633110     
   7.3499999999999996E-002     1.0640714526257600     
   7.3800000000000004E-002     1.4659022353116404     
   7.4099999999999999E-002     1.8178287278005099     
   7.4400000000000008E-002     2.1050453022887172     
   7.4700000000000003E-002     2.3151044975181034     
   7.5000000000000011E-002     2.4377811181957609     
   7.5299999999999992E-002     2.4660106250552976     
   7.5600000000000001E-002     2.3967087676520316     
   7.5900000000000009E-002     2.2304127541505054     
   7.6200000000000004E-002     1.9722182222937317     
   7.6499999999999999E-002     1.6317199403065059     
   7.6800000000000007E-002     1.2223337341463449     
   7.7099999999999988E-002    0.76148085738306115     
   7.7399999999999997E-002    0.26972835205058321     
   7.7700000000000005E-002   -0.23035481339022768     
   7.8000000000000014E-002   -0.71491004336047592     
   7.8299999999999995E-002    -1.1602372576785036     
   7.8600000000000003E-002    -1.5440164793384610     
   7.8900000000000012E-002    -1.8463855685820665     
   7.9199999999999993E-002    -2.0513817945539499     
   7.9500000000000001E-002    -2.1477585150301399     
   7.9800000000000010E-002    -2.1296476357071730     
   8.0100000000000018E-002    -1.9971147055568554     
   8.0399999999999999E-002    -1.7562514247949317     
   8.0700000000000008E-002    -1.4192417332604184     
   8.1000000000000003E-002    -1.0033495732106068     
   8.1299999999999997E-002   -0.53041070080787045     
   8.1600000000000006E-002    -2.5962573464213323E-002
   8.1900000000000014E-002    0.48260935450132547     
   8.2199999999999995E-002    0.96682493272230352     
   8.2500000000000004E-002     1.3991671648173429     
   8.2799999999999999E-002     1.7547245767172337     
   8.3100000000000007E-002     2.0119399829366813     
   8.3400000000000002E-002     2.1549030721260274     
   8.3700000000000011E-002     2.1742059381285372     
   8.4000000000000005E-002     2.0672780752446021     
   8.4300000000000000E-002     1.8396631709118259     
   8.4599999999999995E-002     1.5040280905256098     
   8.4900000000000003E-002     1.0801977778542828     
   8.5199999999999998E-002    0.59414265807053923     
   8.5500000000000007E-002     7.5709509561678490E-002
   8.5800000000000001E-002   -0.44242966567283060     
   8.6100000000000010E-002   -0.92753904449152846     
   8.6399999999999991E-002    -1.3490471784570042     
   8.6699999999999999E-002    -1.6802984927398932     
   8.7000000000000008E-002    -1.9010309237003067     
   8.7300000000000003E-002    -1.9983611460374280     
   8.7599999999999997E-002    -1.9678166340787331     
   8.7900000000000006E-002    -1.8137528637817897     
   8.8200000000000014E-002    -1.5486345361265759     
   8.8499999999999995E-002    -1.1921873317955307     
   8.8800000000000004E-002   -0.77023196917919379     
   8.9100000000000013E-002   -0.31208281610238064     
   8.9399999999999993E-002    0.15096375529218881     
   8.9700000000000002E-002    0.58745910763986586     
   9.0000000000000011E-002    0.96850366286089196     
   9.0299999999999991E-002     1.2688705490038705     
   9.0600000000000000E-002     1.4684222325378922     
   9.0900000000000009E-002     1.5535378068262133     
   9.1200000000000017E-002     1.5171922144767456     
   9.1499999999999998E-002     1.3596689344022885     
   9.1800000000000007E-002     1.0881262716242870     
   9.2100000000000001E-002    0.71665897810824564     
   9.2399999999999996E-002    0.26524663494354217     
   9.2700000000000005E-002   -0.24107762518889764     
   9.3000000000000013E-002   -0.77294935008593990     
   9.3300000000000008E-002    -1.2984112714104774     
   9.3600000000000003E-002    -1.7845830726396681     
   9.3899999999999997E-002    -2.1987789351952589     
   9.4200000000000006E-002    -2.5111793322214311     
   9.4500000000000001E-002    -2.6961031743271473     
   9.4800000000000009E-002    -2.7339284467566776     
   9.5100000000000004E-002    -2.6132554747461949     
   9.5399999999999999E-002    -2.3315993275633549     
   9.5699999999999993E-002    -1.8963721564303953     
   9.6000000000000002E-002    -1.3250638555196987     
   9.6300000000000011E-002   -0.64521244237545994     
   9.6600000000000005E-002    0.10746364845364001     
   9.6900000000000000E-002    0.89041123300106040     
   9.7200000000000009E-002     1.6569885899686003     
   9.7499999999999989E-002     2.3593632693182567     
   9.7799999999999998E-002     2.9513634133120830     
   9.8100000000000007E-002     3.3922914100764454     
   9.8400000000000015E-002     3.6492099644356109     
   9.8699999999999996E-002     3.6996850708172091     
   9.9000000000000005E-002     3.5337058243294259     
   9.9300000000000013E-002     3.1543514501116587     
   9.9599999999999994E-002     2.5778715933984770     
   9.9900000000000003E-002     1.8330260446925699     
  0.10020000000000001         0.95891625910878031     
  0.10049999999999999          3.1235779978047717E-003
  0.10080000000000000        -0.98151105978138653     
  0.10110000000000001         -1.9402301651165419     
  0.10140000000000000         -2.8188448173268976     
  0.10170000000000000         -3.5672959067783196     
  0.10200000000000001         -4.1424127484348903     
  0.10230000000000002         -4.5096408346994856     
  0.10260000000000000         -4.6452668199148421     
  0.10290000000000001         -4.5371789404938543     
  0.10320000000000000         -4.1852614769344880     
  0.10350000000000001         -3.6022336573042670     
  0.10380000000000000         -2.8119075532943345     
  0.10410000000000001         -1.8491618806121961     
  0.10440000000000001        -0.75863052827102240     
  0.10470000000000000         0.40838565984812036     
  0.10500000000000000          1.5949678529548146     
  0.10530000000000000          2.7420351534479139     
  0.10560000000000000          3.7914983257093127     
  0.10590000000000001          4.6891654418620163     
  0.10620000000000000          5.3887899910607677     
  0.10650000000000001          5.8545407347627716     
  0.10679999999999999          6.0645386103490306     
  0.10710000000000000          6.0125386978056605     
  0.10740000000000001          5.7087771866294572     
  0.10770000000000000          5.1805989795192664     
  0.10800000000000000          4.4699255209381388     
  0.10830000000000001          3.6313230889330672     
  0.10859999999999999          2.7279076155733910     
  0.10890000000000000          1.8254052689162448     
  0.10920000000000001         0.98827445326424934     
  0.10950000000000001         0.27271393844927361     
  0.10979999999999999        -0.27766559886102554     
  0.11009999999999999        -0.63506728675120394     
  0.11040000000000001        -0.79164295969009824     
  0.11070000000000001        -0.75874703091694762     
  0.11100000000000000        -0.56581057915415589     
  0.11130000000000000        -0.25849051342776691     
  0.11160000000000002         0.10803064184912228     
  0.11190000000000001         0.47272120697279446     
  0.11220000000000001         0.77570500836993361     
  0.11250000000000000         0.96541863826581276     
  0.11280000000000000          1.0012129585934959     
  0.11309999999999999         0.85949344187474419     
  0.11340000000000001         0.53491523753159931     
  0.11369999999999998          3.9246334942868111E-002
  0.11400000000000000        -0.59803587626703558     
  0.11430000000000000         -1.3355635059536204     
  0.11460000000000002         -2.1246874848155644     
  0.11489999999999999         -2.9121589248884296     
  0.11520000000000001         -3.6493073841175923     
  0.11550000000000001         -4.2943185161815496     
  0.11580000000000000         -4.8150089043218482     
  0.11609999999999999         -5.1937747393705651     
  0.11640000000000002         -5.4247992738978859     
  0.11670000000000001         -5.5145415213757891     
  0.11700000000000001         -5.4795601420698139     
  0.11730000000000000         -5.3413915325477870     
  0.11760000000000000         -5.1247628023630050     
  0.11789999999999999         -4.8536423841177880     
  0.11820000000000001         -4.5474230388252721     
  0.11850000000000001         -4.2206543599368445     
  0.11880000000000000         -3.8811425056843580     
  0.11910000000000000         -3.5304943788191694     
  0.11940000000000002         -3.1661973956194132     
  0.11970000000000001         -2.7824833904131654     
  0.12000000000000001         -2.3732642412004470     
  0.12030000000000000         -1.9343489659955839     
  0.12060000000000000         -1.4646351201372467     
  0.12089999999999999        -0.96756191303545624     
  0.12119999999999999        -0.45138658498909767     
  0.12150000000000001          7.1769011144541484E-002
  0.12180000000000001         0.58678960835225968     
  0.12210000000000000          1.0771363033187036     
  0.12239999999999999          1.5270781696930862     
  0.12270000000000002          1.9227943941698427     
  0.12300000000000001          2.2544752264997987     
  0.12330000000000001          2.5167379816608348     
  0.12360000000000000          2.7086521577666183     
  0.12390000000000000          2.8344119582890963     
  0.12419999999999999          2.9017574576592589     
  0.12450000000000001          2.9211960147772378     
  0.12480000000000001          2.9053737988070978     
  0.12509999999999999          2.8670299132250139     
  0.12540000000000001          2.8184269283167378     
  0.12570000000000003          2.7708467327322839     
  0.12600000000000000          2.7336193679947742     
  0.12630000000000002          2.7137420102361625     
  0.12659999999999999          2.7167083923701107     
  0.12690000000000001          2.7444562788935238     
  0.12719999999999998          2.7978606085791977     
  0.12750000000000000          2.8747510876719851     
  0.12780000000000002          2.9699158842518529     
  0.12809999999999999          3.0772521009754921     
  0.12840000000000001          3.1867567224137208     
  0.12869999999999998          3.2875320452101060     
  0.12900000000000000          3.3672678986726665     
  0.12930000000000003          3.4118914750803122     
  0.12959999999999999          3.4106707746347040     
  0.12990000000000002          3.3522267668368828     
  0.13019999999999998          3.2297102805879141     
  0.13050000000000000          3.0406496333402497     
  0.13080000000000003          2.7848498440834120     
  0.13109999999999999          2.4682691699942207     
  0.13140000000000002          2.0979445503769658     
  0.13169999999999998          1.6817301870560151     
  0.13200000000000001          1.2276215735086442     
  0.13229999999999997         0.73759050491233991     
  0.13260000000000000         0.21033628267038812     
  0.13290000000000002        -0.36177455472746239     
  0.13319999999999999        -0.99220293519492753     
  0.13350000000000001         -1.6947332308637595     
  0.13380000000000003         -2.4831203744330552     
  0.13410000000000000         -3.3627386637938121     
  0.13440000000000002         -4.3250290190858092     
  0.13469999999999999         -5.3441441698381293     
  0.13500000000000001         -6.3697290506967663     
  0.13529999999999998         -7.3290604077315056     
  0.13560000000000000         -8.1274158234404936     
  0.13590000000000002         -8.6549071364007837     
  0.13619999999999999         -8.7974194554908784     
  0.13650000000000001         -8.4481895497779114     
  0.13680000000000003         -7.5246351589660652     
  0.13710000000000000         -5.9828816508371343     
  0.13740000000000002         -3.8291695024449215     
  0.13769999999999999         -1.1314877367253495     
  0.13800000000000001          1.9796141844688888     
  0.13829999999999998          5.3133437140086546     
  0.13860000000000000          8.6299979358512253     
  0.13890000000000002          11.659211689849723     
  0.13919999999999999          14.122455712327978     
  0.13950000000000001          15.760063668597301     
  0.13979999999999998          16.357592361863553     
  0.14010000000000000          15.770252893785941     
  0.14040000000000002          13.942301693468128     
  0.14069999999999999          10.918067802509835     
  0.14100000000000001          6.8440739888785673     
  0.14130000000000004          1.9598370961192590     
  0.14160000000000000         -3.4161994229450752     
  0.14189999999999997         -8.9156890574139140     
  0.14219999999999999         -14.148340287169214     
  0.14250000000000002         -18.733498219633894     
  0.14279999999999998         -22.336075018692018     
  0.14310000000000000         -24.687750254407383     
  0.14339999999999997         -25.611862541875897     
  0.14369999999999999         -25.034885897114961     
  0.14400000000000002         -22.985671409958712     
  0.14429999999999998         -19.594702833813731     
  0.14460000000000001         -15.074017225906408     
  0.14490000000000003         -9.7009154244799163     
  0.14520000000000000         -3.7941011507823745     
  0.14550000000000002          2.3137138234239343     
  0.14579999999999999          8.2947849837767507     
  0.14610000000000001          13.849169166908140     
  0.14640000000000003          18.720300461641603     
  0.14670000000000000          22.702524328360894     
  0.14699999999999996          25.650786176994441     
  0.14729999999999999          27.476550992295536     
  0.14760000000000001          28.148494924313660     
  0.14789999999999998          27.687124232675647     
  0.14820000000000000          26.153403839177194     