  -1.4999999999999999E-002     0.0000000000000000     
  -1.4700000000000000E-002     0.0000000000000000     
  -1.4400000000000000E-002     0.0000000000000000     
  -1.4100000000000000E-002     0.0000000000000000     
  -1.3800000000000000E-002     0.0000000000000000     
  -1.3500000000000000E-002     0.0000000000000000     
  -1.3200000000000000E-002     0.0000000000000000     
  -1.2899999999999998E-002     0.0000000000000000     
  -1.2600000000000000E-002     0.0000000000000000     
  -1.2299999999999998E-002     0.0000000000000000     
  -1.2000000000000000E-002     0.0000000000000000     
  -1.1699999999999999E-002     0.0000000000000000     
  -1.1399999999999999E-002     0.0000000000000000     
  -1.1099999999999999E-002     0.0000000000000000     
  -1.0799999999999999E-002     0.0000000000000000     
  -1.0499999999999999E-002     0.0000000000000000     
  -1.0199999999999999E-002     0.0000000000000000     
  -9.8999999999999991E-003     0.0000000000000000     
  -9.5999999999999992E-003     0.0000000000000000     
  -9.2999999999999992E-003     0.0000000000000000     
  -8.9999999999999993E-003     0.0000000000000000     
  -8.6999999999999994E-003     0.0000000000000000     
  -8.3999999999999995E-003     0.0000000000000000     
  -8.0999999999999996E-003     0.0000000000000000     
  -7.7999999999999988E-003     0.0000000000000000     
  -7.4999999999999997E-003     0.0000000000000000     
  -7.1999999999999998E-003     0.0000000000000000     
  -6.8999999999999981E-003     0.0000000000000000     
  -6.5999999999999982E-003     0.0000000000000000     
  -6.3000000000000000E-003     0.0000000000000000     
  -6.0000000000000001E-003     0.0000000000000000     
  -5.6999999999999985E-003     0.0000000000000000     
  -5.3999999999999986E-003     0.0000000000000000     
  -5.1000000000000004E-003     0.0000000000000000     
  -4.7999999999999987E-003     0.0000000000000000     
  -4.5000000000000005E-003     0.0000000000000000     
  -4.1999999999999989E-003     0.0000000000000000     
  -3.8999999999999990E-003     0.0000000000000000     
  -3.5999999999999990E-003     0.0000000000000000     
  -3.2999999999999991E-003     0.0000000000000000     
  -2.9999999999999992E-003     0.0000000000000000     
  -2.6999999999999993E-003     0.0000000000000000     
  -2.3999999999999994E-003     0.0000000000000000     
  -2.0999999999999977E-003     0.0000000000000000     
  -1.7999999999999995E-003     0.0000000000000000     
  -1.4999999999999979E-003     0.0000000000000000     
  -1.1999999999999997E-003     0.0000000000000000     
  -8.9999999999999976E-004     0.0000000000000000     
  -5.9999999999999810E-004     0.0000000000000000     
  -2.9999999999999992E-004     0.0000000000000000     
   0.0000000000000000          0.0000000000000000     
   3.0000000000000165E-004     0.0000000000000000     
   5.9999999999999984E-004     0.0000000000000000     
   9.0000000000000149E-004     0.0000000000000000     
   1.2000000000000031E-003     0.0000000000000000     
   1.5000000000000013E-003     0.0000000000000000     
   1.8000000000000030E-003     0.0000000000000000     
   2.1000000000000012E-003     0.0000000000000000     
   2.3999999999999994E-003     0.0000000000000000     
   2.7000000000000010E-003     0.0000000000000000     
   2.9999999999999992E-003     0.0000000000000000     
   3.3000000000000008E-003     0.0000000000000000     
   3.6000000000000025E-003     0.0000000000000000     
   3.9000000000000007E-003     0.0000000000000000     
   4.2000000000000023E-003     0.0000000000000000     
   4.5000000000000005E-003     0.0000000000000000     
   4.7999999999999987E-003     0.0000000000000000     
   5.1000000000000004E-003     8.8397756594483216E-044
   5.4000000000000020E-003     3.4001590695728846E-037
   5.7000000000000037E-003     2.7732038621493591E-036
   5.9999999999999984E-003    -1.2240311875850017E-035
   6.3000000000000000E-003     3.0081807861731850E-035
   6.6000000000000017E-003    -1.5243839541260607E-034
   6.9000000000000034E-003     4.1933555569683200E-034
   7.2000000000000015E-003    -4.4729950293350777E-034
   7.5000000000000032E-003    -8.1132258606254814E-034
   7.8000000000000014E-003     2.6533104654153978E-033
   8.0999999999999996E-003    -5.7039057571013045E-034
   8.4000000000000012E-003    -1.1491374481035244E-032
   8.7000000000000029E-003     2.5254646187431266E-032
   9.0000000000000011E-003    -8.4754633553568879E-034
   9.2999999999999992E-003    -1.0318126341601612E-031
   9.6000000000000009E-003     2.0199589540285713E-031
   9.8999999999999991E-003     2.0799348764484633E-032
   1.0200000000000001E-002    -8.0852414337069385E-031
   1.0500000000000002E-002     1.3832599489510675E-030
   1.0800000000000004E-002     5.3118761500218271E-031
   1.1099999999999999E-002    -5.9642510590101441E-030
   1.1400000000000000E-002     8.3325483743049662E-030
   1.1700000000000002E-002     7.0620954807647248E-030
   1.2000000000000004E-002    -4.0901960207995780E-029
   1.2300000000000002E-002     4.2658545442976878E-029
   1.2600000000000000E-002     7.0676170111622971E-029
   1.2900000000000002E-002    -2.5740717482781285E-028
   1.3200000000000000E-002     1.7392796663989496E-028
   1.3500000000000002E-002     5.6982916073435061E-028
   1.3800000000000003E-002    -1.4521304345220090E-027
   1.4100000000000001E-002     4.4780679343001170E-028
   1.4400000000000000E-002     3.8281832468604949E-027
   1.4700000000000001E-002    -7.2193323628329098E-027
   1.4999999999999999E-002    -4.9591399232252152E-028
   1.5300000000000001E-002     2.1875598472678850E-026
   1.5600000000000003E-002    -3.1171358421909417E-026
   1.5899999999999997E-002    -1.5250314363778976E-026
   1.6199999999999999E-002     1.0754716601480650E-025
   1.6500000000000001E-002    -1.1462746351353927E-025
   1.6800000000000002E-002    -1.1685240063285051E-025
   1.7100000000000004E-002     4.5695861060818382E-025
   1.7400000000000006E-002    -3.4736112930786325E-025
   1.7700000000000000E-002    -6.2839061810571929E-025
   1.8000000000000002E-002     1.6763129332897313E-024
   1.8300000000000004E-002    -8.0898775987430555E-025
   1.8600000000000005E-002    -2.6813809708089645E-024
   1.8900000000000000E-002     5.2851542866796281E-024
   1.9200000000000002E-002    -1.1739733373942651E-024
   1.9500000000000003E-002    -9.3809780819196504E-024
   1.9799999999999998E-002     1.4269901717795070E-023
   2.0100000000000000E-002     2.0303933944540124E-025
   2.0400000000000001E-002    -2.7049227715886182E-023
   2.0700000000000003E-002     3.3415811786604157E-023
   2.0999999999999998E-002     5.7491392331076379E-024
   2.1299999999999999E-002    -6.4247364513629045E-023
   2.1600000000000001E-002     7.3394531926603357E-023
   2.1900000000000003E-002     6.5068639682016279E-024
   2.2200000000000004E-002    -1.2811767511583493E-022
   2.2500000000000006E-002     1.7999010560079032E-022
   2.2800000000000001E-002    -6.1292091419461282E-023
   2.3100000000000002E-002    -2.2153768234259583E-022
   2.3400000000000004E-002     3.9677558554507102E-022
   2.3699999999999999E-002     1.0457226153397377E-024
   2.4000000000000000E-002    -3.5665985443424062E-022
   2.4300000000000002E-002    -3.0411296769244836E-021
   2.4599999999999997E-002     1.2121963264337729E-020
   2.4900000000000005E-002    -2.9820357618870477E-021
   2.5200000000000000E-002    -9.1461351014600915E-020
   2.5499999999999995E-002     2.5511998228384398E-019
   2.5800000000000003E-002    -5.4208767332907067E-021
   2.6099999999999998E-002    -1.5674376551967482E-018
   2.6400000000000007E-002     3.2553802117198294E-018
   2.6700000000000002E-002     2.7442272071582066E-018
   2.6999999999999996E-002    -2.2694122614347313E-017
   2.7300000000000005E-002     2.0439077534079838E-017
   2.7600000000000000E-002     9.5774440517176288E-017
   2.7900000000000008E-002    -2.5084969519632734E-016
   2.8200000000000003E-002    -1.7197700461051051E-016
   2.8499999999999998E-002     1.5871132228645260E-015
   2.8800000000000006E-002    -1.3913987155653032E-015
   2.9100000000000001E-002    -5.3965954445477281E-015
   2.9400000000000003E-002     1.2651485134013451E-014
   2.9700000000000004E-002     4.8228189805762084E-015
   3.0000000000000006E-002    -4.1717504043420412E-014
   3.0300000000000001E-002     1.0248626673555305E-014
   3.0600000000000002E-002     7.7025058276493445E-014
   3.0900000000000004E-002     1.2315859879369890E-013
   3.1199999999999999E-002    -4.9439472858020791E-013
   3.1500000000000007E-002    -7.1252350929061746E-013
   3.1800000000000002E-002     3.7091220465846551E-012
   3.2099999999999997E-002    -1.2665687280215955E-012
   3.2400000000000005E-002    -1.1609072045851868E-011
   3.2700000000000000E-002     1.6590287051727903E-011
   3.3000000000000002E-002     1.3476811593821422E-012
   3.3300000000000003E-002    -1.3221896929636512E-011
   3.3599999999999998E-002     6.7570245522697663E-011
   3.3900000000000000E-002    -2.8996166712006078E-010
   3.4200000000000001E-002     1.4429572562734897E-010
   3.4500000000000003E-002     1.4588877996377485E-009
   3.4799999999999998E-002    -2.6297316124054140E-009
   3.5099999999999999E-002    -2.4604208572724308E-009
   3.5400000000000001E-002     1.1833129782951985E-008
   3.5699999999999996E-002    -6.7188781461825438E-009
   3.6000000000000004E-002    -3.1128445177785723E-008
   3.6299999999999999E-002     5.7063106293402512E-008
   3.6600000000000008E-002     4.6669907771075453E-008
   3.6900000000000002E-002    -1.6931613456557929E-007
   3.7199999999999997E-002     6.0614822452721642E-007
   3.7500000000000006E-002     3.9496798529083020E-006
   3.7800000000000000E-002     1.0180543844032075E-005
   3.8100000000000009E-002     1.9369999113879771E-005
   3.8400000000000004E-002     3.1313107200230182E-005
   3.8699999999999998E-002     4.4589007777808003E-005
   3.9000000000000007E-002     6.1255501033530469E-005
   3.9300000000000002E-002     8.9683595099887041E-005
   3.9600000000000003E-002     1.3769098737725409E-004
   3.9900000000000005E-002     2.1036378030410904E-004
   4.0200000000000000E-002     3.1709277775387470E-004
   4.0500000000000001E-002     4.7179945780227879E-004
   4.0800000000000003E-002     6.8924636781193143E-004
   4.1100000000000005E-002     9.8883091649619318E-004
   4.1399999999999999E-002     1.3974204171191588E-003
   4.1700000000000008E-002     1.9463351019741414E-003
   4.2000000000000003E-002     2.6685150567094902E-003
   4.2299999999999997E-002     3.5968255068670194E-003
   4.2600000000000006E-002     4.7646866431014477E-003
   4.2900000000000001E-002     6.2075988198608528E-003
   4.3200000000000002E-002     7.9605879355780004E-003
   4.3500000000000004E-002     1.0051348558659077E-002
   4.3799999999999999E-002     1.2485446912630729E-002
   4.4100000000000000E-002     1.5233786834506179E-002
   4.4400000000000002E-002     1.8234815642728563E-002
   4.4700000000000004E-002     2.1400756781687277E-002
   4.4999999999999998E-002     2.4621916226088530E-002
   4.5300000000000000E-002     2.7766536586482829E-002
   4.5600000000000002E-002     3.0666505325927448E-002
   4.5899999999999996E-002     3.3119224814456068E-002
   4.6200000000000005E-002     3.4929961778954785E-002
   4.6500000000000000E-002     3.5953421095344190E-002
   4.6799999999999994E-002     3.6098768645152220E-002
   4.7100000000000003E-002     3.5340771043742024E-002
   4.7399999999999998E-002     3.3743191883797576E-002
   4.7700000000000006E-002     3.1451461235992101E-002
   4.8000000000000001E-002     2.8695590393540818E-002
   4.8300000000000010E-002     2.5747015490629983E-002
   4.8600000000000004E-002     2.2865358494708922E-002
   4.8899999999999999E-002     2.0214475187710350E-002
   4.9200000000000008E-002     1.7772046140364602E-002
   4.9500000000000002E-002     1.5230344214834424E-002
   4.9800000000000011E-002     1.1891395714446236E-002
   5.0100000000000006E-002     6.6286690394364986E-003
   5.0400000000000000E-002    -2.1096870495480985E-003
   5.0700000000000009E-002    -1.6267265106352534E-002
   5.1000000000000004E-002    -3.8055234797206329E-002
   5.1299999999999998E-002    -6.9735700747276211E-002
   5.1600000000000007E-002   -0.11330126571854970     
   5.1900000000000002E-002   -0.17017936923471669     
   5.2200000000000010E-002   -0.24087697505757222     
   5.2500000000000005E-002   -0.32462666496993214     
   5.2800000000000000E-002   -0.41912390516301418     
   5.3099999999999994E-002   -0.52038841001494363     
   5.3400000000000003E-002   -0.62280266500605652     
   5.3699999999999998E-002   -0.71929086337747539     
   5.4000000000000006E-002   -0.80174893385229873     
   5.4300000000000001E-002   -0.86157221946127571     
   5.4599999999999996E-002   -0.89036203609482789     
   5.4900000000000004E-002   -0.88076507994676601     
   5.5199999999999999E-002   -0.82720140056620162     
   5.5499999999999994E-002   -0.72655132128089694     
   5.5800000000000002E-002   -0.57875422997705772     
   5.6099999999999997E-002   -0.38694666176727044     
   5.6400000000000006E-002   -0.15771389820954648     
   5.6700000000000000E-002     9.9380283851930790E-002
   5.6999999999999995E-002    0.37223595197283760     
   5.7300000000000004E-002    0.64696399765958246     
   5.7599999999999998E-002    0.90895733568793280     
   5.7900000000000007E-002     1.1438597389513097     
   5.8200000000000002E-002     1.3385689069794662     
   5.8499999999999996E-002     1.4822974540150611     
   5.8800000000000005E-002     1.5671728377405649     
   5.9100000000000000E-002     1.5890035363100958     
   5.9400000000000008E-002     1.5472968847037871     
   5.9700000000000003E-002     1.4454364810514733     
   6.0000000000000012E-002     1.2903571941838115     
   6.0300000000000006E-002     1.0918875780244732     
   6.0600000000000001E-002    0.86209140395127426     
   6.0900000000000010E-002    0.61435795790739722     
   6.1200000000000004E-002    0.36244816327991625     
   6.1500000000000013E-002    0.11966729370988946     
   6.1800000000000008E-002   -0.10218041546068808     
   6.2100000000000002E-002   -0.29330843444232774     
   6.2399999999999997E-002   -0.44661895171707433     
   6.2700000000000006E-002   -0.55774330095342273     
   6.3000000000000000E-002   -0.62527897269565114     
   6.3300000000000009E-002   -0.65058576035811322     
   6.3600000000000004E-002   -0.63732455068232141     
   6.3899999999999998E-002   -0.59105908716639821     
   6.4199999999999993E-002   -0.51862112063123222     
   6.4500000000000002E-002   -0.42736118063166972     
   6.4800000000000010E-002   -0.32492922056699791     
   6.5100000000000005E-002   -0.21837583189754284     
   6.5400000000000000E-002   -0.11421519143514694     
   6.5700000000000008E-002    -1.7815185729887668E-002
   6.5999999999999989E-002     6.6392788768806499E-002
   6.6299999999999998E-002    0.13511449067713371     
   6.6600000000000006E-002    0.18605284265219194     
   6.6900000000000001E-002    0.21771102697613098     
   6.7199999999999996E-002    0.22943551479586000     
   6.7500000000000004E-002    0.22134866336717779     
   6.7800000000000013E-002    0.19422822500797898     
   6.8099999999999994E-002    0.14972745581980215     
   6.8400000000000002E-002     9.0267766217224668E-002
   6.8700000000000011E-002     1.9279328633923405E-002
   6.8999999999999992E-002    -5.8970843419560610E-002
   6.9300000000000000E-002   -0.13922498804762229     
   6.9600000000000009E-002   -0.21553735566211890     
   6.9900000000000004E-002   -0.28147893355484699     
   7.0199999999999999E-002   -0.33056949289327636     
   7.0500000000000007E-002   -0.35686358787529121     
   7.0800000000000016E-002   -0.35552942025568657     
   7.1099999999999997E-002   -0.32330434547083398     
   7.1400000000000005E-002   -0.25938967326712897     
   7.1700000000000000E-002   -0.16565412038039334     
   7.1999999999999995E-002    -4.6957979555171295E-002
   7.2300000000000003E-002     8.8704749068080152E-002
   7.2600000000000012E-002    0.23057281261840151     
   7.2900000000000006E-002    0.36573320481755828     
   7.3200000000000001E-002    0.47969918302551073     
   7.3499999999999996E-002    0.55771458709559774     
   7.3800000000000004E-002    0.58614046724366053     
   7.4099999999999999E-002    0.55343152125993211     
   7.4400000000000008E-002    0.45170844862884230     
   7.4700000000000003E-002    0.27784845092874039     
   7.5000000000000011E-002     3.4063981552664296E-002
   7.5299999999999992E-002   -0.27146994606192032     
   7.5600000000000001E-002   -0.62474569005020952     
   7.5900000000000009E-002    -1.0066079309298219     
   7.6200000000000004E-002    -1.3938872230430221     
   7.6499999999999999E-002    -1.7606247552352030     
   7.6800000000000007E-002    -2.0805604641403224     
   7.7099999999999988E-002    -2.3286521659539750     
   7.7399999999999997E-002    -2.4831919545946981     
   7.7700000000000005E-002    -2.5280665664234037     
   7.8000000000000014E-002    -2.4537394897271434     
   7.8299999999999995E-002    -2.2585695271690507     
   7.8600000000000003E-002    -1.9489067952955565     
   7.8900000000000012E-002    -1.5387970712346317     
   7.9199999999999993E-002    -1.0493154739776749     
   7.9500000000000001E-002   -0.50637542012017323     
   7.9800000000000010E-002     6.0394276767880117E-002
   8.0100000000000018E-002    0.62070736934109783     
   8.0399999999999999E-002     1.1451302447418856     
   8.0700000000000008E-002     1.6075415767050636     
   8.1000000000000003E-002     1.9868299756792824     
   8.1299999999999997E-002     2.2677729189644635     
   8.1600000000000006E-002     2.4420084916249936     
   8.1900000000000014E-002     2.5081043883480048     
   8.2199999999999995E-002     2.4709224975115656     
   8.2500000000000004E-002     2.3409287505397249     
   8.2799999999999999E-002     2.1327736707074436     
   8.3100000000000007E-002     1.8644597491915187     
   8.3400000000000002E-002     1.5553486558104952     
   8.3700000000000011E-002     1.2254595437424953     
   8.4000000000000005E-002    0.89422155827864591     
   8.4300000000000000E-002    0.57949095575631882     
   8.4599999999999995E-002    0.29754156385798530     
   8.4900000000000003E-002     6.1438531264097596E-002
   8.5199999999999998E-002   -0.11793143860315265     
   8.5500000000000007E-002   -0.23320537266235253     
   8.5800000000000001E-002   -0.28014336161367959     
   8.6100000000000010E-002   -0.25800053542611984     
   8.6399999999999991E-002   -0.17022641370660707     
   8.6699999999999999E-002    -2.3792058055519219E-002
   8.7000000000000008E-002    0.17004803368270285     
   8.7300000000000003E-002    0.39658071558537300     
   8.7599999999999997E-002    0.63780178539011856     
   8.7900000000000006E-002    0.87324649688853906     
   8.8200000000000014E-002     1.0814884488330030     
   8.8499999999999995E-002     1.2413399162641754     
   8.8800000000000004E-002     1.3338948989056236     
   8.9100000000000013E-002     1.3438601037744005     
   8.9399999999999993E-002     1.2616755019834256     
   8.9700000000000002E-002     1.0842479947155161     
   9.0000000000000011E-002    0.81628473246622735     
   9.0299999999999991E-002    0.47010924761434336     
   9.0600000000000000E-002     6.5221232838584942E-002
   9.0900000000000009E-002   -0.37340131004699306     
   9.1200000000000017E-002   -0.81649972517074876     
   9.1499999999999998E-002    -1.2339086056395883     
   9.1800000000000007E-002    -1.5968151287449976     
   9.2100000000000001E-002    -1.8803024248189359     
   9.2399999999999996E-002    -2.0664179321712757     
   9.2700000000000005E-002    -2.1453274250225132     
   9.3000000000000013E-002    -2.1167724205431200     
   9.3300000000000008E-002    -1.9902812032913610     
   9.3600000000000003E-002    -1.7836927994903511     
   9.3899999999999997E-002    -1.5224554220182733     
   9.4200000000000006E-002    -1.2361143818884661     
   9.4500000000000001E-002   -0.95656327763644011     
   9.4800000000000009E-002   -0.71399690086715284     
   9.5100000000000004E-002   -0.53479946351540297     
   9.5399999999999999E-002   -0.43853660124734545     
   9.5699999999999993E-002   -0.43669784646974041     
   9.6000000000000002E-002   -0.53139510572409487     
   9.6300000000000011E-002   -0.71537165980766837     
   9.6600000000000005E-002   -0.97281916129146362     
   9.6900000000000000E-002    -1.2807460872249892     
   9.7200000000000009E-002    -1.6107228060602445     
   9.7499999999999989E-002    -1.9317822980046579     
   9.7799999999999998E-002    -2.2116295614765358     
   9.8100000000000007E-002    -2.4199729467637856     
   9.8400000000000015E-002    -2.5297479960083962     
   9.8699999999999996E-002    -2.5189359151324915     
   9.9000000000000005E-002    -2.3717139416678643     
   9.9300000000000013E-002    -2.0793472851763104     
   9.9599999999999994E-002    -1.6402730876749798     
   9.9900000000000003E-002    -1.0606287882060661     
  0.10020000000000001        -0.35340720056907249     
  0.10049999999999999         0.46088083034629401     
  0.10080000000000000          1.3564408748074528     
  0.10110000000000001          2.3008914903442546     
  0.10140000000000000          3.2580040220446311     
  0.10170000000000000          4.1885234115371457     
  0.10200000000000001          5.0506209949380683     
  0.10230000000000002          5.8029612984421792     
  0.10260000000000000          6.4054718341616823     
  0.10290000000000001          6.8221127121460610     
  0.10320000000000000          7.0227932893805285     
  0.10350000000000001          6.9846748084701797     
  0.10380000000000000          6.6955720966600385     
  0.10410000000000001          6.1529340611075725     
  0.10440000000000001          5.3678086840978585     
  0.10470000000000000          4.3620814516972510     
  0.10500000000000000          3.1698534697655818     
  0.10530000000000000          1.8355937394121935     
  0.10560000000000000         0.41152780922001508     
  0.10590000000000001         -1.0436947048332064     
  0.10620000000000000         -2.4697779152138102     
  0.10650000000000001         -3.8062992747003959     
  0.10679999999999999         -4.9976718653023706     
  0.10710000000000000         -5.9953921883723833     
  0.10740000000000001         -6.7600868548701580     
  0.10770000000000000         -7.2653368334290356     
  0.10800000000000000         -7.4960985378880878     
  0.10830000000000001         -7.4522395140809650     
  0.10859999999999999         -7.1451262841948164     
  0.10890000000000000         -6.5989678240263894     
  0.10920000000000001         -5.8474812724585741     
  0.10950000000000001         -4.9323238614892242     
  0.10979999999999999         -3.9006584575166539     
  0.11009999999999999         -2.8013683574242005     
  0.11040000000000001         -1.6844703169813537     
  0.11070000000000001        -0.59561976263657679     
  0.11100000000000000         0.42284636165600220     
  0.11130000000000000          1.3367648527193325     
  0.11160000000000002          2.1199052167827448     
  0.11190000000000001          2.7548183152289361     
  0.11220000000000001          3.2342423105595191     
  0.11250000000000000          3.5582404318520879     
  0.11280000000000000          3.7366257166433332     
  0.11309999999999999          3.7838950641020350     
  0.11340000000000001          3.7202323201019807     
  0.11369999999999998          3.5680470519940366     
  0.11400000000000000          3.3500681354471844     
  0.11430000000000000          3.0884089188027208     
  0.11460000000000002          2.8020494309473829     
  0.11489999999999999          2.5069875610715076     
  0.11520000000000001          2.2148723234374197     
  0.11550000000000001          1.9331651770758773     
  0.11580000000000000          1.6667946167332452     
  0.11609999999999999          1.4168167298599643     
  0.11640000000000002          1.1834413314002463     
  0.11670000000000001         0.96520377309333760     
  0.11700000000000001         0.76047196455305766     
  0.11730000000000000         0.56802169854297191     
  0.11760000000000000         0.38585089389609206     
  0.11789999999999999         0.21301690564216091     
  0.11820000000000001          4.7473946235886383E-002
  0.11850000000000001        -0.11343753370345819     
  0.11880000000000000        -0.27282166849562461     
  0.11910000000000000        -0.43580865107775929     
  0.11940000000000002        -0.60751664695976160     
  0.11970000000000001        -0.79470697460046236     
  0.12000000000000001         -1.0027388731420872     
  0.12030000000000000         -1.2364162510510250     
  0.12060000000000000         -1.4984598095062309     
  0.12089999999999999         -1.7877411945080581     
  0.12119999999999999         -2.1003496838636262     
  0.12150000000000001         -2.4278089301758117     
  0.12180000000000001         -2.7580394738354874     
  0.12210000000000000         -3.0754538336597026     
  0.12239999999999999         -3.3621452843278403     
  0.12270000000000002         -3.6000040598675040     
  0.12300000000000001         -3.7703423210057929     
  0.12330000000000001         -3.8579601113843811     
  0.12360000000000000         -3.8502408902954413     
  0.12390000000000000         -3.7397331204746189     
  0.12419999999999999         -3.5247859384587832     
  0.12450000000000001         -3.2087140952465236     
  0.12480000000000001         -2.8016361148669398     
  0.12509999999999999         -2.3178197565727361     
  0.12540000000000001         -1.7763208007992017     
  0.12570000000000003         -1.1988794019593925     
  0.12600000000000000        -0.60850520572491451     
  0.12630000000000002         -2.8278769595193320E-002
  0.12659999999999999         0.52023190310903289     
  0.12690000000000001          1.0184340533520924     
  0.12719999999999998          1.4514047124218512     
  0.12750000000000000          1.8097113951219277     
  0.12780000000000002          2.0881387346509097     
  0.12809999999999999          2.2876471977634836     
  0.12840000000000001          2.4136685968862581     
  0.12869999999999998          2.4755555737255772     
  0.12900000000000000          2.4867834222091436     
  0.12930000000000003          2.4614142459871955     
  0.12959999999999999          2.4149423909754901     
  0.12990000000000002          2.3621442373655310     
  0.13019999999999998          2.3145508501808081     
  0.13050000000000000          2.2819633875572105     
  0.13080000000000003          2.2692025256788986     
  0.13109999999999999          2.2777493413909022     
  0.13140000000000002          2.3050577948105468     
  0.13169999999999998          2.3449477090857846     
  0.13200000000000001          2.3892782039647389     
  0.13229999999999997          2.4286859762880857     
  0.13260000000000000          2.4539911279436115     
  0.13290000000000002          2.4575699631600605     
  0.13319999999999999          2.4332892683695890     
  0.13350000000000001          2.3794890100450763     
  0.13380000000000003          2.2966907406403045     
  0.13410000000000000          2.1889910271133108     
  0.13440000000000002          2.0632086384895505     
  0.13469999999999999          1.9273207616816821     
  0.13500000000000001          1.7898145196564248     
  0.13529999999999998          1.6572849522431763     
  0.13560000000000000          1.5336672791973345     
  0.13590000000000002          1.4195220802205564     
  0.13619999999999999          1.3089888143087345     
  0.13650000000000001          1.1920373542349882     
  0.13680000000000003          1.0533285710952149     
  0.13710000000000000         0.87372356301438925     
  0.13740000000000002         0.63345141256213910     
  0.13769999999999999         0.31370336981288094     
  0.13800000000000001         -9.8994796825499554E-002
  0.13829999999999998        -0.60918176077966701     
  0.13860000000000000         -1.2091086865167193     
  0.13890000000000002         -1.8757978903086410     
  0.13919999999999999         -2.5706409199668734     
  0.13950000000000001         -3.2387436872306110     
  0.13979999999999998         -3.8128847112446564     
  0.14010000000000000         -4.2183465151790962     
  0.14040000000000002         -4.3806906968976049     
  0.14069999999999999         -4.2342584468088083     
  0.14100000000000001         -3.7328481755019052     
  0.14130000000000004         -2.8579879875887202     
  0.14160000000000000         -1.6276204024909862     
  0.14189999999999997        -0.10075656853617787     
  0.14219999999999999          1.6230572956562814     
  0.14250000000000002          3.4057859739557830     
  0.14279999999999998          5.0820627351176206     
  0.14310000000000000          6.4704454873317037     
  0.14339999999999997          7.3919260919759111     
  0.14369999999999999          7.6888459410679282     
  0.14400000000000002          7.2414008187700123     
  0.14429999999999998          5.9874454361292351     
  0.14460000000000001          3.9313310426138663     
  0.14490000000000003          1.1526292182632449     
  0.14520000000000000         -2.1961840647619844     
  0.14550000000000002         -5.8987616392825934     
  0.14579999999999999         -9.6880577815575890     
  0.14610000000000001         -13.271010499336882     
  0.14640000000000003         -16.350310081057319     
  0.14670000000000000         -18.653593811792717     
  0.14699999999999996         -19.956087765016559     
  0.14729999999999999         -20.103105553518454     
  0.14760000000000001         -19.024086568582220     
  0.14789999999999998         -16.740606544354947     
  0.14820000000000000         -13.364786114979754     