  -1.4999999999999999E-002     0.0000000000000000     
  -1.4700000000000000E-002     0.0000000000000000     
  -1.4400000000000000E-002     0.0000000000000000     
  -1.4100000000000000E-002     0.0000000000000000     
  -1.3800000000000000E-002     0.0000000000000000     
  -1.3500000000000000E-002     0.0000000000000000     
  -1.3200000000000000E-002     0.0000000000000000     
  -1.2899999999999998E-002     0.0000000000000000     
  -1.2600000000000000E-002     0.0000000000000000     
  -1.2299999999999998E-002     0.0000000000000000     
  -1.2000000000000000E-002     0.0000000000000000     
  -1.1699999999999999E-002     0.0000000000000000     
  -1.1399999999999999E-002     0.0000000000000000     
  -1.1099999999999999E-002     0.0000000000000000     
  -1.0799999999999999E-002     0.0000000000000000     
  -1.0499999999999999E-002     0.0000000000000000     
  -1.0199999999999999E-002     0.0000000000000000     
  -9.8999999999999991E-003     0.0000000000000000     
  -9.5999999999999992E-003     0.0000000000000000     
  -9.2999999999999992E-003     0.0000000000000000     
  -8.9999999999999993E-003     0.0000000000000000     
  -8.6999999999999994E-003     0.0000000000000000     
  -8.3999999999999995E-003     0.0000000000000000     
  -8.0999999999999996E-003     0.0000000000000000     
  -7.7999999999999988E-003     0.0000000000000000     
  -7.4999999999999997E-003     0.0000000000000000     
  -7.1999999999999998E-003     0.0000000000000000     
  -6.8999999999999981E-003     0.0000000000000000     
  -6.5999999999999982E-003     0.0000000000000000     
  -6.3000000000000000E-003     0.0000000000000000     
  -6.0000000000000001E-003     0.0000000000000000     
  -5.6999999999999985E-003     0.0000000000000000     
  -5.3999999999999986E-003     0.0000000000000000     
  -5.1000000000000004E-003     0.0000000000000000     
  -4.7999999999999987E-003     0.0000000000000000     
  -4.5000000000000005E-003     0.0000000000000000     
  -4.1999999999999989E-003     0.0000000000000000     
  -3.8999999999999990E-003     0.0000000000000000     
  -3.5999999999999990E-003     0.0000000000000000     
  -3.2999999999999991E-003     0.0000000000000000     
  -2.9999999999999992E-003     0.0000000000000000     
  -2.6999999999999993E-003     0.0000000000000000     
  -2.3999999999999994E-003     0.0000000000000000     
  -2.0999999999999977E-003     0.0000000000000000     
  -1.7999999999999995E-003     0.0000000000000000     
  -1.4999999999999979E-003     0.0000000000000000     
  -1.1999999999999997E-003     0.0000000000000000     
  -8.9999999999999976E-004     0.0000000000000000     
  -5.9999999999999810E-004     0.0000000000000000     
  -2.9999999999999992E-004     0.0000000000000000     
   0.0000000000000000          0.0000000000000000     
   3.0000000000000165E-004     0.0000000000000000     
   5.9999999999999984E-004     0.0000000000000000     
   9.0000000000000149E-004     0.0000000000000000     
   1.2000000000000031E-003     0.0000000000000000     
   1.5000000000000013E-003     0.0000000000000000     
   1.8000000000000030E-003     0.0000000000000000     
   2.1000000000000012E-003     0.0000000000000000     
   2.3999999999999994E-003     0.0000000000000000     
   2.7000000000000010E-003     0.0000000000000000     
   2.9999999999999992E-003     0.0000000000000000     
   3.3000000000000008E-003     0.0000000000000000     
   3.6000000000000025E-003     0.0000000000000000     
   3.9000000000000007E-003     0.0000000000000000     
   4.2000000000000023E-003     0.0000000000000000     
   4.5000000000000005E-003     0.0000000000000000     
   4.7999999999999987E-003     0.0000000000000000     
   5.1000000000000004E-003     0.0000000000000000     
   5.4000000000000020E-003     0.0000000000000000     
   5.7000000000000037E-003     0.0000000000000000     
   5.9999999999999984E-003     0.0000000000000000     
   6.3000000000000000E-003     0.0000000000000000     
   6.6000000000000017E-003     0.0000000000000000     
   6.9000000000000034E-003     0.0000000000000000     
   7.2000000000000015E-003    -1.7228726604494527E-037
   7.5000000000000032E-003    -3.3200312756816529E-038
   7.8000000000000014E-003     7.1714870261441600E-036
   8.0999999999999996E-003    -2.6370139223471873E-035
   8.4000000000000012E-003     6.0428065674358319E-035
   8.7000000000000029E-003    -1.6431354255531605E-034
   9.0000000000000011E-003    -3.6263627296274017E-034
   9.2999999999999992E-003     1.9145724816063496E-033
   9.6000000000000009E-003    -4.0511964832623087E-033
   9.8999999999999991E-003    -5.8930855939107893E-034
   1.0200000000000001E-002     1.8816024426633120E-032
   1.0500000000000002E-002    -3.3666355594216548E-032
   1.0800000000000004E-002    -1.2141581086110110E-032
   1.1099999999999999E-002     1.4966416071664957E-031
   1.1400000000000000E-002    -2.1100614394773208E-031
   1.1700000000000002E-002    -2.0415340662387905E-031
   1.2000000000000004E-002     1.1314141394623299E-030
   1.2300000000000002E-002    -1.1433423088953033E-030
   1.2600000000000000E-002    -2.2067004254316454E-030
   1.2900000000000002E-002     7.6808774418885385E-030
   1.3200000000000000E-002    -4.5983486653165604E-030
   1.3500000000000002E-002    -1.9356412519079000E-029
   1.3800000000000003E-002     4.6142072966429289E-029
   1.4100000000000001E-002    -6.4087978690282428E-030
   1.4400000000000000E-002    -1.4312265786626364E-028
   1.4700000000000001E-002     2.3804759816524255E-028
   1.4999999999999999E-002     1.0075210851492581E-028
   1.5300000000000001E-002    -8.9719889514622315E-028
   1.5600000000000003E-002     1.0074675536013194E-027
   1.5899999999999997E-002     1.2447702145443529E-027
   1.6199999999999999E-002    -4.7668678919256745E-027
   1.6500000000000001E-002     3.1635207545530769E-027
   1.6800000000000002E-002     9.0659798350488699E-027
   1.7100000000000004E-002    -2.1311248832541926E-026
   1.7400000000000006E-002     4.5454449258054230E-027
   1.7700000000000000E-002     5.0272513068217563E-026
   1.8000000000000002E-002    -7.8361870624463612E-026
   1.8300000000000004E-002    -2.4664561101387490E-026
   1.8600000000000005E-002     2.2440238002507792E-025
   1.8900000000000000E-002    -2.2279589322158499E-025
   1.9200000000000002E-002    -2.5008813869905328E-025
   1.9500000000000003E-002     8.0755058445409049E-025
   1.9799999999999998E-002    -3.9487365516566828E-025
   2.0100000000000000E-002    -1.2835064583943178E-024
   2.0400000000000001E-002     2.2420164452165362E-024
   2.0700000000000003E-002     2.0178724166134205E-025
   2.0999999999999998E-002    -4.5891565283990715E-024
   2.1299999999999999E-002     4.0631115359898478E-024
   2.1600000000000001E-002     4.7273267831668228E-024
   2.1900000000000003E-002    -1.1211613244636558E-023
   2.2200000000000004E-002     1.7225660826297329E-025
   2.2500000000000006E-002     1.9689804581849174E-023
   2.2800000000000001E-002    -1.2028195875905150E-023
   2.3100000000000002E-002    -3.2240115396365258E-023
   2.3400000000000004E-002     4.5728925120484057E-023
   2.3699999999999999E-002     4.2404292625282786E-023
   2.4000000000000000E-002    -1.5480606944991779E-022
   2.4300000000000002E-002     8.2210963302961899E-023
   2.4599999999999997E-002     2.9659777151319088E-022
   2.4900000000000005E-002    -9.7125717747779178E-022
   2.5200000000000000E-002     1.4803722423142351E-021
   2.5499999999999995E-002     1.9064650238660199E-021
   2.5800000000000003E-002    -1.7941383477566281E-020
   2.6099999999999998E-002     3.5079367659724807E-020
   2.6400000000000007E-002     4.9945577807551954E-020
   2.6700000000000002E-002    -3.8111113003631870E-019
   2.6999999999999996E-002     4.9347296707670446E-019
   2.7300000000000005E-002     1.6027848129827731E-018
   2.7600000000000000E-002    -6.5397344624095037E-018
   2.7900000000000008E-002     1.9841088794585527E-018
   2.8200000000000003E-002     3.7947214929501961E-017
   2.8499999999999998E-002    -7.6854327654566932E-017
   2.8800000000000006E-002    -1.0478050584198285E-016
   2.9100000000000001E-002     6.0337091025043988E-016
   2.9400000000000003E-002    -2.2083107631207155E-016
   2.9700000000000004E-002    -3.1503666953935242E-015
   3.0000000000000006E-002     4.9079050940506128E-015
   3.0300000000000001E-002     1.2886990980893812E-014
   3.0600000000000002E-002    -4.3549151238221626E-014
   3.0900000000000004E-002    -2.6318886340645935E-014
   3.1199999999999999E-002     2.9083966416644057E-013
   3.1500000000000007E-002    -2.2411902639522236E-013
   3.1800000000000002E-002    -1.3090981291976882E-012
   3.2099999999999997E-002     2.9298636260968317E-012
   3.2400000000000005E-002     2.5644619234245070E-012
   3.2700000000000000E-002    -1.6950098331373270E-011
   3.3000000000000002E-002     1.0389629624396477E-011
   3.3300000000000003E-002     5.6341882733272423E-011
   3.3599999999999998E-002    -1.0615550429493381E-010
   3.3900000000000000E-002    -8.1508875577375158E-011
   3.4200000000000001E-002     4.4364169190763086E-010
   3.4500000000000003E-002    -1.9994751144739297E-010
   3.4799999999999998E-002    -1.1150070322247714E-009
   3.5099999999999999E-002     1.5905929790047404E-009
   3.5400000000000001E-002     1.5471004328701445E-009
   3.5699999999999996E-002    -5.2517821906532997E-009
   3.6000000000000004E-002     1.9319580593080643E-010
   3.6299999999999999E-002     1.2090383786622110E-008
   3.6600000000000008E-002    -6.7881761133159064E-009
   3.6900000000000002E-002    -2.5234831544046790E-008
   3.7199999999999997E-002     1.6825679880289348E-008
   3.7500000000000006E-002     6.2795818489380303E-008
   3.7800000000000000E-002    -2.2266646215533300E-008
   3.8100000000000009E-002    -2.2637574078948849E-007
   3.8400000000000004E-002     2.8474216478074935E-007
   3.8699999999999998E-002     4.2349428152080058E-006
   3.9000000000000007E-002     1.6001921355013620E-005
   3.9300000000000002E-002     3.8366748698704723E-005
   3.9600000000000003E-002     6.7970185423753027E-005
   3.9900000000000005E-002     9.7129634920425193E-005
   4.0200000000000000E-002     1.2729575890693060E-004
   4.0500000000000001E-002     1.7914998284626981E-004
   4.0800000000000003E-002     2.7861993272733175E-004
   4.1100000000000005E-002     4.3592661807215433E-004
   4.1399999999999999E-002     6.5411930351440034E-004
   4.1700000000000008E-002     9.5527453672983971E-004
   4.2000000000000003E-002     1.3826187978537635E-003
   4.2299999999999997E-002     1.9821611950638029E-003
   4.2600000000000006E-002     2.7969792655736731E-003
   4.2900000000000001E-002     3.8762641426731163E-003
   4.3200000000000002E-002     5.2801264363823716E-003
   4.3500000000000004E-002     7.0716540844727371E-003
   4.3799999999999999E-002     9.3014509408910762E-003
   4.4100000000000000E-002     1.1994351990638585E-002
   4.4400000000000002E-002     1.5140672286703547E-002
   4.4700000000000004E-002     1.8680429898223622E-002
   4.4999999999999998E-002     2.2486811439080028E-002
   4.5300000000000000E-002     2.6347144245233260E-002
   4.5600000000000002E-002     2.9929727678313131E-002
   4.5899999999999996E-002     3.2747304355935793E-002
   4.6200000000000005E-002     3.4146996787804744E-002
   4.6500000000000000E-002     3.3350216932380050E-002
   4.6799999999999994E-002     2.9498436957646895E-002
   4.7100000000000003E-002     2.1656112969299941E-002
   4.7399999999999998E-002     8.8497972123578773E-003
   4.7700000000000006E-002    -9.7884158650001548E-003
   4.8000000000000001E-002    -3.4829421981919115E-002
   4.8300000000000010E-002    -6.6437311695952642E-002
   4.8600000000000004E-002   -0.10427365519966802     
   4.8899999999999999E-002   -0.14728302658467785     
   4.9200000000000008E-002   -0.19353891351333588     
   4.9500000000000002E-002   -0.24023473998779410     
   4.9800000000000011E-002   -0.28373835738044623     
   5.0100000000000006E-002   -0.31967306884590213     
   5.0400000000000000E-002   -0.34313284687511592     
   5.0700000000000009E-002   -0.34906623366810030     
   5.1000000000000004E-002   -0.33271110402498200     
   5.1299999999999998E-002   -0.29011834192108421     
   5.1600000000000007E-002   -0.21875045540159199     
   5.1900000000000002E-002   -0.11795637043477630     
   5.2200000000000010E-002     1.0679555154018777E-002
   5.2500000000000005E-002    0.16302881239787001     
   5.2800000000000000E-002    0.33236682122575356     
   5.3099999999999994E-002    0.50959966427229697     
   5.3400000000000003E-002    0.68387897708977130     
   5.3699999999999998E-002    0.84323986805911266     
   5.4000000000000006E-002    0.97546770858154286     
   5.4300000000000001E-002     1.0692921125239576     
   5.4599999999999996E-002     1.1153690149128896     
   5.4900000000000004E-002     1.1072255689482069     
   5.5199999999999999E-002     1.0419647474597222     
   5.5499999999999994E-002    0.92080364954483018     
   5.5800000000000002E-002    0.74903606632669784     
   5.6099999999999997E-002    0.53576659558099493     
   5.6400000000000006E-002    0.29326519227726350     
   5.6700000000000000E-002     3.5988402023854837E-002
   5.6999999999999995E-002   -0.22055612832260477     
   5.7300000000000004E-002   -0.46113225474632308     
   5.7599999999999998E-002   -0.67192841551070392     
   5.7900000000000007E-002   -0.84156493329569149     
   5.8200000000000002E-002   -0.96200315288370497     
   5.8499999999999996E-002    -1.0289375709123432     
   5.8800000000000005E-002    -1.0420962665651228     
   5.9100000000000000E-002    -1.0049381942232167     
   5.9400000000000008E-002   -0.92432042901637113     
   5.9700000000000003E-002   -0.80960053636942009     
   6.0000000000000012E-002   -0.67208909615929924     
   6.0300000000000006E-002   -0.52406108375632510     
   6.0600000000000001E-002   -0.37766689623890504     
   6.0900000000000010E-002   -0.24441196833175760     
   6.1200000000000004E-002   -0.13407929986402334     
   6.1500000000000013E-002    -5.4339630712578108E-002
   6.1800000000000008E-002    -1.0275218824268392E-002
   6.2100000000000002E-002    -3.9611305633614983E-003
   6.2399999999999997E-002    -3.4534366933063658E-002
   6.2700000000000006E-002    -9.7999810193129810E-002
   6.3000000000000000E-002   -0.18767755577835052     
   6.3300000000000009E-002   -0.29461697533375925     
   6.3600000000000004E-002   -0.40796312039339810     
   6.3899999999999998E-002   -0.51582020888376057     
   6.4199999999999993E-002   -0.60612529582403385     
   6.4500000000000002E-002   -0.66741588631590421     
   6.4800000000000010E-002   -0.68988290634970895     
   6.5100000000000005E-002   -0.66597536206866847     
   6.5400000000000000E-002   -0.59141138666618376     
   6.5700000000000008E-002   -0.46547563018124027     
   6.5999999999999989E-002   -0.29120565613887284     
   6.6299999999999998E-002    -7.5574474543506048E-002
   6.6600000000000006E-002    0.17116784369417615     
   6.6900000000000001E-002    0.43592784243143712     
   6.7199999999999996E-002    0.70369881436835791     
   6.7500000000000004E-002    0.95873539409066533     
   6.7800000000000013E-002     1.1853451209140098     
   6.8099999999999994E-002     1.3695455355970354     
   6.8400000000000002E-002     1.4995180967426140     
   6.8700000000000011E-002     1.5663906996052959     
   6.8999999999999992E-002     1.5651676714694487     
   6.9300000000000000E-002     1.4944045060606410     
   6.9600000000000009E-002     1.3565295687341916     
   6.9900000000000004E-002     1.1574520546896325     
   7.0199999999999999E-002    0.90566609129696851     
   7.0500000000000007E-002    0.61226566335470034     
   7.0800000000000016E-002    0.28964115875375251     
   7.1099999999999997E-002    -4.8930179942580282E-002
   7.1400000000000005E-002   -0.38982670476218784     
   7.1700000000000000E-002   -0.71975268400115744     
   7.1999999999999995E-002    -1.0260293418517288     
   7.2300000000000003E-002    -1.2970310700563141     
   7.2600000000000012E-002    -1.5222052226676399     
   7.2900000000000006E-002    -1.6923245544883410     
   7.3200000000000001E-002    -1.7999195276804258     
   7.3499999999999996E-002    -1.8390634498137231     
   7.3800000000000004E-002    -1.8060164612732976     
   7.4099999999999999E-002    -1.6995678707356430     
   7.4400000000000008E-002    -1.5208924519536209     
   7.4700000000000003E-002    -1.2741054297511871     
   7.5000000000000011E-002   -0.96649321413437872     
   7.5299999999999992E-002   -0.60835084158194819     
   7.5600000000000001E-002   -0.21277080319347652     
   7.5900000000000009E-002    0.20479018356072498     
   7.6200000000000004E-002    0.62722986082985654     
   7.6499999999999999E-002     1.0363396894174857     
   7.6800000000000007E-002     1.4140811107991829     
   7.7099999999999988E-002     1.7437399711500030     
   7.7399999999999997E-002     2.0103606414553612     
   7.7700000000000005E-002     2.2018222676207482     
   7.8000000000000014E-002     2.3097272847725256     
   7.8299999999999995E-002     2.3294425241714527     
   7.8600000000000003E-002     2.2604313912041940     
   7.8900000000000012E-002     2.1058355913539084     
   7.9199999999999993E-002     1.8724232246138088     
   7.9500000000000001E-002     1.5700383096029296     
   7.9800000000000010E-002     1.2108497784231687     
   8.0100000000000018E-002    0.80887598369390723     
   8.0399999999999999E-002    0.37945925191927121     
   8.0700000000000008E-002    -6.1504146737662094E-002
   8.1000000000000003E-002   -0.49784711189379416     
   8.1299999999999997E-002   -0.91336596881636367     
   8.1600000000000006E-002    -1.2924460221623617     
   8.1900000000000014E-002    -1.6204848213873282     
   8.2199999999999995E-002    -1.8839018271102357     
   8.2500000000000004E-002    -2.0710794584675858     
   8.2799999999999999E-002    -2.1726632991092738     
   8.3100000000000007E-002    -2.1822260171468137     
   8.3400000000000002E-002    -2.0970304173235328     
   8.3700000000000011E-002    -1.9181666918403124     
   8.4000000000000005E-002    -1.6516483792894265     
   8.4300000000000000E-002    -1.3082397690431851     
   8.4599999999999995E-002   -0.90308811828442659     
   8.4900000000000003E-002   -0.45597987741090562     
   8.5199999999999998E-002     1.0060409050085151E-002
   8.5500000000000007E-002    0.46960398170919637     
   8.5800000000000001E-002    0.89643294727218670     
   8.6100000000000010E-002     1.2652458728795244     
   8.6399999999999991E-002     1.5533240034452167     
   8.6699999999999999E-002     1.7425356426693048     
   8.7000000000000008E-002     1.8204583751937311     
   8.7300000000000003E-002     1.7816842242841213     
   8.7599999999999997E-002     1.6287597767532547     
   8.7900000000000006E-002     1.3718339782289464     
   8.8200000000000014E-002     1.0284065610895246     
   8.8499999999999995E-002    0.62218462439483391     
   8.8800000000000004E-002    0.18143657989953443     
   8.9100000000000013E-002   -0.26305716888999831     
   8.9399999999999993E-002   -0.68020934180579373     
   8.9700000000000002E-002    -1.0409054198535370     
   9.0000000000000011E-002    -1.3203412265138090     
   9.0299999999999991E-002    -1.4997683864696238     
   9.0600000000000000E-002    -1.5678179446308966     
   9.0900000000000009E-002    -1.5212362160326929     
   9.1200000000000017E-002    -1.3650552494686823     
   9.1499999999999998E-002    -1.1120415919850166     
   9.1800000000000007E-002   -0.78136716069763290     
   9.2100000000000001E-002   -0.39704854164510839     
   9.2399999999999996E-002     1.4103816778058470E-002
   9.2700000000000005E-002    0.42461662613864731     
   9.3000000000000013E-002    0.80821850864419986     
   9.3300000000000008E-002     1.1419650143915303     
   9.3600000000000003E-002     1.4073720927762015     
   9.3899999999999997E-002     1.5912637659536482     
   9.4200000000000006E-002     1.6863776791957885     
   9.4500000000000001E-002     1.6910487789179578     
   9.4800000000000009E-002     1.6085706922874772     
   9.5100000000000004E-002     1.4461212111637392     
   9.5399999999999999E-002     1.2140630437542099     
   9.5699999999999993E-002    0.92455090422482122     
   9.6000000000000002E-002    0.59042668609739613     
   9.6300000000000011E-002    0.22512205561370108     
   9.6600000000000005E-002   -0.15873834558554806     
   9.6900000000000000E-002   -0.54855146947805256     
   9.7200000000000009E-002   -0.93245473546074520     
   9.7499999999999989E-002    -1.2988964239474776     
   9.7799999999999998E-002    -1.6361200688930988     
   9.8100000000000007E-002    -1.9330119531851968     
   9.8400000000000015E-002    -2.1780670012747758     
   9.8699999999999996E-002    -2.3606031960505569     
   9.9000000000000005E-002    -2.4711698472872081     
   9.9300000000000013E-002    -2.5016479986431999     
   9.9599999999999994E-002    -2.4471947728379226     
   9.9900000000000003E-002    -2.3057322060256542     
  0.10020000000000001         -2.0793681665399668     
  0.10049999999999999         -1.7745594723919436     
  0.10080000000000000         -1.4011560177259645     
  0.10110000000000001        -0.97336890878540849     
  0.10140000000000000        -0.50750901067514831     
  0.10170000000000000         -2.1765743925871550E-002
  0.10200000000000001         0.46501836687683684     
  0.10230000000000002         0.93492732029351400     
  0.10260000000000000          1.3713470217304908     
  0.10290000000000001          1.7600227741630858     
  0.10320000000000000          2.0894650841889799     
  0.10350000000000001          2.3504666052993612     
  0.10380000000000000          2.5364835058125461     
  0.10410000000000001          2.6427534876398666     
  0.10440000000000001          2.6663184708590402     
  0.10470000000000000          2.6054839329777373     
  0.10500000000000000          2.4596944368120282     
  0.10530000000000000          2.2302073191164782     
  0.10560000000000000          1.9199077585202700     
  0.10590000000000001          1.5344943835830016     
  0.10620000000000000          1.0831134936855613     
  0.10650000000000001         0.57851329589137035     
  0.10679999999999999          3.8079009332061348E-002
  0.10710000000000000        -0.51686768036647501     
  0.10740000000000001         -1.0614712991012238     
  0.10770000000000000         -1.5681917791288158     
  0.10800000000000000         -2.0091211623923266     
  0.10830000000000001         -2.3573533302604459     
  0.10859999999999999         -2.5894790305068840     
  0.10890000000000000         -2.6879701337441624     
  0.10920000000000001         -2.6422022306642652     
  0.10950000000000001         -2.4507312976035536     
  0.10979999999999999         -2.1212874090948910     
  0.11009999999999999         -1.6705170770033551     
  0.11040000000000001         -1.1236742541531517     
  0.11070000000000001        -0.51205177848994921     
  0.11100000000000000         0.12865032087631467     
  0.11130000000000000         0.76133731215198797     
  0.11160000000000002          1.3502949906654182     
  0.11190000000000001          1.8638550855648850     
  0.11220000000000001          2.2767664226587385     
  0.11250000000000000          2.5718330205522744     
  0.11280000000000000          2.7413985356970603     
  0.11309999999999999          2.7870325323302243     
  0.11340000000000001          2.7195982704462476     
  0.11369999999999998          2.5575952140399276     
  0.11400000000000000          2.3253120724164673     
  0.11430000000000000          2.0510249934844955     
  0.11460000000000002          1.7635926714350769     
  0.11489999999999999          1.4901293755632723     
  0.11520000000000001          1.2542064118208547     
  0.11550000000000001          1.0723772066806494     
  0.11580000000000000         0.95446922783780952     
  0.11609999999999999         0.90132893749966891     
  0.11640000000000002         0.90534234519842460     
  0.11670000000000001         0.95199455609196315     
  0.11700000000000001          1.0196830486239632     
  0.11730000000000000          1.0837788876114687     
  0.11760000000000000          1.1175161220948704     
  0.11789999999999999          1.0957124737582014     
  0.11820000000000001         0.99774558057850338     
  0.11850000000000001         0.80829807853832525     
  0.11880000000000000         0.52156760326011820     
  0.11910000000000000         0.14030201718780350     
  0.11940000000000002        -0.32349884426918357     
  0.11970000000000001        -0.84824291521504913     
  0.12000000000000001         -1.4065519665482904     
  0.12030000000000000         -1.9655665981105879     
  0.12060000000000000         -2.4910754941169362     
  0.12089999999999999         -2.9508122493839113     
  0.12119999999999999         -3.3161235596267744     
  0.12150000000000001         -3.5669334865293130     
  0.12180000000000001         -3.6911062425906489     
  0.12210000000000000         -3.6874417315944985     
  0.12239999999999999         -3.5650233941802214     
  0.12270000000000002         -3.3415992649979511     
  0.12300000000000001         -3.0434138964413533     
  0.12330000000000001         -2.7002816293844512     
  0.12360000000000000         -2.3447060833386901     
  0.12390000000000000         -2.0073228100754372     
  0.12419999999999999         -1.7142826295348117     
  0.12450000000000001         -1.4854119310158209     
  0.12480000000000001         -1.3314435000561509     
  0.12509999999999999         -1.2543035042616335     
  0.12540000000000001         -1.2466100680920367     
  0.12570000000000003         -1.2928360271113533     
  0.12600000000000000         -1.3715137260712214     
  0.12630000000000002         -1.4570246539015814     
  0.12659999999999999         -1.5226368382756643     
  0.12690000000000001         -1.5431160979637193     
  0.12719999999999998         -1.4972552439938949     
  0.12750000000000000         -1.3693061405594045     
  0.12780000000000002         -1.1513928139030423     
  0.12809999999999999        -0.84287197640693545     
  0.12840000000000001        -0.45140919322579076     
  0.12869999999999998          8.3159777154275666E-003
  0.12900000000000000         0.51590881599349614     
  0.12930000000000003          1.0466410978711853     
  0.12959999999999999          1.5730835644553125     
  0.12990000000000002          2.0681986886322559     
  0.13019999999999998          2.5054474875559070     
  0.13050000000000000          2.8627250054849007     
  0.13080000000000003          3.1218446377715989     
  0.13109999999999999          3.2708929828040318     
  0.13140000000000002          3.3049421707579256     
  0.13169999999999998          3.2257056299025990     
  0.13200000000000001          3.0423045756698910     
  0.13229999999999997          2.7698982568877422     
  0.13260000000000000          2.4295942993033837     
  0.13290000000000002          2.0462725334714236     
  0.13319999999999999          1.6473636567833989     
  0.13350000000000001          1.2610969237847793     
  0.13380000000000003         0.91350009875075777     
  0.13410000000000000         0.62785155974719720     
  0.13440000000000002         0.42116774895586090     
  0.13469999999999999         0.30409222120642898     
  0.13500000000000001         0.27930014835876782     
  0.13529999999999998         0.34112593460364821     
  0.13560000000000000         0.47653741113747117     
  0.13590000000000002         0.66498569344734271     
  0.13619999999999999         0.88183922340585585     
  0.13650000000000001          1.0984048271104470     
  0.13680000000000003          1.2860196888010196     
  0.13710000000000000          1.4180364817960207     
  0.13740000000000002          1.4712112450675972     
  0.13769999999999999          1.4291900690808228     
  0.13800000000000001          1.2825330877886136     
  0.13829999999999998          1.0306447249474577     
  0.13860000000000000         0.68112956740866615     
  0.13890000000000002         0.24913925162766604     
  0.13919999999999999        -0.24226715892788192     
  0.13950000000000001        -0.76546785003009121     
  0.13979999999999998         -1.2884807240892739     
  0.14010000000000000         -1.7777181125083796     
  0.14040000000000002         -2.2001200393249980     
  0.14069999999999999         -2.5238706951172403     
  0.14100000000000001         -2.7225640600348169     
  0.14130000000000004         -2.7750109480975422     
  0.14160000000000000         -2.6675663750240872     
  0.14189999999999997         -2.3972298170545723     
  0.14219999999999999         -1.9711914144604892     
  0.14250000000000002         -1.4099784941858602     
  0.14279999999999998        -0.74711638497452570     
  0.14310000000000000         -2.8979805324709118E-002
  0.14339999999999997         0.68516968149131219     
  0.14369999999999999          1.3274841126648453     
  0.14400000000000002          1.8238563231987650     
  0.14429999999999998          2.1016531376160814     
  0.14460000000000001          2.0960528651786894     
  0.14490000000000003          1.7576655312998339     
  0.14520000000000000          1.0628212030673814     
  0.14550000000000002          1.8939281871718450E-002
  0.14579999999999999         -1.3281678203182186     
  0.14610000000000001         -2.8927708768443408     
  0.14640000000000003         -4.5509054300059253     
  0.14670000000000000         -6.1452042020177515     
  0.14699999999999996         -7.4980626980814886     
  0.14729999999999999         -8.4249716601933535     
  0.14760000000000001         -8.7534184945213518     
  0.14789999999999998         -8.3438428027598786     
  0.14820000000000000         -7.1063488621411945     