  -1.4999999999999999E-002     0.0000000000000000     
  -1.4700000000000000E-002     2.7177069263554748E-033
  -1.4400000000000000E-002     7.4376361379305665E-026
  -1.4100000000000000E-002     1.0105454372117701E-022
  -1.3800000000000000E-002    -6.6137467916693601E-021
  -1.3500000000000000E-002    -3.7661158180828313E-019
  -1.3200000000000000E-002     2.9070170937972867E-018
  -1.2899999999999998E-002     2.7074657557653632E-017
  -1.2600000000000000E-002    -1.7383779009571790E-016
  -1.2299999999999998E-002    -2.7522009439912307E-016
  -1.2000000000000000E-002     2.1425093918280241E-015
  -1.1699999999999999E-002     1.8746951601486722E-015
  -1.1399999999999999E-002    -1.0914584865731869E-014
  -1.1099999999999999E-002    -2.1801583631712169E-014
  -1.0799999999999999E-002     4.5128178055031491E-014
  -1.0499999999999999E-002     9.4267943451995864E-014
  -1.0199999999999999E-002    -2.5334459189633529E-015
  -9.8999999999999991E-003    -3.0877504496724554E-013
  -9.5999999999999992E-003    -7.1593672397853383E-013
  -9.2999999999999992E-003     5.3698677509058110E-013
  -8.9999999999999993E-003     3.5685792779257198E-012
  -8.6999999999999994E-003     4.8095779526446323E-013
  -8.3999999999999995E-003    -8.8005576397539400E-012
  -8.0999999999999996E-003    -2.4161909490122492E-012
  -7.7999999999999988E-003    -4.0805283748108003E-012
  -7.4999999999999997E-003     1.2506190619986658E-011
  -7.1999999999999998E-003     7.2498987884037724E-011
  -6.8999999999999981E-003    -2.6193795961449593E-011
  -6.5999999999999982E-003    -2.0737912415133497E-010
  -6.3000000000000000E-003     5.5507405592180351E-011
  -6.0000000000000001E-003     1.5578913825014044E-010
  -5.6999999999999985E-003    -1.2697514205485041E-010
  -5.3999999999999986E-003     7.7396976692538473E-010
  -5.1000000000000004E-003     3.2946250240912121E-011
  -4.7999999999999987E-003    -2.5841388690276652E-009
  -4.5000000000000005E-003     4.0011830637660303E-010
  -4.1999999999999989E-003     3.2892311971438175E-009
  -3.8999999999999990E-003    -2.3020789474597147E-009
  -3.5999999999999990E-003     2.2927688026168216E-009
  -3.2999999999999991E-003     6.6258936073995815E-009
  -2.9999999999999992E-003    -1.8444454014591736E-008
  -2.6999999999999993E-003    -5.3730722789157943E-009
  -2.3999999999999994E-003     3.0018681616039049E-008
  -2.0999999999999977E-003    -1.4264525782040647E-008
  -1.7999999999999995E-003    -2.5592174514037848E-009
  -1.4999999999999979E-003     4.4994150475001499E-008
  -1.1999999999999997E-003    -6.6408150887676549E-008
  -8.9999999999999976E-004    -4.6743673946811757E-008
  -5.9999999999999810E-004     1.0545870184795564E-007
  -2.9999999999999992E-004    -2.6868150572134728E-008
   0.0000000000000000         -1.4817063833579147E-008
   3.0000000000000165E-004     1.3390098593071006E-007
   5.9999999999999984E-004    -1.8246072552807379E-007
   9.0000000000000149E-004    -1.1151588930850970E-007
   1.2000000000000031E-003     2.8297023302682161E-007
   1.5000000000000013E-003    -1.3169518956871239E-007
   1.8000000000000030E-003    -1.5093188267876661E-007
   2.1000000000000012E-003     4.4301711332413125E-007
   2.3999999999999994E-003    -1.0004132347648398E-007
   2.7000000000000010E-003    -5.1638577615427457E-007
   2.9999999999999992E-003     2.1237154836852558E-007
   3.3000000000000008E-003     2.6676563863463240E-007
   3.6000000000000025E-003     9.0100799274201088E-008
   3.9000000000000007E-003    -6.7260175263919420E-008
   4.2000000000000023E-003    -6.5843799167573862E-007
   4.5000000000000005E-003     1.9658153018620071E-007
   4.7999999999999987E-003     8.9069832626785359E-007
   5.1000000000000004E-003    -4.0738384930315730E-007
   5.4000000000000020E-003    -7.9390042938252199E-007
   5.7000000000000037E-003    -1.1490078365485339E-007
   5.9999999999999984E-003     7.4703679133973978E-007
   6.3000000000000000E-003     4.8302699811477179E-006
   6.6000000000000017E-003     1.1655270624704367E-005
   6.9000000000000034E-003     2.0763421950209782E-005
   7.2000000000000015E-003     3.9087789678478837E-005
   7.5000000000000032E-003     6.6298081224496822E-005
   7.8000000000000014E-003     9.1666303180357541E-005
   8.0999999999999996E-003     1.0729893708207828E-004
   8.4000000000000012E-003     1.0986353648508066E-004
   8.7000000000000029E-003     1.0158674724185545E-004
   9.0000000000000011E-003     9.0091845531807373E-005
   9.2999999999999992E-003     7.4988550343157461E-005
   9.6000000000000009E-003     3.4026163132854036E-005
   9.8999999999999991E-003    -7.3468208805224788E-005
   1.0200000000000001E-002    -3.1333724207895157E-004
   1.0500000000000002E-002    -7.9799521930683432E-004
   1.0800000000000004E-002    -1.6874225438367229E-003
   1.1099999999999999E-002    -3.2046209404053951E-003
   1.1400000000000000E-002    -5.6758951687777698E-003
   1.1700000000000002E-002    -9.5701450702060063E-003
   1.2000000000000004E-002    -1.5547174955781741E-002
   1.2300000000000002E-002    -2.4496519874819801E-002
   1.2600000000000000E-002    -3.7571396511936847E-002
   1.2900000000000002E-002    -5.6231155651816064E-002
   1.3200000000000000E-002    -8.2290723306847793E-002
   1.3500000000000002E-002   -0.11792411553260423     
   1.3800000000000003E-002   -0.16560895579351165     
   1.4100000000000001E-002   -0.22809953739924010     
   1.4400000000000000E-002   -0.30833726754260771     
   1.4700000000000001E-002   -0.40923550197176367     
   1.4999999999999999E-002   -0.53338973974497017     
   1.5300000000000001E-002   -0.68276255309402867     
   1.5600000000000003E-002   -0.85828505589081794     
   1.5899999999999997E-002    -1.0593560756201996     
   1.6199999999999999E-002    -1.2834273348592748     
   1.6500000000000001E-002    -1.5256428431871691     
   1.6800000000000002E-002    -1.7784553413240038     
   1.7100000000000004E-002    -2.0313481858723828     
   1.7400000000000006E-002    -2.2709447834903895     
   1.7700000000000000E-002    -2.4813286677369946     
   1.8000000000000002E-002    -2.6449496089944162     
   1.8300000000000004E-002    -2.7434033623735261     
   1.8600000000000005E-002    -2.7586018261030065     
   1.8900000000000000E-002    -2.6744007251431894     
   1.9200000000000002E-002    -2.4782485139672508     
   1.9500000000000003E-002    -2.1629113351238232     
   1.9799999999999998E-002    -1.7273731682180564     
   2.0100000000000000E-002    -1.1784442019861228     
   2.0400000000000001E-002   -0.53051675278576427     
   2.0700000000000003E-002    0.19401091616244046     
   2.0999999999999998E-002    0.96656967318955966     
   2.1299999999999999E-002     1.7536187038150031     
   2.1600000000000001E-002     2.5189344482076272     
   2.1900000000000003E-002     3.2271785058453331     
   2.2200000000000004E-002     3.8457800387381469     
   2.2500000000000006E-002     4.3490065310740587     
   2.2800000000000001E-002     4.7191532586544236     
   2.3100000000000002E-002     4.9489477406230193     
   2.3400000000000004E-002     5.0422599883786736     
   2.3699999999999999E-002     5.0127995473327438     
   2.4000000000000000E-002     4.8844921994641819     
   2.4300000000000002E-002     4.6864955828633343     
   2.4599999999999997E-002     4.4526331877162972     
   2.4900000000000005E-002     4.2159526894163823     
   2.5200000000000000E-002     4.0058325013332086     
   2.5499999999999995E-002     3.8446670414705135     
   2.5800000000000003E-002     3.7443727078152125     
   2.6099999999999998E-002     3.7054117932252826     
   2.6400000000000007E-002     3.7153252569437996     
   2.6700000000000002E-002     3.7499686872808811     
   2.6999999999999996E-002     3.7739302483407293     
   2.7300000000000005E-002     3.7455648896182772     
   2.7600000000000000E-002     3.6185626618871480     
   2.7900000000000008E-002     3.3491334624724702     
   2.8200000000000003E-002     2.8995911807580543     
   2.8499999999999998E-002     2.2451672252183981     
   2.8800000000000006E-002     1.3778768376425916     
   2.9100000000000001E-002    0.31273258069335175     
   2.9400000000000003E-002   -0.91210957241898472     
   2.9700000000000004E-002    -2.2319518174857431     
   3.0000000000000006E-002    -3.5596758241737319     
   3.0300000000000001E-002    -4.7894436475098958     
   3.0600000000000002E-002    -5.8030678543259473     
   3.0900000000000004E-002    -6.4828368952399709     
   3.1199999999999999E-002    -6.7200295070378209     
   3.1500000000000007E-002    -6.4319006093497739     
   3.1800000000000002E-002    -5.5702677094511994     
   3.2099999999999997E-002    -4.1358622734266204     
   3.2400000000000005E-002    -2.1831600857713092     
   3.2700000000000000E-002    0.17516310815927386     
   3.3000000000000002E-002     2.7723990546039121     
   3.3300000000000003E-002     5.3965147237492035     
   3.3599999999999998E-002     7.8040123264222458     
   3.3900000000000000E-002     9.7415792582690273     
   3.4200000000000001E-002     10.967083314492891     
   3.4500000000000003E-002     11.275006709472210     
   3.4799999999999998E-002     10.517626231193899     
   3.5099999999999999E-002     8.6237491285917116     
   3.5400000000000001E-002     5.6106283197280815     
   3.5699999999999996E-002     1.5891448976586562     
   3.6000000000000004E-002    -3.2421168102836644     
   3.6299999999999999E-002    -8.6067483535767195     
   3.6600000000000008E-002    -14.174441512756196     
   3.6900000000000002E-002    -19.581585517508994     
   3.7199999999999997E-002    -24.465100317206375     
   3.7500000000000006E-002    -28.487101936272964     
   3.7800000000000000E-002    -31.362827015251245     
   3.8100000000000009E-002    -32.883348381733271     
   3.8400000000000004E-002    -32.927312873594794     
   3.8699999999999998E-002    -31.471315411171432     
   3.9000000000000007E-002    -28.585388116018695     
   3.9300000000000002E-002    -24.426965461069880     
   3.9600000000000003E-002    -19.223872625388946     
   3.9900000000000005E-002    -13.257108812096005     
   4.0200000000000000E-002    -6.8371541604770849     
   4.0500000000000001E-002   -0.28218239934547790     
   4.0800000000000003E-002     6.1013507778626241     
   4.1100000000000005E-002     12.038647019014775     
   4.1399999999999999E-002     17.298254618396324     
   4.1700000000000008E-002     21.700337291243194     
   4.2000000000000003E-002     25.126521161503934     
   4.2299999999999997E-002     27.511445202471300     
   4.2600000000000006E-002     28.849084102948250     
   4.2900000000000001E-002     29.179335786085300     
   4.3200000000000002E-002     28.583892001302726     
   4.3500000000000004E-002     27.178084408213355     
   4.3799999999999999E-002     25.097800161692344     
   4.4100000000000000E-002     22.495974300882882     
   4.4400000000000002E-002     19.528528770820657     
   4.4700000000000004E-002     16.350258273182938     
   4.4999999999999998E-002     13.107617627292669     
   4.5300000000000000E-002     9.9288245351066209     
   4.5600000000000002E-002     6.9265184300479614     
   4.5899999999999996E-002     4.1854199256107760     
   4.6200000000000005E-002     1.7679327030678718     
   4.6500000000000000E-002   -0.29126471875146320     
   4.6799999999999994E-002    -1.9829264087271783     
   4.7100000000000003E-002    -3.3195858544352403     
   4.7399999999999998E-002    -4.3347204254344396     
   4.7700000000000006E-002    -5.0733750232007813     
   4.8000000000000001E-002    -5.5925371767162080     
   4.8300000000000010E-002    -5.9489018730722529     
   4.8600000000000004E-002    -6.1999990429407053     
   4.8899999999999999E-002    -6.3946525224357638     
   4.9200000000000008E-002    -6.5714103065452116     
   4.9500000000000002E-002    -6.7572880833149620     
   4.9800000000000011E-002    -6.9645505816869990     
   5.0100000000000006E-002    -7.1941114223661105     
   5.0400000000000000E-002    -7.4342089390856865     
   5.0700000000000009E-002    -7.6654697146173190     
   5.1000000000000004E-002    -7.8614521733841425     
   5.1299999999999998E-002    -7.9939266009852847     
   5.1600000000000007E-002    -8.0333052500303381     
   5.1900000000000002E-002    -7.9548312114815332     
   5.2200000000000010E-002    -7.7363005611583660     
   5.2500000000000005E-002    -7.3646980285239128     
   5.2800000000000000E-002    -6.8337198250796796     
   5.3099999999999994E-002    -6.1468201588644895     
   5.3400000000000003E-002    -5.3165403234572732     
   5.3699999999999998E-002    -4.3651142822188396     
   5.4000000000000006E-002    -3.3214974943866484     
   5.4300000000000001E-002    -2.2236600272635290     
   5.4599999999999996E-002    -1.1124125855578106     
   5.4900000000000004E-002    -3.1375302046630554E-002
   5.5199999999999999E-002    0.97467288552191356     
   5.5499999999999994E-002     1.8681005774311490     
   5.5800000000000002E-002     2.6124535327490670     
   5.6099999999999997E-002     3.1856187269527951     
   5.6400000000000006E-002     3.5717524088197949     
   5.6700000000000000E-002     3.7693084342371690     
   5.6999999999999995E-002     3.7874008300894797     
   5.7300000000000004E-002     3.6455632300768173     
   5.7599999999999998E-002     3.3744681858333432     
   5.7900000000000007E-002     3.0085595522255306     
   5.8200000000000002E-002     2.5890296243071318     
   5.8499999999999996E-002     2.1549046624904955     
   5.8800000000000005E-002     1.7450344988758251     
   5.9100000000000000E-002     1.3912061718254913     
   5.9400000000000008E-002     1.1190492030052355     
   5.9700000000000003E-002    0.94448447035163630     
   6.0000000000000012E-002    0.87389634736183941     
   6.0300000000000006E-002    0.90394864349802406     
   6.0600000000000001E-002     1.0216781831501969     
   6.0900000000000010E-002     1.2069092712160108     
   6.1200000000000004E-002     1.4337870816883054     
   6.1500000000000013E-002     1.6721632270876019     
   6.1800000000000008E-002     1.8918008666766857     
   6.2100000000000002E-002     2.0638310863232987     
   6.2399999999999997E-002     2.1625492622568916     
   6.2700000000000006E-002     2.1698811200502628     
   6.3000000000000000E-002     2.0737369290344358     
   6.3300000000000009E-002     1.8716490563563062     
   6.3600000000000004E-002     1.5691711044830119     
   6.3899999999999998E-002     1.1801625833953671     
   6.4199999999999993E-002    0.72576371105926474     
   6.4500000000000002E-002    0.23144438632017225     
   6.4800000000000010E-002   -0.27293537019117126     
   6.5100000000000005E-002   -0.75824110604658634     
   6.5400000000000000E-002    -1.1959695813295446     
   6.5700000000000008E-002    -1.5607709993007985     
   6.5999999999999989E-002    -1.8338983281350967     
   6.6299999999999998E-002    -2.0009868470850023     
   6.6600000000000006E-002    -2.0570373953831100     
   6.6900000000000001E-002    -2.0028110042514724     
   6.7199999999999996E-002    -1.8460599722964859     
   6.7500000000000004E-002    -1.6025797690435644     
   6.7800000000000013E-002    -1.2904551576557521     
   6.8099999999999994E-002   -0.93535934969851686     
   6.8400000000000002E-002   -0.56198458157413322     
   6.8700000000000011E-002   -0.19846701809091649     
   6.8999999999999992E-002    0.12898814323513857     
   6.9300000000000000E-002    0.39764904664438783     
   6.9600000000000009E-002    0.58634681737573202     
   6.9900000000000004E-002    0.68265351424681553     
   7.0199999999999999E-002    0.67813102475335985     
   7.0500000000000007E-002    0.57375608928861999     
   7.0800000000000016E-002    0.37730001968246429     
   7.1099999999999997E-002    0.10460959675023107     
   7.1400000000000005E-002   -0.22246670272527688     
   7.1700000000000000E-002   -0.57580920258490176     
   7.1999999999999995E-002   -0.92439369190590237     
   7.2300000000000003E-002    -1.2367992384996329     
   7.2600000000000012E-002    -1.4817998607778311     
   7.2900000000000006E-002    -1.6340187008407732     
   7.3200000000000001E-002    -1.6732274892862273     
   7.3499999999999996E-002    -1.5889914777534278     
   7.3800000000000004E-002    -1.3798316343764672     
   7.4099999999999999E-002    -1.0561287034588980     
   7.4400000000000008E-002   -0.63639487318425847     
   7.4700000000000003E-002   -0.15051047455080963     
   7.5000000000000011E-002    0.36725237235675073     
   7.5299999999999992E-002    0.87747793364871662     
   7.5600000000000001E-002     1.3396492189581886     
   7.5900000000000009E-002     1.7185429811161159     
   7.6200000000000004E-002     1.9810589089150257     
   7.6499999999999999E-002     2.1074837187583806     
   7.6800000000000007E-002     2.0854188072511457     
   7.7099999999999988E-002     1.9163187652603333     
   7.7399999999999997E-002     1.6134486063751772     
   7.7700000000000005E-002     1.1998066635938198     
   7.8000000000000014E-002    0.70863540303222883     
   7.8299999999999995E-002    0.17704160808631125     
   7.8600000000000003E-002   -0.35329909099038548     
   7.8900000000000012E-002   -0.84437341302196722     
   7.9199999999999993E-002    -1.2601706128647887     
   7.9500000000000001E-002    -1.5733450018273532     
   7.9800000000000010E-002    -1.7651888859143621     
   8.0100000000000018E-002    -1.8261705275465512     
   8.0399999999999999E-002    -1.7590686956948369     
   8.0700000000000008E-002    -1.5735656877914745     
   8.1000000000000003E-002    -1.2888152192232742     
   8.1299999999999997E-002   -0.92934490020683902     
   8.1600000000000006E-002   -0.52312796659628424     
   8.1900000000000014E-002    -9.9883109321153463E-002
   8.2199999999999995E-002    0.31204412297962331     
   8.2500000000000004E-002    0.68735575249477965     
   8.2799999999999999E-002     1.0037918198388323     
   8.3100000000000007E-002     1.2463345771977170     
   8.3400000000000002E-002     1.4039664626520956     
   8.3700000000000011E-002     1.4728949517849999     
   8.4000000000000005E-002     1.4555371320179196     
   8.4300000000000000E-002     1.3582954953677593     
   8.4599999999999995E-002     1.1939135155133114     
   8.4900000000000003E-002    0.97688304800609327     
   8.5199999999999998E-002    0.72542302804348580     
   8.5500000000000007E-002    0.45757661607624606     
   8.5800000000000001E-002    0.19175501695030209     
   8.6100000000000010E-002    -5.5756513483655214E-002
   8.6399999999999991E-002   -0.27073593363409193     
   8.6699999999999999E-002   -0.44322761352306667     
   8.7000000000000008E-002   -0.56679487662217054     
   8.7300000000000003E-002   -0.63890810125007869     
   8.7599999999999997E-002   -0.66159625925784449     
   8.7900000000000006E-002   -0.63915958657029803     
   8.8200000000000014E-002   -0.58028921565746339     
   8.8499999999999995E-002   -0.49330088774571496     
   8.8800000000000004E-002   -0.38980445606017700     
   8.9100000000000013E-002   -0.27939045629342091     
   8.9399999999999993E-002   -0.17240017578039041     
   8.9700000000000002E-002    -7.7500532444158429E-002
   9.0000000000000011E-002    -1.0518412978128035E-003
   9.0299999999999991E-002     5.1262628249531719E-002
   9.0600000000000000E-002     7.7076433178815407E-002
   9.0900000000000009E-002     7.5868997534183927E-002
   9.1200000000000017E-002     4.8757691910584391E-002
   9.1499999999999998E-002    -1.4794405774455765E-004
   9.1800000000000007E-002    -6.5722211287781634E-002
   9.2100000000000001E-002   -0.14131957747764942     
   9.2399999999999996E-002   -0.21925814811408156     
   9.2700000000000005E-002   -0.29200362058873242     
   9.3000000000000013E-002   -0.35139342164351989     
   9.3300000000000008E-002   -0.39123093316622276     
   9.3600000000000003E-002   -0.40602725236483905     
   9.3899999999999997E-002   -0.39336660306007232     
   9.4200000000000006E-002   -0.35186240174237249     
   9.4500000000000001E-002   -0.28362673901371926     
   9.4800000000000009E-002   -0.19262479872792274     
   9.5100000000000004E-002    -8.4511138946687131E-002
   9.5399999999999999E-002     3.2531006567989150E-002
   9.5699999999999993E-002    0.15122147498569893     
   9.6000000000000002E-002    0.26238023410979494     
   9.6300000000000011E-002    0.35905265160439187     
   9.6600000000000005E-002    0.43420165380993786     
   9.6900000000000000E-002    0.48315748490608934     
   9.7200000000000009E-002    0.50323242230566412     
   9.7499999999999989E-002    0.49367231790346194     
   9.7799999999999998E-002    0.45606128407527674     
   9.8100000000000007E-002    0.39382238556577021     
   9.8400000000000015E-002    0.31209416822368030     
   9.8699999999999996E-002    0.21766725504139792     
   9.9000000000000005E-002    0.11726100396217386     
   9.9300000000000013E-002     1.8665149791760770E-002
   9.9599999999999994E-002    -7.0702326801944576E-002
   9.9900000000000003E-002   -0.14498890933993028     
  0.10020000000000001        -0.19792978758322183     
  0.10049999999999999        -0.22681561796911151     
  0.10080000000000000        -0.22863061326041170     
  0.10110000000000001        -0.20364348631760779     
  0.10140000000000000        -0.15347317342071207     
  0.10170000000000000         -8.0741339801547629E-002
  0.10200000000000001          9.3441534528168960E-003
  0.10230000000000002         0.11208151936281664     
  0.10260000000000000         0.22070049888623830     
  0.10290000000000001         0.32881612550635131     
  0.10320000000000000         0.42976854116352214     
  0.10350000000000001         0.51734278464621009     
  0.10380000000000000         0.58553282356603631     
  0.10410000000000001         0.62947593227011289     
  0.10440000000000001         0.64489589451961249     
  0.10470000000000000         0.62933580674504430     
  0.10500000000000000         0.58129756568815172     
  0.10530000000000000         0.50080334389219483     
  0.10560000000000000         0.39036497073157939     
  0.10590000000000001         0.25292962688964538     
  0.10620000000000000          9.4612615221747062E-002
  0.10650000000000001         -7.8202243179241487E-002
  0.10679999999999999        -0.25775735925293164     
  0.10710000000000000        -0.43494840626985637     
  0.10740000000000001        -0.60207199105511777     
  0.10770000000000000        -0.75014989510395214     
  0.10800000000000000        -0.87254296604730530     
  0.10830000000000001        -0.96325783749247063     
  0.10859999999999999         -1.0180610298164583     
  0.10890000000000000         -1.0351965309012205     
  0.10920000000000001         -1.0138401868213669     
  0.10950000000000001        -0.95642589431972869     
  0.10979999999999999        -0.86539750265624160     
  0.11009999999999999        -0.74646078623984791     
  0.11040000000000001        -0.60511224667918906     
  0.11070000000000001        -0.44813533930149602     
  0.11100000000000000        -0.28362810057288135     
  0.11130000000000000        -0.11830789869110868     
  0.11160000000000002          3.8993451636920348E-002
  0.11190000000000001         0.18253375903585412     
  0.11220000000000001         0.30451822530312844     
  0.11250000000000000         0.40035495370135399     
  0.11280000000000000         0.46631783436060870     
  0.11309999999999999         0.49923771749388840     
  0.11340000000000001         0.49960300434150201     
  0.11369999999999998         0.46772041968791395     
  0.11400000000000000         0.40716904402054055     
  0.11430000000000000         0.32248181064456349     
  0.11460000000000002         0.21881396977971618     
  0.11489999999999999         0.10344073078956162     
  0.11520000000000001         -1.7540493195480272E-002
  0.11550000000000001        -0.13657836685614563     
  0.11580000000000000        -0.24762803321787116     
  0.11609999999999999        -0.34491088917765811     
  0.11640000000000002        -0.42325919686484981     
  0.11670000000000001        -0.47979876116580483     
  0.11700000000000001        -0.51122837851515490     
  0.11730000000000000        -0.51701861119493342     
  0.11760000000000000        -0.49691375501371399     
  0.11789999999999999        -0.45198222323849857     
  0.11820000000000001        -0.38532655736203369     
  0.11850000000000001        -0.29912354802442348     
  0.11880000000000000        -0.19910772929455681     
  0.11910000000000000         -8.8696107779406078E-002
  0.11940000000000002          2.5625648527853418E-002
  0.11970000000000001         0.13936824120851571     
  0.12000000000000001         0.24708183499619432     
  0.12030000000000000         0.34387967200715835     
  0.12060000000000000         0.42694798134564832     
  0.12089999999999999         0.49312016163650657     
  0.12119999999999999         0.54123687306727342     
  0.12150000000000001         0.57123773612293849     
  0.12180000000000001         0.58465128253974441     
  0.12210000000000000         0.58252589790790499     
  0.12239999999999999         0.56872610993576433     
  0.12270000000000002         0.54540930815285626     
  0.12300000000000001         0.51658491847727162     
  0.12330000000000001         0.48510877828130600     
  0.12360000000000000         0.45324631083333017     
  0.12390000000000000         0.42351834577313358     
  0.12419999999999999         0.39690278619677122     
  0.12450000000000001         0.37515689684348574     
  0.12480000000000001         0.35646866562791091     
  0.12509999999999999         0.34252994191193908     
  0.12540000000000001         0.32972084469554674     
  0.12570000000000003         0.31871452043900789     
  0.12600000000000000         0.30613895471460800     
  0.12630000000000002         0.29052379058970801     
  0.12659999999999999         0.27057665066003228     
  0.12690000000000001         0.24385721574413427     
  0.12719999999999998         0.21080614389104407     
  0.12750000000000000         0.16946554053529828     
  0.12780000000000002         0.12224408257532510     
  0.12809999999999999          6.8895408066318817E-002
  0.12840000000000001          1.2421842737047715E-002
  0.12869999999999998         -4.5030323074936457E-002
  0.12900000000000000        -0.10089433665079822     
  0.12930000000000003        -0.15164774357631666     
  0.12959999999999999        -0.19562913203967833     
  0.12990000000000002        -0.22994567188784990     
  0.13019999999999998        -0.25414559016850907     
  0.13050000000000000        -0.26740890553400154     
  0.13080000000000003        -0.26985874615801747     
  0.13109999999999999        -0.26298570527577431     
  0.13140000000000002        -0.24787965348366151     
  0.13169999999999998        -0.22658677365991334     
  0.13200000000000001        -0.20141513660220567     
  0.13229999999999997        -0.17321015914212445     
  0.13260000000000000        -0.14487096719722950     
  0.13290000000000002        -0.11622116747734240     
  0.13319999999999999         -8.9065224102309798E-002
  0.13350000000000001         -6.3219621504214008E-002
  0.13380000000000003         -3.9220071458992513E-002
  0.13410000000000000         -1.7327232701702947E-002
  0.13440000000000002          3.4546125763223021E-003
  0.13469999999999999          2.1942042567838275E-002
  0.13500000000000001          3.9969428957109150E-002
  0.13529999999999998          5.5698766809910885E-002
  0.13560000000000000          7.0109340640504322E-002
  0.13590000000000002          8.3130273071326644E-002
  0.13619999999999999          9.3208948022783428E-002
  0.13650000000000001         0.10172236822722640     
  0.13680000000000003         0.10626688588383783     
  0.13710000000000000         0.10757487168357914     
  0.13740000000000002         0.10450149886439877     
  0.13769999999999999          9.6712333303754172E-002
  0.13800000000000001          8.4343087678387135E-002
  0.13829999999999998          6.6928137539158175E-002
  0.13860000000000000          4.5822341654639692E-002
  0.13890000000000002          2.1158243453033951E-002
  0.13919999999999999         -5.3672138572651773E-003
  0.13950000000000001         -3.2394101671001527E-002
  0.13979999999999998         -5.8340975202502990E-002
  0.14010000000000000         -8.0880105614360015E-002
  0.14040000000000002         -9.9569729929033277E-002
  0.14069999999999999        -0.11269789051289311     
  0.14100000000000001        -0.11988451117819202     
  0.14130000000000004        -0.12151421336370044     
  0.14160000000000000        -0.11779091169715063     
  0.14189999999999997        -0.11066293349014610     
  0.14219999999999999        -0.10103932365380891     
  0.14250000000000002         -9.1373826851644788E-002
  0.14279999999999998         -8.3763878481918130E-002
  0.14310000000000000         -7.9152550130453248E-002
  0.14339999999999997         -8.0282989858689591E-002
  0.14369999999999999         -8.6746107714379489E-002
  0.14400000000000002        -0.10037819690349820     
  0.14429999999999998        -0.12009972720807657     
  0.14460000000000001        -0.14605433875316479     
  0.14490000000000003        -0.17700579382301543     
  0.14520000000000000        -0.21130278276752201     
  0.14550000000000002        -0.24803082192499182     
  0.14579999999999999        -0.28433328352994025     
  0.14610000000000001        -0.31934633296949089     
  0.14640000000000003        -0.35106589804290111     
  0.14670000000000000        -0.37728761988209614     
  0.14699999999999996        -0.39751147581997376     
  0.14729999999999999        -0.40970619842765127     
  0.14760000000000001        -0.41400765706365500     
  0.14789999999999998        -0.40962313937833833     
  0.14820000000000000        -0.39685281447575332     