  -1.4999999999999999E-002     0.0000000000000000     
  -1.4700000000000000E-002     0.0000000000000000     
  -1.4400000000000000E-002     0.0000000000000000     
  -1.4100000000000000E-002     0.0000000000000000     
  -1.3800000000000000E-002     0.0000000000000000     
  -1.3500000000000000E-002     0.0000000000000000     
  -1.3200000000000000E-002     0.0000000000000000     
  -1.2899999999999998E-002     0.0000000000000000     
  -1.2600000000000000E-002     0.0000000000000000     
  -1.2299999999999998E-002     0.0000000000000000     
  -1.2000000000000000E-002     0.0000000000000000     
  -1.1699999999999999E-002     0.0000000000000000     
  -1.1399999999999999E-002     0.0000000000000000     
  -1.1099999999999999E-002     0.0000000000000000     
  -1.0799999999999999E-002     0.0000000000000000     
  -1.0499999999999999E-002     0.0000000000000000     
  -1.0199999999999999E-002     0.0000000000000000     
  -9.8999999999999991E-003     0.0000000000000000     
  -9.5999999999999992E-003     0.0000000000000000     
  -9.2999999999999992E-003     0.0000000000000000     
  -8.9999999999999993E-003     0.0000000000000000     
  -8.6999999999999994E-003     0.0000000000000000     
  -8.3999999999999995E-003     0.0000000000000000     
  -8.0999999999999996E-003     0.0000000000000000     
  -7.7999999999999988E-003     0.0000000000000000     
  -7.4999999999999997E-003     0.0000000000000000     
  -7.1999999999999998E-003     0.0000000000000000     
  -6.8999999999999981E-003     0.0000000000000000     
  -6.5999999999999982E-003     0.0000000000000000     
  -6.3000000000000000E-003     0.0000000000000000     
  -6.0000000000000001E-003     0.0000000000000000     
  -5.6999999999999985E-003     0.0000000000000000     
  -5.3999999999999986E-003     0.0000000000000000     
  -5.1000000000000004E-003     0.0000000000000000     
  -4.7999999999999987E-003     0.0000000000000000     
  -4.5000000000000005E-003     0.0000000000000000     
  -4.1999999999999989E-003     0.0000000000000000     
  -3.8999999999999990E-003     0.0000000000000000     
  -3.5999999999999990E-003     0.0000000000000000     
  -3.2999999999999991E-003     0.0000000000000000     
  -2.9999999999999992E-003     0.0000000000000000     
  -2.6999999999999993E-003     0.0000000000000000     
  -2.3999999999999994E-003     0.0000000000000000     
  -2.0999999999999977E-003     0.0000000000000000     
  -1.7999999999999995E-003     0.0000000000000000     
  -1.4999999999999979E-003     0.0000000000000000     
  -1.1999999999999997E-003     0.0000000000000000     
  -8.9999999999999976E-004     0.0000000000000000     
  -5.9999999999999810E-004     0.0000000000000000     
  -2.9999999999999992E-004     0.0000000000000000     
   0.0000000000000000          0.0000000000000000     
   3.0000000000000165E-004     0.0000000000000000     
   5.9999999999999984E-004     0.0000000000000000     
   9.0000000000000149E-004     0.0000000000000000     
   1.2000000000000031E-003     0.0000000000000000     
   1.5000000000000013E-003     0.0000000000000000     
   1.8000000000000030E-003     0.0000000000000000     
   2.1000000000000012E-003     0.0000000000000000     
   2.3999999999999994E-003     0.0000000000000000     
   2.7000000000000010E-003     0.0000000000000000     
   2.9999999999999992E-003     0.0000000000000000     
   3.3000000000000008E-003     0.0000000000000000     
   3.6000000000000025E-003     0.0000000000000000     
   3.9000000000000007E-003     0.0000000000000000     
   4.2000000000000023E-003     0.0000000000000000     
   4.5000000000000005E-003     0.0000000000000000     
   4.7999999999999987E-003     0.0000000000000000     
   5.1000000000000004E-003     0.0000000000000000     
   5.4000000000000020E-003     0.0000000000000000     
   5.7000000000000037E-003     0.0000000000000000     
   5.9999999999999984E-003     0.0000000000000000     
   6.3000000000000000E-003     4.5303236734416717E-051
   6.6000000000000017E-003    -1.3335808267360173E-049
   6.9000000000000034E-003    -3.5022837441601174E-049
   7.2000000000000015E-003    -1.0554653609415910E-036
   7.5000000000000032E-003    -2.3957698832476516E-035
   7.8000000000000014E-003     1.1702921708978911E-034
   8.0999999999999996E-003     1.7052250791456288E-035
   8.4000000000000012E-003    -4.3654713087120846E-034
   8.7000000000000029E-003     3.2774593362311521E-033
   9.0000000000000011E-003    -8.7101842778927771E-033
   9.2999999999999992E-003     9.1975351170183731E-033
   9.6000000000000009E-003     1.6498696126271961E-032
   9.8999999999999991E-003    -6.9217964028510376E-032
   1.0200000000000001E-002     6.5271660547462194E-032
   1.0500000000000002E-002     1.4997172016119532E-031
   1.0800000000000004E-002    -5.1741165775138709E-031
   1.1099999999999999E-002     3.3460954570718297E-031
   1.1400000000000000E-002     1.3725782175665172E-030
   1.1700000000000002E-002    -3.6143214318842339E-030
   1.2000000000000004E-002     1.1163397186134272E-030
   1.2300000000000002E-002     1.1201926155235699E-029
   1.2600000000000000E-002    -2.2540153600569869E-029
   1.2900000000000002E-002    -2.5927280742138026E-030
   1.3200000000000000E-002     8.2499521362094780E-029
   1.3500000000000002E-002    -1.2275183197537301E-028
   1.3800000000000003E-002    -8.4950790048822022E-029
   1.4100000000000001E-002     5.4089151366863882E-028
   1.4400000000000000E-002    -5.5798659268171687E-028
   1.4700000000000001E-002    -8.8589864991381126E-028
   1.4999999999999999E-002     3.1067906605642042E-027
   1.5300000000000001E-002    -1.9217073648570442E-027
   1.5600000000000003E-002    -6.5854824164942482E-027
   1.5899999999999997E-002     1.5433230949622320E-026
   1.6199999999999999E-002    -3.3130286333187693E-027
   1.6500000000000001E-002    -3.9257746187288311E-026
   1.6800000000000002E-002     6.5274366725928472E-026
   1.7100000000000004E-002     1.4996693339901127E-026
   1.7400000000000006E-002    -1.9471500169046788E-025
   1.7700000000000000E-002     2.2848052075150752E-025
   1.8000000000000002E-002     1.8439312262334653E-025
   1.8300000000000004E-002    -8.1069931727241773E-025
   1.8600000000000005E-002     6.1975477813818704E-025
   1.8900000000000000E-002     1.1002784333657381E-024
   1.9200000000000002E-002    -2.8044058012603798E-024
   1.9500000000000003E-002     1.0467409935250346E-024
   1.9799999999999998E-002     4.7399164278168903E-024
   2.0100000000000000E-002    -7.7868337543799325E-024
   2.0400000000000001E-002    -5.0364274607030444E-025
   2.0700000000000003E-002     1.5547591573098031E-023
   2.0999999999999998E-002    -1.5816964623043643E-023
   2.1299999999999999E-002    -1.1023176379167907E-023
   2.1600000000000001E-002     3.6971055687509798E-023
   2.1900000000000003E-002    -1.5947150020784524E-023
   2.2200000000000004E-002    -4.0699178822470233E-023
   2.2500000000000006E-002     4.7472096807511959E-023
   2.2800000000000001E-002     3.0601570110511060E-023
   2.3100000000000002E-002    -6.6179048720653989E-023
   2.3400000000000004E-002    -7.1131249118879245E-023
   2.3699999999999999E-002     2.1146697758577792E-022
   2.4000000000000000E-002     3.0142552002889496E-023
   2.4300000000000002E-002    -7.9312644701915798E-022
   2.4599999999999997E-002     1.8832833577250384E-021
   2.4900000000000005E-002    -1.6979975861113490E-021
   2.5200000000000000E-002    -8.6864508316384646E-021
   2.5499999999999995E-002     4.3650743554574105E-020
   2.5800000000000003E-002    -5.6679157469908038E-020
   2.6099999999999998E-002    -1.9430702002141070E-019
   2.6400000000000007E-002     9.0981448905160616E-019
   2.6700000000000002E-002    -7.2623917537769471E-019
   2.6999999999999996E-002    -4.6525170165530373E-018
   2.7300000000000005E-002     1.4371805961844807E-017
   2.7600000000000000E-002     1.9916904827863806E-018
   2.7900000000000008E-002    -9.3315482923807762E-017
   2.8200000000000003E-002     1.4852063261657868E-016
   2.8499999999999998E-002     3.1276307832783040E-016
   2.8800000000000006E-002    -1.3323053552490039E-015
   2.9100000000000001E-002     1.0858281669256294E-016
   2.9400000000000003E-002     7.2667140673969800E-015
   2.9700000000000004E-002    -9.3955827577124042E-015
   3.0000000000000006E-002    -2.9537082740211741E-014
   3.0300000000000001E-002     8.5354643363985724E-014
   3.0600000000000002E-002     7.1228298931098364E-014
   3.0900000000000004E-002    -5.6364565052408802E-013
   3.1199999999999999E-002     2.8839827643758546E-013
   3.1500000000000007E-002     2.6566740719973414E-012
   3.1800000000000002E-002    -4.8759225600296517E-012
   3.2099999999999997E-002    -6.5923163868739800E-012
   3.2400000000000005E-002     3.0631541353103467E-011
   3.2700000000000000E-002    -1.0172149828560432E-011
   3.3000000000000002E-002    -1.1013307648746337E-010
   3.3300000000000003E-002     1.6816082058271077E-010
   3.3599999999999998E-002     1.9289194549803027E-010
   3.3900000000000000E-002    -7.6061708935222604E-010
   3.4200000000000001E-002     2.1615262576172716E-010
   3.4500000000000003E-002     1.9496980376405860E-009
   3.4799999999999998E-002    -2.4813948335872818E-009
   3.5099999999999999E-002    -2.5736358114683072E-009
   3.5400000000000001E-002     8.1210933435166456E-009
   3.5699999999999996E-002    -9.6952508037501791E-010
   3.6000000000000004E-002    -1.5870039130354114E-008
   3.6299999999999999E-002     1.0969170804361272E-008
   3.6600000000000008E-002     1.8476884097217118E-008
   3.6900000000000002E-002    -1.5567334941402033E-008
   3.7199999999999997E-002    -1.6618058888937698E-008
   3.7500000000000006E-002    -5.3535051368327356E-008
   3.7800000000000000E-002     2.9747232127600058E-007
   3.8100000000000009E-002     2.6279412918533622E-006
   3.8400000000000004E-002     8.4659163421864014E-006
   3.8699999999999998E-002     1.7947286700935808E-005
   3.9000000000000007E-002     2.9833527310036128E-005
   3.9300000000000002E-002     4.2447136134738928E-005
   3.9600000000000003E-002     5.7494438351742663E-005
   3.9900000000000005E-002     8.2801954905498067E-005
   4.0200000000000000E-002     1.2694276061809239E-004
   4.0500000000000001E-002     1.9512964470730864E-004
   4.0800000000000003E-002     2.9518001265260534E-004
   4.1100000000000005E-002     4.4057267922453032E-004
   4.1399999999999999E-002     6.4647424682692301E-004
   4.1700000000000008E-002     9.3102658685338062E-004
   4.2000000000000003E-002     1.3190529962372262E-003
   4.2299999999999997E-002     1.8415069118125178E-003
   4.2600000000000006E-002     2.5332569914643709E-003
   4.2900000000000001E-002     3.4273171059251194E-003
   4.3200000000000002E-002     4.5531754881687377E-003
   4.3500000000000004E-002     5.9459180846422885E-003
   4.3799999999999999E-002     7.6450592787437694E-003
   4.4100000000000000E-002     9.6781485202134705E-003
   4.4400000000000002E-002     1.2048060800716872E-002
   4.4700000000000004E-002     1.4729005002212725E-002
   4.4999999999999998E-002     1.7666272437701150E-002
   4.5300000000000000E-002     2.0774358377512441E-002
   4.5600000000000002E-002     2.3935192540108376E-002
   4.5899999999999996E-002     2.7005844852265978E-002
   4.6200000000000005E-002     2.9822454694932329E-002
   4.6500000000000000E-002     3.2189315805990805E-002
   4.6799999999999994E-002     3.3892034012298275E-002
   4.7100000000000003E-002     3.4761255771815158E-002
   4.7399999999999998E-002     3.4697724463732697E-002
   4.7700000000000006E-002     3.3667349967776476E-002
   4.8000000000000001E-002     3.1721247015176111E-002
   4.8300000000000010E-002     2.9015102967885901E-002
   4.8600000000000004E-002     2.5792838679794053E-002
   4.8899999999999999E-002     2.2353002657998767E-002
   4.9200000000000008E-002     1.8999785367946814E-002
   4.9500000000000002E-002     1.5965251923122245E-002
   4.9800000000000011E-002     1.3323847598229339E-002
   5.0100000000000006E-002     1.0878981373678553E-002
   5.0400000000000000E-002     8.0545901878542516E-003
   5.0700000000000009E-002     3.8281905697672737E-003
   5.1000000000000004E-002    -3.2795212050393029E-003
   5.1299999999999998E-002    -1.5141491432770013E-002
   5.1600000000000007E-002    -3.3947852533053220E-002
   5.1900000000000002E-002    -6.2024112358726999E-002
   5.2200000000000010E-002   -0.10151330938114665     
   5.2500000000000005E-002   -0.15404148813836838     
   5.2800000000000000E-002   -0.22039197663166599     
   5.3099999999999994E-002   -0.30014743063297011     
   5.3400000000000003E-002   -0.39135800343235710     
   5.3699999999999998E-002   -0.49040828593547364     
   5.4000000000000006E-002   -0.59201298533575375     
   5.4300000000000001E-002   -0.68935750265787454     
   5.4599999999999996E-002   -0.77445231216980959     
   5.4900000000000004E-002   -0.83869759619343853     
   5.5199999999999999E-002   -0.87356363211658916     
   5.5499999999999994E-002   -0.87136964627088076     
   5.5800000000000002E-002   -0.82607178733158559     
   5.6099999999999997E-002   -0.73399256795550061     
   5.6400000000000006E-002   -0.59439843377710933     
   5.6700000000000000E-002   -0.40982302918869595     
   5.6999999999999995E-002   -0.18613027395410733     
   5.7300000000000004E-002     6.7663176674493605E-002
   5.7599999999999998E-002    0.33987538619151630     
   5.7900000000000007E-002    0.61693183655838746     
   5.8200000000000002E-002    0.88423839778310942     
   5.8499999999999996E-002     1.1273036908562826     
   5.8800000000000005E-002     1.3326624307110637     
   5.9100000000000000E-002     1.4888844136505077     
   5.9400000000000008E-002     1.5872937069428588     
   5.9700000000000003E-002     1.6227565626674869     
   6.0000000000000012E-002     1.5937274324203794     
   6.0300000000000006E-002     1.5024652130101090     
   6.0600000000000001E-002     1.3548235573207827     
   6.0900000000000010E-002     1.1596407611259192     
   6.1200000000000004E-002    0.92826584663734735     
   6.1500000000000013E-002    0.67350135487087037     
   6.1800000000000008E-002    0.40896390709514907     
   6.2100000000000002E-002    0.14807482993705320     
   6.2399999999999997E-002    -9.6794649703069002E-002
   6.2700000000000006E-002   -0.31491869108486314     
   6.3000000000000000E-002   -0.49791165102801482     
   6.3300000000000009E-002   -0.63989983464358413     
   6.3600000000000004E-002   -0.73779300943454740     
   6.3899999999999998E-002   -0.79113791193468097     
   6.4199999999999993E-002   -0.80192027091825724     
   6.4500000000000002E-002   -0.77415165781070772     
   6.4800000000000010E-002   -0.71334931694111303     
   6.5100000000000005E-002   -0.62610301861441053     
   6.5400000000000000E-002   -0.51944009079025855     
   6.5700000000000008E-002   -0.40058756681708529     
   6.5999999999999989E-002   -0.27646813868787790     
   6.6299999999999998E-002   -0.15339974962875474     
   6.6600000000000006E-002    -3.7130146223661169E-002
   6.6900000000000001E-002     6.7364924338103316E-002
   6.7199999999999996E-002    0.15602958596129260     
   6.7500000000000004E-002    0.22544740115141207     
   6.7800000000000013E-002    0.27309172920656438     
   6.8099999999999994E-002    0.29734312701373999     
   6.8400000000000002E-002    0.29758580427501385     
   6.8700000000000011E-002    0.27424203021778965     
   6.8999999999999992E-002    0.22914202516689419     
   6.9300000000000000E-002    0.16534958710188855     
   6.9600000000000009E-002     8.7323352047512307E-002
   6.9900000000000004E-002     9.1493608658624900E-004
   7.0199999999999999E-002    -8.7056419270596541E-002
   7.0500000000000007E-002   -0.16890117204828808     
   7.0800000000000016E-002   -0.23677759847841062     
   7.1099999999999997E-002   -0.28319001980407210     
   7.1400000000000005E-002   -0.30177930608458903     
   7.1700000000000000E-002   -0.28784719583841184     
   7.1999999999999995E-002   -0.23904239020882906     
   7.2300000000000003E-002   -0.15613296963022569     
   7.2600000000000012E-002    -4.2788568469436503E-002
   7.2900000000000006E-002     9.3762945523368627E-002
   7.3200000000000001E-002    0.24327878252641497     
   7.3499999999999996E-002    0.39302449982605636     
   7.3800000000000004E-002    0.52828383007020618     
   7.4099999999999999E-002    0.63364111994926597     
   7.4400000000000008E-002    0.69400208941773489     
   7.4700000000000003E-002    0.69620740403261094     
   7.5000000000000011E-002    0.62997252086510580     
   7.5299999999999992E-002    0.48942402806495328     
   7.5600000000000001E-002    0.27394948785318313     
   7.5900000000000009E-002    -1.1442116574258244E-002
   7.6200000000000004E-002   -0.35527694440223395     
   7.6499999999999999E-002   -0.74064680398134419     
   7.6800000000000007E-002    -1.1456819348637142     
   7.7099999999999988E-002    -1.5448278891840559     
   7.7399999999999997E-002    -1.9108764584646207     
   7.7700000000000005E-002    -2.2166754625428577     
   7.8000000000000014E-002    -2.4375080478006486     
   7.8299999999999995E-002    -2.5530523685332613     
   7.8600000000000003E-002    -2.5493976544998360     
   7.8900000000000012E-002    -2.4202298664642621     
   7.9199999999999993E-002    -2.1676268221082182     
   7.9500000000000001E-002    -1.8023121118828311     
   7.9800000000000010E-002    -1.3427491083459122     
   8.0100000000000018E-002   -0.81420010698806800     
   8.0399999999999999E-002   -0.24638031715719591     
   8.0700000000000008E-002    0.32842537634884328     
   8.1000000000000003E-002    0.87792249231843555     
   8.1299999999999997E-002     1.3725867945768473     
   8.1600000000000006E-002     1.7870096579690808     
   8.1900000000000014E-002     2.1025134906008454     
   8.2199999999999995E-002     2.3074716912969637     
   8.2500000000000004E-002     2.3981041333017492     
   8.2799999999999999E-002     2.3783692799440268     
   8.3100000000000007E-002     2.2586364314475285     
   8.3400000000000002E-002     2.0549933576067874     
   8.3700000000000011E-002     1.7872528799468097     
   8.4000000000000005E-002     1.4776624313722859     
   8.4300000000000000E-002     1.1487591233377279     
   8.4599999999999995E-002    0.82240117053975648     
   8.4900000000000003E-002    0.51832343194022734     
   8.5199999999999998E-002    0.25312919820970797     
   8.5500000000000007E-002     4.0003933054068436E-002
   8.5800000000000001E-002   -0.11190296858576050     
   8.6100000000000010E-002   -0.19735278722476746     
   8.6399999999999991E-002   -0.21506479009374227     
   8.6699999999999999E-002   -0.16741596522945523     
   8.7000000000000008E-002    -6.0530797385231407E-002
   8.7300000000000003E-002     9.6307674353331471E-002
   8.7599999999999997E-002    0.29067772712194612     
   8.7900000000000006E-002    0.50792297057266655     
   8.8200000000000014E-002    0.73120661303074019     
   8.8499999999999995E-002    0.94236959327379910     
   8.8800000000000004E-002     1.1232254021305588     
   8.9100000000000013E-002     1.2559322834538211     
   8.9399999999999993E-002     1.3247983013410514     
   8.9700000000000002E-002     1.3173077916627485     
   9.0000000000000011E-002     1.2250764072239044     
   9.0299999999999991E-002     1.0452258394152554     
   9.0600000000000000E-002    0.78073554509042831     
   9.0900000000000009E-002    0.44111374603789327     
   9.1200000000000017E-002     4.1772481618855946E-002
   9.1499999999999998E-002   -0.39633160593721023     
   9.1800000000000007E-002   -0.84824861654162942     
   9.2100000000000001E-002    -1.2865976746432009     
   9.2399999999999996E-002    -1.6833718397179969     
   9.2700000000000005E-002    -2.0125994016049678     
   9.3000000000000013E-002    -2.2519165786906692     
   9.3300000000000008E-002    -2.3848072816711232     
   9.3600000000000003E-002    -2.4024860243388391     
   9.3899999999999997E-002    -2.3039833964102634     
   9.4200000000000006E-002    -2.0974359083723120     
   9.4500000000000001E-002    -1.7987979348261001     
   9.4800000000000009E-002    -1.4311737850057020     
   9.5100000000000004E-002    -1.0233112550737418     
   9.5399999999999999E-002   -0.60684473434286512     
   9.5699999999999993E-002   -0.21459066177353991     
   9.6000000000000002E-002    0.12266920279497517     
   9.6300000000000011E-002    0.37779789354309190     
   9.6600000000000005E-002    0.52975465854855530     
   9.6900000000000000E-002    0.56514259439219039     
   9.7200000000000009E-002    0.47835805977189733     
   9.7499999999999989E-002    0.27351499703390425     
   9.7799999999999998E-002    -3.7649292475526883E-002
   9.8100000000000007E-002   -0.43522320738606007     
   9.8400000000000015E-002   -0.89257439501340852     
   9.8699999999999996E-002    -1.3787009163276915     
   9.9000000000000005E-002    -1.8586515625525486     
   9.9300000000000013E-002    -2.2966698663931795     
   9.9599999999999994E-002    -2.6573628295341494     
   9.9900000000000003E-002    -2.9079037911585264     
  0.10020000000000001         -3.0196787080957566     
  0.10049999999999999         -2.9700237493794384     
  0.10080000000000000         -2.7436415026265797     
  0.10110000000000001         -2.3332320677588410     
  0.10140000000000000         -1.7413735839061864     
  0.10170000000000000        -0.97985745842512262     
  0.10200000000000001         -7.0262233204566774E-002
  0.10230000000000002         0.95648345887341590     
  0.10260000000000000          2.0612437087433975     
  0.10290000000000001          3.1978684819447682     
  0.10320000000000000          4.3152140148550151     
  0.10350000000000001          5.3591573843944476     
  0.10380000000000000          6.2760131656914284     
  0.10410000000000001          7.0143110806446876     
  0.10440000000000001          7.5282704719598943     
  0.10470000000000000          7.7808778101343448     
  0.10500000000000000          7.7454759913280675     
  0.10530000000000000          7.4092900717566890     
  0.10560000000000000          6.7731783581509237     
  0.10590000000000001          5.8534615553785603     
  0.10620000000000000          4.6814378229641909     
  0.10650000000000001          3.3018373458283747     
  0.10679999999999999          1.7712593814329325     
  0.10710000000000000         0.15500367689326011     
  0.10740000000000001         -1.4762028987596241     
  0.10770000000000000         -3.0504251712408861     
  0.10800000000000000         -4.4983494977212271     
  0.10830000000000001         -5.7572133816220745     
  0.10859999999999999         -6.7742741052268123     
  0.10890000000000000         -7.5100457387222681     
  0.10920000000000001         -7.9395377242953735     
  0.10950000000000001         -8.0543381780792060     
  0.10979999999999999         -7.8615987033779628     
  0.11009999999999999         -7.3836605506097737     
  0.11040000000000001         -6.6563732896108663     
  0.11070000000000001         -5.7253831088472289     
  0.11100000000000000         -4.6453045502121579     
  0.11130000000000000         -3.4732278934001259     
  0.11160000000000002         -2.2681994045395073     
  0.11190000000000001         -1.0856561692156905     
  0.11220000000000001          2.4571664773626021E-002
  0.11250000000000000          1.0208174460360391     
  0.11280000000000000          1.8719847433708656     
  0.11309999999999999          2.5580037904418145     
  0.11340000000000001          3.0708271257391053     
  0.11369999999999998          3.4130080922536208     
  0.11400000000000000          3.5976439752060485     
  0.11430000000000000          3.6447156803355014     
  0.11460000000000002          3.5806762242395829     
  0.11489999999999999          3.4337674777494760     
  0.11520000000000001          3.2328979303030669     
  0.11550000000000001          3.0045976079473462     
  0.11580000000000000          2.7702092637763642     
  0.11609999999999999          2.5465189958945191     
  0.11640000000000002          2.3425888557788839     
  0.11670000000000001          2.1623718240682179     
  0.11700000000000001          2.0034515291917203     
  0.11730000000000000          1.8597789353226422     
  0.11760000000000000          1.7229624251780047     
  0.11789999999999999          1.5832287455492977     
  0.11820000000000001          1.4327820871913939     
  0.11850000000000001          1.2644362765137003     
  0.11880000000000000          1.0746710639538142     
  0.11910000000000000         0.86270932448443505     
  0.11940000000000002         0.62910889757890698     
  0.11970000000000001         0.37781653438933033     
  0.12000000000000001         0.11183369285468062     
  0.12030000000000000        -0.16531479553778552     
  0.12060000000000000        -0.45086785838343429     
  0.12089999999999999        -0.74453190674444059     
  0.12119999999999999         -1.0462858263885348     
  0.12150000000000001         -1.3580723422023890     
  0.12180000000000001         -1.6810076707085411     
  0.12210000000000000         -2.0157384034079553     
  0.12239999999999999         -2.3607276941065147     
  0.12270000000000002         -2.7114664511910038     
  0.12300000000000001         -3.0601776988383507     
  0.12330000000000001         -3.3946715714262448     
  0.12360000000000000         -3.7005056248723509     
  0.12390000000000000         -3.9604648453110767     
  0.12419999999999999         -4.1565269337010227     
  0.12450000000000001         -4.2718232986915332     
  0.12480000000000001         -4.2916206256803928     
  0.12509999999999999         -4.2058462067022209     
  0.12540000000000001         -4.0095199545373861     
  0.12570000000000003         -3.7041634567570076     
  0.12600000000000000         -3.2977677889882360     
  0.12630000000000002         -2.8046840808527147     
  0.12659999999999999         -2.2443920839397355     
  0.12690000000000001         -1.6403568354944391     
  0.12719999999999998         -1.0182610231450004     
  0.12750000000000000        -0.40389694734941295     
  0.12780000000000002         0.17824283040578282     
  0.12809999999999999         0.70672310921385162     
  0.12840000000000001          1.1652381448507132     
  0.12869999999999998          1.5425130037198511     
  0.12900000000000000          1.8337909970421813     
  0.12930000000000003          2.0404505421324748     
  0.12959999999999999          2.1691917971520511     
  0.12990000000000002          2.2322253697894578     
  0.13019999999999998          2.2453813000997993     
  0.13050000000000000          2.2260848866468006     
  0.13080000000000003          2.1933845819242612     
  0.13109999999999999          2.1644417550494111     
  0.13140000000000002          2.1542014362414217     
  0.13169999999999998          2.1736816631518368     
  0.13200000000000001          2.2291335324020225     
  0.13229999999999997          2.3213628986382715     
  0.13260000000000000          2.4460291130659133     
  0.13290000000000002          2.5940334073852434     
  0.13319999999999999          2.7519065620539003     
  0.13350000000000001          2.9048949970090474     
  0.13380000000000003          3.0362705491651503     
  0.13410000000000000          3.1310369282557979     
  0.13440000000000002          3.1765872750116948     
  0.13469999999999999          3.1635295661910217     
  0.13500000000000001          3.0879816321865596     
  0.13529999999999998          2.9506563445188125     
  0.13560000000000000          2.7575413476319408     
  0.13590000000000002          2.5185293436936589     
  0.13619999999999999          2.2475463622875238     
  0.13650000000000001          1.9598610870824178     
  0.13680000000000003          1.6715717792772335     
  0.13710000000000000          1.3977945348209890     
  0.13740000000000002          1.1511707838993011     
  0.13769999999999999         0.94072920002534077     
  0.13800000000000001         0.77088213652743698     
  0.13829999999999998         0.64055706755688535     
  0.13860000000000000         0.54301807226389454     
  0.13890000000000002         0.46618921967110594     
  0.13919999999999999         0.39235660491289254     
  0.13950000000000001         0.30035864141127017     
  0.13979999999999998         0.16590425976141307     
  0.14010000000000000         -3.4745208581910547E-002
  0.14040000000000002        -0.32251351370655962     
  0.14069999999999999        -0.71264473892742952     
  0.14100000000000001         -1.2096498395669819     
  0.14130000000000004         -1.8061662129999201     
  0.14160000000000000         -2.4782776153659389     
  0.14189999999999997         -3.1861333350481664     
  0.14219999999999999         -3.8734023327490088     
  0.14250000000000002         -4.4706482950246231     
  0.14279999999999998         -4.9006643691947511     
  0.14310000000000000         -5.0850377803185456     
  0.14339999999999997         -4.9550810855973033     
  0.14369999999999999         -4.4590626940208216     
  0.14400000000000002         -3.5749546324371293     
  0.14429999999999998         -2.3161913077513212     
  0.14460000000000001        -0.73758926208762232     
  0.14490000000000003          1.0626274010618759     
  0.14520000000000000          2.9480581592727608     
  0.14550000000000002          4.7507792599734699     
  0.14579999999999999          6.2867438331254162     
  0.14610000000000001          7.3708017250987252     
  0.14640000000000003          7.8363913243499868     
  0.14670000000000000          7.5555185626240551     
  0.14699999999999996          6.4542193136011701     
  0.14729999999999999          4.5276174351317664     
  0.14760000000000001          1.8454298542490337     
  0.14789999999999998         -1.4472831287706158     
  0.14820000000000000         -5.1373078290728076     