  -1.4999999999999999E-002     0.0000000000000000     
  -1.4700000000000000E-002     0.0000000000000000     
  -1.4400000000000000E-002     0.0000000000000000     
  -1.4100000000000000E-002     0.0000000000000000     
  -1.3800000000000000E-002     0.0000000000000000     
  -1.3500000000000000E-002     0.0000000000000000     
  -1.3200000000000000E-002     0.0000000000000000     
  -1.2899999999999998E-002     0.0000000000000000     
  -1.2600000000000000E-002     0.0000000000000000     
  -1.2299999999999998E-002     0.0000000000000000     
  -1.2000000000000000E-002     0.0000000000000000     
  -1.1699999999999999E-002     0.0000000000000000     
  -1.1399999999999999E-002    -1.5211358811422523E-037
  -1.1099999999999999E-002    -1.0308863046599063E-035
  -1.0799999999999999E-002     5.4678564803608671E-035
  -1.0499999999999999E-002    -4.0844076644930291E-034
  -1.0199999999999999E-002    -2.1906616494668566E-033
  -9.8999999999999991E-003     1.8145997583584490E-032
  -9.5999999999999992E-003     1.0281825600030625E-032
  -9.2999999999999992E-003    -3.3641159595416942E-031
  -8.9999999999999993E-003     3.3309037635428363E-031
  -8.6999999999999994E-003     3.3212115178793822E-030
  -8.3999999999999995E-003    -4.4763789462992013E-030
  -8.0999999999999996E-003    -2.8249564174699945E-029
  -7.7999999999999988E-003     3.9722481070309673E-029
  -7.4999999999999997E-003     1.9289870362304022E-028
  -7.1999999999999998E-003    -2.3740565733201994E-028
  -6.8999999999999981E-003    -1.0254655717137253E-027
  -6.5999999999999982E-003     6.1238224675693467E-028
  -6.3000000000000000E-003     4.8260739597681086E-027
  -6.0000000000000001E-003     1.6256069107690556E-027
  -5.6999999999999985E-003    -1.6309272838970527E-026
  -5.3999999999999986E-003    -3.7654926370790636E-026
  -5.1000000000000004E-003     4.4186855786731566E-026
  -4.7999999999999987E-003     2.5229192809694034E-025
  -4.5000000000000005E-003    -5.1735192310810426E-026
  -4.1999999999999989E-003    -1.0719303054683732E-024
  -3.8999999999999990E-003    -2.8724195067273197E-025
  -3.5999999999999990E-003     2.7786598483387537E-024
  -3.2999999999999991E-003     2.4035901169125508E-024
  -2.9999999999999992E-003    -1.7495396796694105E-025
  -2.6999999999999993E-003    -1.4532674006559251E-023
  -2.3999999999999994E-003    -2.8461821471569249E-023
  -2.0999999999999977E-003     5.4835553293576635E-023
  -1.7999999999999995E-003     1.3634746069254502E-022
  -1.4999999999999979E-003    -1.5335660874863606E-022
  -1.1999999999999997E-003    -2.4505538848140590E-022
  -8.9999999999999976E-004     7.8858630271680097E-023
  -5.9999999999999810E-004    -3.1056957920478303E-022
  -2.9999999999999992E-004     1.6053323827858233E-021
   0.0000000000000000          2.8236050436174334E-021
   3.0000000000000165E-004    -8.3423105307797750E-021
   5.9999999999999984E-004    -5.6930432377413207E-021
   9.0000000000000149E-004     2.1070022937485078E-020
   1.2000000000000031E-003    -1.2539665574583314E-020
   1.5000000000000013E-003     1.5704062830776576E-021
   1.8000000000000030E-003     8.6337242147518496E-020
   2.1000000000000012E-003    -1.9881902115035335E-019
   2.3999999999999994E-003    -1.5098540299420804E-019
   2.7000000000000010E-003     7.4053621644867301E-019
   2.9999999999999992E-003    -3.5356117335221364E-019
   3.3000000000000008E-003    -1.0168034787254892E-018
   3.6000000000000025E-003     2.6766493139199554E-018
   3.9000000000000007E-003    -2.6196816294044195E-018
   4.2000000000000023E-003    -5.3329315269784540E-018
   4.5000000000000005E-003     1.5680488826901811E-017
   4.7999999999999987E-003    -3.8345151915721525E-018
   5.1000000000000004E-003    -3.0184178529418761E-017
   5.4000000000000020E-003     4.7902618880421075E-017
   5.7000000000000037E-003    -8.9231581167920628E-018
   5.9999999999999984E-003    -1.1279225411082034E-016
   6.3000000000000000E-003     1.9865040710498319E-016
   6.6000000000000017E-003     2.5294184435104125E-017
   6.9000000000000034E-003    -4.5970882590904519E-016
   7.2000000000000015E-003     5.1599922637806205E-016
   7.5000000000000032E-003     1.3623334712843373E-016
   7.8000000000000014E-003    -1.2904137008286920E-015
   8.0999999999999996E-003     1.7633738271982779E-015
   8.4000000000000012E-003     4.6152947037899276E-016
   8.7000000000000029E-003    -4.3820166228987909E-015
   9.0000000000000011E-003     4.8806309260671178E-015
   9.2999999999999992E-003     1.3981991717218028E-015
   9.6000000000000009E-003    -1.2707291270119156E-014
   9.8999999999999991E-003     1.7463540180300429E-014
   1.0200000000000001E-002     4.7865132126198425E-015
   1.0500000000000002E-002    -4.7056479449495071E-014
   1.0800000000000004E-002     5.2371463661932305E-014
   1.1099999999999999E-002     2.8828853127156982E-014
   1.1400000000000000E-002    -1.5511018872595663E-013
   1.1700000000000002E-002     1.5246259575914789E-013
   1.2000000000000004E-002     1.4662489149258249E-013
   1.2300000000000002E-002    -5.1585531888316437E-013
   1.2600000000000000E-002     3.1890285421509214E-013
   1.2900000000000002E-002     6.4539876875033206E-013
   1.3200000000000000E-002    -1.4008572706190760E-012
   1.3500000000000002E-002     4.3167913158522094E-013
   1.3800000000000003E-002     2.1987198679895656E-012
   1.4100000000000001E-002    -3.3140034544708363E-012
   1.4400000000000000E-002    -3.5645651315045243E-013
   1.4700000000000001E-002     6.0462711820089127E-012
   1.4999999999999999E-002    -5.6077747700297120E-012
   1.5300000000000001E-002    -3.5559932563716591E-012
   1.5600000000000003E-002     1.0570243908693436E-011
   1.5899999999999997E-002    -3.3276387699522380E-012
   1.6199999999999999E-002    -6.0633217339379953E-012
   1.6500000000000001E-002    -1.0732839589406518E-011
   1.6800000000000002E-002     3.2569433206289681E-011
   1.7100000000000004E-002     4.6873189224353917E-011
   1.7400000000000006E-002    -2.8104551495645448E-010
   1.7700000000000000E-002     3.0454994715885993E-010
   1.8000000000000002E-002     8.4396169038894563E-010
   1.8300000000000004E-002    -2.9582585322709660E-009
   1.8600000000000005E-002     4.4164715830686612E-010
   1.8900000000000000E-002     1.3099238537915397E-008
   1.9200000000000002E-002    -1.5987012695142738E-008
   1.9500000000000003E-002    -4.3102963200722592E-008
   1.9799999999999998E-002     9.0480093004623073E-008
   2.0100000000000000E-002     1.2949139537445109E-007
   2.0400000000000001E-002    -3.9732075142067000E-007
   2.0700000000000003E-002    -4.6981594297054036E-007
   2.0999999999999998E-002     2.5582769200162082E-006
   2.1299999999999999E-002     9.8203133769837500E-006
   2.1600000000000001E-002     1.9065419671161102E-005
   2.1900000000000003E-002     2.7289393543446751E-005
   2.2200000000000004E-002     3.4774059525728181E-005
   2.2500000000000006E-002     4.6480770185226531E-005
   2.2800000000000001E-002     6.8541877893443426E-005
   2.3100000000000002E-002     1.0348614357252800E-004
   2.3400000000000004E-002     1.5369705587158170E-004
   2.3699999999999999E-002     2.2807494952438036E-004
   2.4000000000000000E-002     3.3580662656204879E-004
   2.4300000000000002E-002     4.7859295810485128E-004
   2.4599999999999997E-002     6.6087850310555878E-004
   2.4900000000000005E-002     8.9693900618041298E-004
   2.5200000000000000E-002     1.1974031314373847E-003
   2.5499999999999995E-002     1.5619109653128220E-003
   2.5800000000000003E-002     1.9857317991237846E-003
   2.6099999999999998E-002     2.4552114258942414E-003
   2.6400000000000007E-002     2.9339440660118023E-003
   2.6700000000000002E-002     3.3539584449565596E-003
   2.6999999999999996E-002     3.6055707840421439E-003
   2.7300000000000005E-002     3.5299753895335012E-003
   2.7600000000000000E-002     2.9183894951546685E-003
   2.7900000000000008E-002     1.4953651214768549E-003
   2.8200000000000003E-002    -1.1030300162490857E-003
   2.8499999999999998E-002    -5.3228453145190450E-003
   2.8800000000000006E-002    -1.1680159868933244E-002
   2.9100000000000001E-002    -2.0761686393906499E-002
   2.9400000000000003E-002    -3.3202124424202277E-002
   2.9700000000000004E-002    -4.9639366497812643E-002
   3.0000000000000006E-002    -7.0674072153027040E-002
   3.0300000000000001E-002    -9.6803481626321297E-002
   3.0600000000000002E-002   -0.12834101903498762     
   3.0900000000000004E-002   -0.16535662989659203     
   3.1199999999999999E-002   -0.20761028661876249     
   3.1500000000000007E-002   -0.25448880511029953     
   3.1800000000000002E-002   -0.30496853388494266     
   3.2099999999999997E-002   -0.35761439180154891     
   3.2400000000000005E-002   -0.41061067758351788     
   3.2700000000000000E-002   -0.46180973658381125     
   3.3000000000000002E-002   -0.50888164786038681     
   3.3300000000000003E-002   -0.54938885588658071     
   3.3599999999999998E-002   -0.58094562275488781     
   3.3900000000000000E-002   -0.60141518170643704     
   3.4200000000000001E-002   -0.60903675616104236     
   3.4500000000000003E-002   -0.60256041888292367     
   3.4799999999999998E-002   -0.58133824932025002     
   3.5099999999999999E-002   -0.54533898513546419     
   3.5400000000000001E-002   -0.49507685571937388     
   3.5699999999999996E-002   -0.43162948090418374     
   3.6000000000000004E-002   -0.35629864775253517     
   3.6299999999999999E-002   -0.27084833495993316     
   3.6600000000000008E-002   -0.17697167369771299     
   3.6900000000000002E-002    -7.6463625779971345E-002
   3.7199999999999997E-002     2.8974775557984903E-002
   3.7500000000000006E-002    0.13772509234284128     
   3.7800000000000000E-002    0.24812988164782929     
   3.8100000000000009E-002    0.35847152250053854     
   3.8400000000000004E-002    0.46683585926984583     
   3.8699999999999998E-002    0.57108995105911764     
   3.9000000000000007E-002    0.66877888228629656     
   3.9300000000000002E-002    0.75718299988833371     
   3.9600000000000003E-002    0.83363687398239428     
   3.9900000000000005E-002    0.89566979029495597     
   4.0200000000000000E-002    0.94136900939110746     
   4.0500000000000001E-002    0.96984685527303016     
   4.0800000000000003E-002    0.98148610776210399     
   4.1100000000000005E-002    0.97837448916874759     
   4.1399999999999999E-002    0.96412140843262151     
   4.1700000000000008E-002    0.94404904305016424     
   4.2000000000000003E-002    0.92454715446562064     
   4.2299999999999997E-002    0.91263166495058701     
   4.2600000000000006E-002    0.91510025895412239     
   4.2900000000000001E-002    0.93758904540767452     
   4.3200000000000002E-002    0.98370393442805759     
   4.3500000000000004E-002     1.0543817843722656     
   4.3799999999999999E-002     1.1472388750317117     
   4.4100000000000000E-002     1.2565627982219998     
   4.4400000000000002E-002     1.3733306412051214     
   4.4700000000000004E-002     1.4860844201807200     
   4.4999999999999998E-002     1.5817909128542580     
   4.5300000000000000E-002     1.6469658289343965     
   4.5600000000000002E-002     1.6690776336758681     
   4.5899999999999996E-002     1.6374493990659569     
   4.6200000000000005E-002     1.5447492071542133     
   4.6500000000000000E-002     1.3869789572908549     
   4.6799999999999994E-002     1.1644628738089162     
   4.7100000000000003E-002    0.88089708458408877     
   4.7399999999999998E-002    0.54386045224993707     
   4.7700000000000006E-002    0.16340474242764660     
   4.8000000000000001E-002   -0.24849399167311337     
   4.8300000000000010E-002   -0.67854617776405912     
   4.8600000000000004E-002    -1.1130446237658820     
   4.8899999999999999E-002    -1.5380995399597537     
   4.9200000000000008E-002    -1.9399540060186489     
   4.9500000000000002E-002    -2.3053441895138733     
   4.9800000000000011E-002    -2.6208757427519420     
   5.0100000000000006E-002    -2.8740030682319109     
   5.0400000000000000E-002    -3.0522462093592710     
   5.0700000000000009E-002    -3.1449721251909764     
   5.1000000000000004E-002    -3.1429752316832262     
   5.1299999999999998E-002    -3.0406552847673680     
   5.1600000000000007E-002    -2.8365601865968988     
   5.1900000000000002E-002    -2.5347455036832764     
   5.2200000000000010E-002    -2.1462490023970302     
   5.2500000000000005E-002    -1.6888509454578542     
   5.2800000000000000E-002    -1.1876744622489235     
   5.3099999999999994E-002   -0.67369626244411274     
   5.3400000000000003E-002   -0.18203363182663046     
   5.3699999999999998E-002    0.25027764782831968     
   5.4000000000000006E-002    0.58785310704344873     
   5.4300000000000001E-002    0.79962675015184703     
   5.4599999999999996E-002    0.86296848667745030     
   5.4900000000000004E-002    0.76555966153514354     
   5.5199999999999999E-002    0.50787012535473863     
   5.5499999999999994E-002    0.10386702083256091     
   5.5800000000000002E-002   -0.41969881708359291     
   5.6099999999999997E-002    -1.0244879190549607     
   5.6400000000000006E-002    -1.6641121065802422     
   5.6700000000000000E-002    -2.2866993758045520     
   5.6999999999999995E-002    -2.8400215051186462     
   5.7300000000000004E-002    -3.2749096780170599     
   5.7599999999999998E-002    -3.5496977101173952     
   5.7900000000000007E-002    -3.6330181417533312     
   5.8200000000000002E-002    -3.5060251381327010     
   5.8499999999999996E-002    -3.1639807594907028     
   5.8800000000000005E-002    -2.6156585070149649     
   5.9100000000000000E-002    -1.8826256033830102     
   5.9400000000000008E-002   -0.99728504455560207     
   5.9700000000000003E-002     2.7581734779502654E-004
   6.0000000000000012E-002     1.0639762890889684     
   6.0300000000000006E-002     2.1468247885479204     
   6.0600000000000001E-002     3.2019487659962960     
   6.0900000000000010E-002     4.1864023219820607     
   6.1200000000000004E-002     5.0629712273196770     
   6.1500000000000013E-002     5.8015064910872534     
   6.1800000000000008E-002     6.3799598845779260     
   6.2100000000000002E-002     6.7840078256068157     
   6.2399999999999997E-002     7.0079971412761983     
   6.2700000000000006E-002     7.0526932513716716     
   6.3000000000000000E-002     6.9254497125861612     
   6.3300000000000009E-002     6.6383241632321965     
   6.3600000000000004E-002     6.2070244331855839     
   6.3899999999999998E-002     5.6496305030622027     
   6.4199999999999993E-002     4.9857400315104208     
   6.4500000000000002E-002     4.2357063417071821     
   6.4800000000000010E-002     3.4199105651052419     
   6.5100000000000005E-002     2.5591731485445885     
   6.5400000000000000E-002     1.6731737297454430     
   6.5700000000000008E-002    0.78248623636221692     
   6.5999999999999989E-002    -9.3570925761417456E-002
   6.6299999999999998E-002   -0.93524728462119855     
   6.6600000000000006E-002    -1.7238635405287257     
   6.6900000000000001E-002    -2.4410242594858924     
   6.7199999999999996E-002    -3.0712961576130815     
   6.7500000000000004E-002    -3.5999106502908877     
   6.7800000000000013E-002    -4.0164803403838381     
   6.8099999999999994E-002    -4.3140504387682750     
   6.8400000000000002E-002    -4.4901555410702274     
   6.8700000000000011E-002    -4.5473816489921219     
   6.8999999999999992E-002    -4.4927141371879351     
   6.9300000000000000E-002    -4.3389171176252210     
   6.9600000000000009E-002    -4.1010316606286175     
   6.9900000000000004E-002    -3.7983401545731885     
   7.0199999999999999E-002    -3.4508814487365043     
   7.0500000000000007E-002    -3.0794029250790897     
   7.0800000000000016E-002    -2.7037251415693970     
   7.1099999999999997E-002    -2.3405280704812013     
   7.1400000000000005E-002    -2.0050408990629967     
   7.1700000000000000E-002    -1.7067442169114311     
   7.1999999999999995E-002    -1.4535150273659305     
   7.2300000000000003E-002    -1.2475520725770868     
   7.2600000000000012E-002    -1.0902389670497319     
   7.2900000000000006E-002   -0.97907990130961586     
   7.3200000000000001E-002   -0.91233688396203050     
   7.3499999999999996E-002   -0.88755076845129000     
   7.3800000000000004E-002   -0.90339830615132244     
   7.4099999999999999E-002   -0.96095362706931842     
   7.4400000000000008E-002    -1.0618169760641467     
   7.4700000000000003E-002    -1.2109682901522674     
   7.5000000000000011E-002    -1.4114698274981714     
   7.5299999999999992E-002    -1.6678439636898412     
   7.5600000000000001E-002    -1.9787033457065899     
   7.5900000000000009E-002    -2.3399692098850196     
   7.6200000000000004E-002    -2.7375511198846523     
   7.6499999999999999E-002    -3.1498969124812430     
   7.6800000000000007E-002    -3.5430941612435980     
   7.7099999999999988E-002    -3.8734527656257876     
   7.7399999999999997E-002    -4.0878276729879044     
   7.7700000000000005E-002    -4.1256990755601066     
   7.8000000000000014E-002    -3.9262853746141526     
   7.8299999999999995E-002    -3.4315408667385050     
   7.8600000000000003E-002    -2.5964734824075983     
   7.8900000000000012E-002    -1.3950808020852570     
   7.9199999999999993E-002    0.17162572102438223     
   7.9500000000000001E-002     2.0690695841858742     
   7.9800000000000010E-002     4.2261708035380892     
   8.0100000000000018E-002     6.5326981794567267     
   8.0399999999999999E-002     8.8460994659253185     
   8.0700000000000008E-002     10.994525955840622     
   8.1000000000000003E-002     12.792807622124434     
   8.1299999999999997E-002     14.054261690793318     
   8.1600000000000006E-002     14.609506618281351     
   8.1900000000000014E-002     14.324355849837328     
   8.2199999999999995E-002     13.115033135890506     
   8.2500000000000004E-002     10.964043060380602     
   8.2799999999999999E-002     7.9257530526713911     
   8.3100000000000007E-002     4.1320099686774077     
   8.3400000000000002E-002   -0.21502695762014046     
   8.3700000000000011E-002    -4.8534709421499604     
   8.4000000000000005E-002    -9.4791623914265664     
   8.4300000000000000E-002    -13.769189114261092     
   8.4599999999999995E-002    -17.406840359774012     
   8.4900000000000003E-002    -20.108456537337158     
   8.5199999999999998E-002    -21.646647681692119     
   8.5500000000000007E-002    -21.869521419521170     
   8.5800000000000001E-002    -20.716667476509318     
   8.6100000000000010E-002    -18.219999658446046     
   8.6399999999999991E-002    -14.508736405052733     
   8.6699999999999999E-002    -9.7904700037087462     
   8.7000000000000008E-002    -4.3443005246432911     
   8.7300000000000003E-002     1.5099700937040055     
   8.7599999999999997E-002     7.4303399925628462     
   8.7900000000000006E-002     13.079186904266450     
   8.8200000000000014E-002     18.150362614521416     
   8.8499999999999995E-002     22.382893828479887     
   8.8800000000000004E-002     25.582508153705387     
   8.9100000000000013E-002     27.624790200572249     
   8.9399999999999993E-002     28.462134537899519     
   8.9700000000000002E-002     28.117090433390509     
   9.0000000000000011E-002     26.675941582890637     
   9.0299999999999991E-002     24.275793908439230     
   9.0600000000000000E-002     21.088523892617705     
   9.0900000000000009E-002     17.309041877144480     
   9.1200000000000017E-002     13.135438527532312     
   9.1499999999999998E-002     8.7611359616750804     
   9.1800000000000007E-002     4.3594505923341007     
   9.2100000000000001E-002     8.0761793554477102E-002
   9.2399999999999996E-002    -3.9559649155126362     
   9.2700000000000005E-002    -7.6605867370303677     
   9.3000000000000013E-002    -10.972459128711556     
   9.3300000000000008E-002    -13.856583737524939     
   9.3600000000000003E-002    -16.298809650513771     
   9.3899999999999997E-002    -18.300084746515068     
   9.4200000000000006E-002    -19.870369356513212     
   9.4500000000000001E-002    -21.026059722288117     
   9.4800000000000009E-002    -21.780542831512996     
   9.5100000000000004E-002    -22.150151887877911     
   9.5399999999999999E-002    -22.142721280260751     
   9.5699999999999993E-002    -21.767298713258615     
   9.6000000000000002E-002    -21.026801685696118     
   9.6300000000000011E-002    -19.928148855849301     
   9.6600000000000005E-002    -18.478926683862326     
   9.6900000000000000E-002    -16.694423482550008     
   9.7200000000000009E-002    -14.600019385940342     
   9.7499999999999989E-002    -12.229824359767228     
   9.7799999999999998E-002    -9.6344228746440628     
   9.8100000000000007E-002    -6.8715646065039326     
   9.8400000000000015E-002    -4.0142855277184797     
   9.8699999999999996E-002    -1.1390268866284945     
   9.9000000000000005E-002     1.6708779229713935     
   9.9300000000000013E-002     4.3346348621141697     
   9.9599999999999994E-002     6.7765182747816812     
   9.9900000000000003E-002     8.9301235355275121     
  0.10020000000000001          10.744600976977763     
  0.10049999999999999          12.182877411618675     
  0.10080000000000000          13.229180112691310     
  0.10110000000000001          13.883655824232960     
  0.10140000000000000          14.165715697714655     
  0.10170000000000000          14.108751448611025     
  0.10200000000000001          13.759761322052574     
  0.10230000000000002          13.172974045952838     
  0.10260000000000000          12.408089031483938     
  0.10290000000000001          11.522995145143783     
  0.10320000000000000          10.574656961702727     
  0.10350000000000001          9.6093722200171428     
  0.10380000000000000          8.6658183294441002     
  0.10410000000000001          7.7689463777743004     
  0.10440000000000001          6.9320958362687577     
  0.10470000000000000          6.1562904711194690     
  0.10500000000000000          5.4302704147355882     
  0.10530000000000000          4.7362726822496528     
  0.10560000000000000          4.0490802651453537     
  0.10590000000000001          3.3439591763680694     
  0.10620000000000000          2.5952454445042101     
  0.10650000000000001          1.7865179029578204     
  0.10679999999999999         0.90491282828743791     
  0.10710000000000000         -4.7413042115838022E-002
  0.10740000000000001         -1.0612572316853082     
  0.10770000000000000         -2.1136309149926236     
  0.10800000000000000         -3.1749109783371186     
  0.10830000000000001         -4.2066523388573547     
  0.10859999999999999         -5.1678179304304308     
  0.10890000000000000         -6.0170919254959125     
  0.10920000000000001         -6.7166346918454840     
  0.10950000000000001         -7.2353466804923414     
  0.10979999999999999         -7.5514132545607060     
  0.11009999999999999         -7.6540977360636751     
  0.11040000000000001         -7.5447308335795835     
  0.11070000000000001         -7.2357514183195608     
  0.11100000000000000         -6.7516183574818074     
  0.11130000000000000         -6.1240963191374380     
  0.11160000000000002         -5.3928849649374033     
  0.11190000000000001         -4.6009051753408281     
  0.11220000000000001         -3.7915495883936199     
  0.11250000000000000         -3.0075489290662625     
  0.11280000000000000         -2.2852029036531118     
  0.11309999999999999         -1.6555106863185767     
  0.11340000000000001         -1.1387139321028108     
  0.11369999999999998        -0.74684574591677366     
  0.11400000000000000        -0.47977903446792380     
  0.11430000000000000        -0.32744832449263628     
  0.11460000000000002        -0.27108786984971750     
  0.11489999999999999        -0.28228233872966713     
  0.11520000000000001        -0.32956089127872179     
  0.11550000000000001        -0.37740879092479729     
  0.11580000000000000        -0.39183566081093607     
  0.11609999999999999        -0.34319186101193816     
  0.11640000000000002        -0.20775368064676247     
  0.11670000000000001          2.6727826491578344E-002
  0.11700000000000001         0.36414706554990983     
  0.11730000000000000         0.79360275675990222     
  0.11760000000000000          1.2955928888827375     
  0.11789999999999999          1.8392371682439888     
  0.11820000000000001          2.3891242765253251     
  0.11850000000000001          2.9040054438496643     
  0.11880000000000000          3.3453604962767343     
  0.11910000000000000          3.6782773978280465     
  0.11940000000000002          3.8753906586373716     
  0.11970000000000001          3.9207904392611947     
  0.12000000000000001          3.8107918165667956     
  0.12030000000000000          3.5532947409492852     
  0.12060000000000000          3.1695839463098361     
  0.12089999999999999          2.6880554868830879     
  0.12119999999999999          2.1461933763665306     
  0.12150000000000001          1.5821980127513045     
  0.12180000000000001          1.0347814677891640     
  0.12210000000000000         0.53714582354641438     
  0.12239999999999999         0.11647478873248213     
  0.12270000000000002        -0.21064970325770543     
  0.12300000000000001        -0.43553427693464142     
  0.12330000000000001        -0.56163598106508994     
  0.12360000000000000        -0.59906822274632210     
  0.12390000000000000        -0.56573908298595654     
  0.12419999999999999        -0.48353747207380804     
  0.12450000000000001        -0.37579732821422063     
  0.12480000000000001        -0.26524701915111970     
  0.12509999999999999        -0.17280271512154710     
  0.12540000000000001        -0.11427432299285167     
  0.12570000000000003        -0.10064325606530786     
  0.12600000000000000        -0.13918043348487419     
  0.12630000000000002        -0.22927164719868481     
  0.12659999999999999        -0.36873055124378773     
  0.12690000000000001        -0.55049515987257758     
  0.12719999999999998        -0.76368465235279914     
  0.12750000000000000        -0.99702126771842359     
  0.12780000000000002         -1.2365756348725749     
  0.12809999999999999         -1.4680909731289538     
  0.12840000000000001         -1.6768729991964835     
  0.12869999999999998         -1.8483161901752125     
  0.12900000000000000         -1.9697404277724810     
  0.12930000000000003         -2.0284535665285821     
  0.12959999999999999         -2.0163520463512894     
  0.12990000000000002         -1.9261755827520153     
  0.13019999999999998         -1.7576393648422828     
  0.13050000000000000         -1.5125710851608232     
  0.13080000000000003         -1.1998296863163374     
  0.13109999999999999        -0.83164353519264811     
  0.13140000000000002        -0.42660797552609242     
  0.13169999999999998         -4.8052305475459189E-003
  0.13200000000000001         0.40897228719910173     
  0.13229999999999997         0.79168350196209547     
  0.13260000000000000          1.1195296384514120     
  0.13290000000000002          1.3733838701886714     
  0.13319999999999999          1.5364025311484384     
  0.13350000000000001          1.6006277753312603     
  0.13380000000000003          1.5614824398748253     
  0.13410000000000000          1.4244550120088069     
  0.13440000000000002          1.1997091365496635     
  0.13469999999999999         0.90436113855272504     
  0.13500000000000001         0.56083422432617658     
  0.13529999999999998         0.19366891120997581     
  0.13560000000000000        -0.17016674292745382     
  0.13590000000000002        -0.50389418840208122     
  0.13619999999999999        -0.78385427056517110     
  0.13650000000000001        -0.98907324609074565     
  0.13680000000000003         -1.1047231769382653     
  0.13710000000000000         -1.1210700641057394     
  0.13740000000000002         -1.0365231969695676     
  0.13769999999999999        -0.85492990703460614     
  0.13800000000000001        -0.58762091416093543     
  0.13829999999999998        -0.25198716510489194     
  0.13860000000000000         0.13117528704330861     
  0.13890000000000002         0.53591209533668582     
  0.13919999999999999         0.93689738803101885     
  0.13950000000000001          1.3067637345084924     
  0.13979999999999998          1.6219654630604345     
  0.14010000000000000          1.8612999397350929     
  0.14040000000000002          2.0094829959700995     
  0.14069999999999999          2.0563281755621072     
  0.14100000000000001          1.9993790985383773     
  0.14130000000000004          1.8421833472572602     
  0.14160000000000000          1.5953473210052398     
  0.14189999999999997          1.2743102218625870     
  0.14219999999999999         0.90034600407645660     
  0.14250000000000002         0.49574339579878668     
  0.14279999999999998          8.5646914442713357E-002
  0.14310000000000000        -0.30653611935675917     
  0.14339999999999997        -0.65866586672535221     
  0.14369999999999999        -0.95342761404880827     
  0.14400000000000002         -1.1770975889520410     
  0.14429999999999998         -1.3216345189043668     
  0.14460000000000001         -1.3852524454069515     
  0.14490000000000003         -1.3704647633412235     
  0.14520000000000000         -1.2847345908229817     
  0.14550000000000002         -1.1409759304934519     
  0.14579999999999999        -0.95189096187901701     
  0.14610000000000001        -0.73584749299299834     
  0.14640000000000003        -0.50786740187145507     
  0.14670000000000000        -0.28581709496505969     
  0.14699999999999996         -8.3344841309969248E-002
  0.14729999999999999          8.6145413537713045E-002
  0.14760000000000001         0.21344689493128716     
  0.14789999999999998         0.29226258103463654     
  0.14820000000000000         0.31958019999630327     