  -1.4999999999999999E-002     0.0000000000000000     
  -1.4700000000000000E-002     0.0000000000000000     
  -1.4400000000000000E-002     0.0000000000000000     
  -1.4100000000000000E-002     0.0000000000000000     
  -1.3800000000000000E-002     0.0000000000000000     
  -1.3500000000000000E-002     0.0000000000000000     
  -1.3200000000000000E-002     0.0000000000000000     
  -1.2899999999999998E-002     0.0000000000000000     
  -1.2600000000000000E-002     0.0000000000000000     
  -1.2299999999999998E-002     0.0000000000000000     
  -1.2000000000000000E-002     0.0000000000000000     
  -1.1699999999999999E-002     0.0000000000000000     
  -1.1399999999999999E-002     0.0000000000000000     
  -1.1099999999999999E-002     0.0000000000000000     
  -1.0799999999999999E-002     0.0000000000000000     
  -1.0499999999999999E-002     0.0000000000000000     
  -1.0199999999999999E-002     0.0000000000000000     
  -9.8999999999999991E-003     0.0000000000000000     
  -9.5999999999999992E-003     0.0000000000000000     
  -9.2999999999999992E-003     0.0000000000000000     
  -8.9999999999999993E-003     0.0000000000000000     
  -8.6999999999999994E-003     0.0000000000000000     
  -8.3999999999999995E-003     0.0000000000000000     
  -8.0999999999999996E-003     0.0000000000000000     
  -7.7999999999999988E-003     0.0000000000000000     
  -7.4999999999999997E-003     0.0000000000000000     
  -7.1999999999999998E-003     0.0000000000000000     
  -6.8999999999999981E-003     0.0000000000000000     
  -6.5999999999999982E-003     0.0000000000000000     
  -6.3000000000000000E-003     0.0000000000000000     
  -6.0000000000000001E-003     0.0000000000000000     
  -5.6999999999999985E-003     0.0000000000000000     
  -5.3999999999999986E-003     0.0000000000000000     
  -5.1000000000000004E-003     0.0000000000000000     
  -4.7999999999999987E-003     0.0000000000000000     
  -4.5000000000000005E-003     0.0000000000000000     
  -4.1999999999999989E-003     0.0000000000000000     
  -3.8999999999999990E-003     0.0000000000000000     
  -3.5999999999999990E-003     0.0000000000000000     
  -3.2999999999999991E-003     0.0000000000000000     
  -2.9999999999999992E-003     0.0000000000000000     
  -2.6999999999999993E-003     0.0000000000000000     
  -2.3999999999999994E-003     0.0000000000000000     
  -2.0999999999999977E-003     0.0000000000000000     
  -1.7999999999999995E-003     0.0000000000000000     
  -1.4999999999999979E-003     0.0000000000000000     
  -1.1999999999999997E-003     0.0000000000000000     
  -8.9999999999999976E-004     0.0000000000000000     
  -5.9999999999999810E-004     0.0000000000000000     
  -2.9999999999999992E-004     0.0000000000000000     
   0.0000000000000000          0.0000000000000000     
   3.0000000000000165E-004     0.0000000000000000     
   5.9999999999999984E-004     0.0000000000000000     
   9.0000000000000149E-004     0.0000000000000000     
   1.2000000000000031E-003     0.0000000000000000     
   1.5000000000000013E-003     0.0000000000000000     
   1.8000000000000030E-003     0.0000000000000000     
   2.1000000000000012E-003     0.0000000000000000     
   2.3999999999999994E-003     0.0000000000000000     
   2.7000000000000010E-003     0.0000000000000000     
   2.9999999999999992E-003     0.0000000000000000     
   3.3000000000000008E-003     0.0000000000000000     
   3.6000000000000025E-003     0.0000000000000000     
   3.9000000000000007E-003     0.0000000000000000     
   4.2000000000000023E-003     0.0000000000000000     
   4.5000000000000005E-003     0.0000000000000000     
   4.7999999999999987E-003     0.0000000000000000     
   5.1000000000000004E-003     0.0000000000000000     
   5.4000000000000020E-003     0.0000000000000000     
   5.7000000000000037E-003     0.0000000000000000     
   5.9999999999999984E-003     0.0000000000000000     
   6.3000000000000000E-003     0.0000000000000000     
   6.6000000000000017E-003     0.0000000000000000     
   6.9000000000000034E-003     0.0000000000000000     
   7.2000000000000015E-003     0.0000000000000000     
   7.5000000000000032E-003     0.0000000000000000     
   7.8000000000000014E-003     0.0000000000000000     
   8.0999999999999996E-003     0.0000000000000000     
   8.4000000000000012E-003     0.0000000000000000     
   8.7000000000000029E-003     0.0000000000000000     
   9.0000000000000011E-003     0.0000000000000000     
   9.2999999999999992E-003     0.0000000000000000     
   9.6000000000000009E-003     0.0000000000000000     
   9.8999999999999991E-003     0.0000000000000000     
   1.0200000000000001E-002     0.0000000000000000     
   1.0500000000000002E-002     0.0000000000000000     
   1.0800000000000004E-002     0.0000000000000000     
   1.1099999999999999E-002     0.0000000000000000     
   1.1400000000000000E-002     0.0000000000000000     
   1.1700000000000002E-002     0.0000000000000000     
   1.2000000000000004E-002     0.0000000000000000     
   1.2300000000000002E-002     0.0000000000000000     
   1.2600000000000000E-002     0.0000000000000000     
   1.2900000000000002E-002     0.0000000000000000     
   1.3200000000000000E-002     0.0000000000000000     
   1.3500000000000002E-002     0.0000000000000000     
   1.3800000000000003E-002     0.0000000000000000     
   1.4100000000000001E-002     0.0000000000000000     
   1.4400000000000000E-002     0.0000000000000000     
   1.4700000000000001E-002     0.0000000000000000     
   1.4999999999999999E-002     0.0000000000000000     
   1.5300000000000001E-002     0.0000000000000000     
   1.5600000000000003E-002     0.0000000000000000     
   1.5899999999999997E-002     0.0000000000000000     
   1.6199999999999999E-002     0.0000000000000000     
   1.6500000000000001E-002     0.0000000000000000     
   1.6800000000000002E-002     0.0000000000000000     
   1.7100000000000004E-002     0.0000000000000000     
   1.7400000000000006E-002     0.0000000000000000     
   1.7700000000000000E-002     0.0000000000000000     
   1.8000000000000002E-002     0.0000000000000000     
   1.8300000000000004E-002     0.0000000000000000     
   1.8600000000000005E-002     0.0000000000000000     
   1.8900000000000000E-002     0.0000000000000000     
   1.9200000000000002E-002     0.0000000000000000     
   1.9500000000000003E-002     0.0000000000000000     
   1.9799999999999998E-002     0.0000000000000000     
   2.0100000000000000E-002     0.0000000000000000     
   2.0400000000000001E-002     0.0000000000000000     
   2.0700000000000003E-002     0.0000000000000000     
   2.0999999999999998E-002     0.0000000000000000     
   2.1299999999999999E-002     0.0000000000000000     
   2.1600000000000001E-002     0.0000000000000000     
   2.1900000000000003E-002     0.0000000000000000     
   2.2200000000000004E-002     0.0000000000000000     
   2.2500000000000006E-002     0.0000000000000000     
   2.2800000000000001E-002     0.0000000000000000     
   2.3100000000000002E-002     0.0000000000000000     
   2.3400000000000004E-002     0.0000000000000000     
   2.3699999999999999E-002     0.0000000000000000     
   2.4000000000000000E-002     0.0000000000000000     
   2.4300000000000002E-002     0.0000000000000000     
   2.4599999999999997E-002     0.0000000000000000     
   2.4900000000000005E-002     0.0000000000000000     
   2.5200000000000000E-002     0.0000000000000000     
   2.5499999999999995E-002     0.0000000000000000     
   2.5800000000000003E-002     0.0000000000000000     
   2.6099999999999998E-002     0.0000000000000000     
   2.6400000000000007E-002     0.0000000000000000     
   2.6700000000000002E-002     0.0000000000000000     
   2.6999999999999996E-002     0.0000000000000000     
   2.7300000000000005E-002     0.0000000000000000     
   2.7600000000000000E-002     0.0000000000000000     
   2.7900000000000008E-002     0.0000000000000000     
   2.8200000000000003E-002     0.0000000000000000     
   2.8499999999999998E-002     0.0000000000000000     
   2.8800000000000006E-002     0.0000000000000000     
   2.9100000000000001E-002     0.0000000000000000     
   2.9400000000000003E-002     0.0000000000000000     
   2.9700000000000004E-002     0.0000000000000000     
   3.0000000000000006E-002     0.0000000000000000     
   3.0300000000000001E-002     0.0000000000000000     
   3.0600000000000002E-002    -1.5123397559111212E-042
   3.0900000000000004E-002     3.7454666837203599E-041
   3.1199999999999999E-002    -1.5474070831741980E-040
   3.1500000000000007E-002     4.0198868645091267E-037
   3.1800000000000002E-002    -2.9102839431089257E-036
   3.2099999999999997E-002     2.1898214112381433E-036
   3.2400000000000005E-002     2.8119562366141389E-035
   3.2700000000000000E-002    -4.3053359993326554E-034
   3.3000000000000002E-002     1.5685096151281660E-033
   3.3300000000000003E-002    -4.1359827022875112E-033
   3.3599999999999998E-002     1.0154877467079544E-032
   3.3900000000000000E-002    -2.3098111848250682E-032
   3.4200000000000001E-002     5.0075823547780976E-032
   3.4500000000000003E-002    -9.8205094337704655E-032
   3.4799999999999998E-002     1.5756034722534530E-031
   3.5099999999999999E-002    -1.5268253785976441E-031
   3.5400000000000001E-002    -1.8244042444985637E-031
   3.5699999999999996E-002     1.5927791183219421E-030
   3.6000000000000004E-002    -5.8812841793894029E-030
   3.6299999999999999E-002     1.6926011764193423E-029
   3.6600000000000008E-002    -4.2061864249927463E-029
   3.6900000000000002E-002     9.2365605738146651E-029
   3.7199999999999997E-002    -1.7514872108342308E-028
   3.7500000000000006E-002     2.5669697142732542E-028
   3.7800000000000000E-002    -1.3992672927520813E-028
   3.8100000000000009E-002    -8.4151770892269424E-028
   3.8400000000000004E-002     4.3760905995381341E-027
   3.8699999999999998E-002    -1.3623501945076222E-026
   3.9000000000000007E-002     3.1793012085554824E-026
   3.9300000000000002E-002    -5.4101862376129973E-026
   3.9600000000000003E-002     4.5343118330144834E-026
   3.9900000000000005E-002     9.9257237407023981E-026
   4.0200000000000000E-002    -5.7726109908739976E-025
   4.0500000000000001E-002     1.5634925900007093E-024
   4.0800000000000003E-002    -2.7108496262844386E-024
   4.1100000000000005E-002     2.0686883670490401E-024
   4.1399999999999999E-002     5.0699952209365512E-024
   4.1700000000000008E-002    -2.5003635940489452E-023
   4.2000000000000003E-002     5.7659231221930249E-023
   4.2299999999999997E-002    -8.0509745393546743E-023
   4.2600000000000006E-002     4.3839149086519251E-023
   4.2900000000000001E-002     5.0649247087922376E-023
   4.3200000000000002E-002     1.6430388976461447E-022
   4.3500000000000004E-002    -2.1863845093395732E-021
   4.3799999999999999E-002     1.0046867674672916E-020
   4.4100000000000000E-002    -3.2281155351943583E-020
   4.4400000000000002E-002     8.2765803482626566E-020
   4.4700000000000004E-002    -1.6874022350794510E-019
   4.4999999999999998E-002     2.0853269832401175E-019
   4.5300000000000000E-002     3.3245249790996223E-019
   4.5600000000000002E-002    -3.6565147013804647E-018
   4.5899999999999996E-002     1.6605528257838166E-017
   4.6200000000000005E-002    -5.4595694261643450E-017
   4.6500000000000000E-002     1.3429795400639511E-016
   4.6799999999999994E-002    -2.0396829033296335E-016
   4.7100000000000003E-002    -1.1747901935223650E-016
   4.7399999999999998E-002     2.1289985441836086E-015
   4.7700000000000006E-002    -8.4570969650177169E-015
   4.8000000000000001E-002     2.0004288558911300E-014
   4.8300000000000010E-002    -2.0247302447091719E-014
   4.8600000000000004E-002    -6.2518194694194181E-014
   4.8899999999999999E-002     3.7697096596541204E-013
   4.9200000000000008E-002    -9.4223676195713039E-013
   4.9500000000000002E-002     7.6737499480363044E-013
   4.9800000000000011E-002     3.5691543356063575E-012
   5.0100000000000006E-002    -1.6108226927188390E-011
   5.0400000000000000E-002     2.6048767942949770E-011
   5.0700000000000009E-002     2.3793337197882111E-011
   5.1000000000000004E-002    -2.1664625813518907E-010
   5.1299999999999998E-002     4.0009973100199120E-010
   5.1600000000000007E-002     2.9403340232263255E-010
   5.1900000000000002E-002    -2.8028750921256197E-009
   5.2200000000000010E-002     3.8206740566803977E-009
   5.2500000000000005E-002     7.9040450858920512E-009
   5.2800000000000000E-002    -3.1102542172627562E-008
   5.3099999999999994E-002     4.2018882010940796E-010
   5.3400000000000003E-002     1.4304818557828430E-007
   5.3699999999999998E-002    -1.1986548639283843E-007
   5.4000000000000006E-002    -5.8167848215263772E-007
   5.4300000000000001E-002     8.7763899005404690E-007
   5.4599999999999996E-002     4.8368986658514341E-006
   5.4900000000000004E-002     7.9663656270759666E-006
   5.5199999999999999E-002     8.4993372188650292E-006
   5.5499999999999994E-002     9.2677258279177289E-006
   5.5800000000000002E-002     1.3081592607239131E-005
   5.6099999999999997E-002     2.1712615380826379E-005
   5.6400000000000006E-002     3.6819349125803992E-005
   5.6700000000000000E-002     5.7582183812864539E-005
   5.6999999999999995E-002     8.3856729436081651E-005
   5.7300000000000004E-002     1.1976774216326718E-004
   5.7599999999999998E-002     1.7022835372514230E-004
   5.7900000000000007E-002     2.4050851737796773E-004
   5.8200000000000002E-002     3.3608085589195881E-004
   5.8499999999999996E-002     4.5959388918224390E-004
   5.8800000000000005E-002     6.1414884641558705E-004
   5.9100000000000000E-002     8.0381133994468544E-004
   5.9400000000000008E-002     1.0309583413296182E-003
   5.9700000000000003E-002     1.2994036509736426E-003
   6.0000000000000012E-002     1.6072804306239206E-003
   6.0300000000000006E-002     1.9376116749825990E-003
   6.0600000000000001E-002     2.2663796003877358E-003
   6.0900000000000010E-002     2.5654145619951941E-003
   6.1200000000000004E-002     2.7954660873679314E-003
   6.1500000000000013E-002     2.9046508164626249E-003
   6.1800000000000008E-002     2.8248675204070495E-003
   6.2100000000000002E-002     2.4751986592735928E-003
   6.2399999999999997E-002     1.7738044767579985E-003
   6.2700000000000006E-002     6.3746675168076554E-004
   6.3000000000000000E-002    -1.0164283025031042E-003
   6.3300000000000009E-002    -3.2533454215348790E-003
   6.3600000000000004E-002    -6.1065418545071491E-003
   6.3899999999999998E-002    -9.5702690963257227E-003
   6.4199999999999993E-002    -1.3594836041884863E-002
   6.4500000000000002E-002    -1.8071499937163196E-002
   6.4800000000000010E-002    -2.2821783052702528E-002
   6.5100000000000005E-002    -2.7608098221800974E-002
   6.5400000000000000E-002    -3.2151444170526573E-002
   6.5700000000000008E-002    -3.6137314754668776E-002
   6.5999999999999989E-002    -3.9221879882723722E-002
   6.6299999999999998E-002    -4.1062859459891562E-002
   6.6600000000000006E-002    -4.1358647912687806E-002
   6.6900000000000001E-002    -3.9878655928189226E-002
   6.7199999999999996E-002    -3.6470152941715295E-002
   6.7500000000000004E-002    -3.1094376618713185E-002
   6.7800000000000013E-002    -2.3835959911885727E-002
   6.8099999999999994E-002    -1.4914589784974910E-002
   6.8400000000000002E-002    -4.6824903438054894E-003
   6.8700000000000011E-002     6.3872430177768554E-003
   6.8999999999999992E-002     1.7699230143226295E-002
   6.9300000000000000E-002     2.8564796625858584E-002
   6.9600000000000009E-002     3.8229885740341946E-002
   6.9900000000000004E-002     4.5881317445250577E-002
   7.0199999999999999E-002     5.0662577880380082E-002
   7.0500000000000007E-002     5.1698006995853321E-002
   7.0800000000000016E-002     4.8141577765334509E-002
   7.1099999999999997E-002     3.9221166387592155E-002
   7.1400000000000005E-002     2.4295950646197037E-002
   7.1700000000000000E-002     2.9220853836871858E-003
   7.1999999999999995E-002    -2.5034068252995985E-002
   7.2300000000000003E-002    -5.9331573808555929E-002
   7.2600000000000012E-002    -9.9241357743049957E-002
   7.2900000000000006E-002   -0.14347590408619634     
   7.3200000000000001E-002   -0.19014396671733530     
   7.3499999999999996E-002   -0.23680339972701728     
   7.3800000000000004E-002   -0.28047794756010996     
   7.4099999999999999E-002   -0.31786492994460658     
   7.4400000000000008E-002   -0.34550624908539845     
   7.4700000000000003E-002   -0.36005889659663370     
   7.5000000000000011E-002   -0.35864070890508232     
   7.5299999999999992E-002   -0.33911169962256843     
   7.5600000000000001E-002   -0.30033761156159744     
   7.5900000000000009E-002   -0.24246577913282408     
   7.6200000000000004E-002   -0.16697220476508642     
   7.6499999999999999E-002    -7.6683401644485560E-002
   7.6800000000000007E-002     2.4357732955105411E-002
   7.7099999999999988E-002    0.13115613321474867     
   7.7399999999999997E-002    0.23814598912408422     
   7.7700000000000005E-002    0.33954328049220378     
   7.8000000000000014E-002    0.42987399016809863     
   7.8299999999999995E-002    0.50435975799491217     
   7.8600000000000003E-002    0.55924626189575322     
   7.8900000000000012E-002    0.59208023614335992     
   7.9199999999999993E-002    0.60177980275842535     
   7.9500000000000001E-002    0.58866806051411780     
   7.9800000000000010E-002    0.55435026639619311     
   8.0100000000000018E-002    0.50151375406809295     
   8.0399999999999999E-002    0.43361635436342116     
   8.0700000000000008E-002    0.35469258440024148     
   8.1000000000000003E-002    0.26899720306775415     
   8.1299999999999997E-002    0.18088863687251672     
   8.1600000000000006E-002     9.4576682224949013E-002
   8.1900000000000014E-002     1.4053028362117713E-002
   8.2199999999999995E-002    -5.7147053945576343E-002
   8.2500000000000004E-002   -0.11579551416406414     
   8.2799999999999999E-002   -0.15932991608086849     
   8.3100000000000007E-002   -0.18574096041617541     
   8.3400000000000002E-002   -0.19390168416192727     
   8.3700000000000011E-002   -0.18347888035112597     
   8.4000000000000005E-002   -0.15534853383101943     
   8.4300000000000000E-002   -0.11142288849744947     
   8.4599999999999995E-002    -5.4837792705753452E-002
   8.4900000000000003E-002     1.0191960618299578E-002
   8.5199999999999998E-002     7.8572815965981216E-002
   8.5500000000000007E-002    0.14457638645088638     
   8.5800000000000001E-002    0.20235571325655816     
   8.6100000000000010E-002    0.24632344602221923     
   8.6399999999999991E-002    0.27177980729376511     
   8.6699999999999999E-002    0.27521574631139523     
   8.7000000000000008E-002    0.25480335377276847     
   8.7300000000000003E-002    0.21054517455788452     
   8.7599999999999997E-002    0.14432097633769947     
   8.7900000000000006E-002     5.9843338076445735E-002
   8.8200000000000014E-002    -3.7802886733580898E-002
   8.8499999999999995E-002   -0.14246444412420162     
   8.8800000000000004E-002   -0.24752113265141737     
   8.9100000000000013E-002   -0.34638546386480906     
   8.9399999999999993E-002   -0.43301661283666726     
   8.9700000000000002E-002   -0.50238219161634345     
   9.0000000000000011E-002   -0.55066255330328284     
   9.0299999999999991E-002   -0.57538508951742229     
   9.0600000000000000E-002   -0.57550161359293384     
   9.0900000000000009E-002   -0.55120838003000294     
   9.1200000000000017E-002   -0.50373132394912412     
   9.1499999999999998E-002   -0.43524792695187470     
   9.1800000000000007E-002   -0.34838716898438743     
   9.2100000000000001E-002   -0.24640718074491430     
   9.2399999999999996E-002   -0.13276700185054116     
   9.2700000000000005E-002    -1.1298299303594314E-002
   9.3000000000000013E-002    0.11400300995690055     
   9.3300000000000008E-002    0.23881554560232210     
   9.3600000000000003E-002    0.35871431948820920     
   9.3899999999999997E-002    0.46895327561497813     
   9.4200000000000006E-002    0.56486306349322901     
   9.4500000000000001E-002    0.64191651392946980     
   9.4800000000000009E-002    0.69600590127167150     
   9.5100000000000004E-002    0.72380187220495462     
   9.5399999999999999E-002    0.72292933976126794     
   9.5699999999999993E-002    0.69236272129009580     
   9.6000000000000002E-002    0.63260090148623171     
   9.6300000000000011E-002    0.54574315863713396     
   9.6600000000000005E-002    0.43538306211112654     
   9.6900000000000000E-002    0.30652580656088291     
   9.7200000000000009E-002    0.16527308660984968     
   9.7499999999999989E-002     1.8429162182621077E-002
   9.7799999999999998E-002   -0.12691451961764000     
   9.8100000000000007E-002   -0.26395804181788279     
   9.8400000000000015E-002   -0.38637731144718174     
   9.8699999999999996E-002   -0.48902600368878102     
   9.9000000000000005E-002   -0.56788518353987572     
   9.9300000000000013E-002   -0.62050885742062212     
   9.9599999999999994E-002   -0.64606202411023905     
   9.9900000000000003E-002   -0.64523903796575155     
  0.10020000000000001        -0.62030766867160025     
  0.10049999999999999        -0.57473595069886774     
  0.10080000000000000        -0.51326574106983469     
  0.10110000000000001        -0.44132366379321492     
  0.10140000000000000        -0.36495492771404048     
  0.10170000000000000        -0.29024207097759369     
  0.10200000000000001        -0.22326373723359993     
  0.10230000000000002        -0.16936083833684051     
  0.10260000000000000        -0.13287479983474801     
  0.10290000000000001        -0.11700796681534398     
  0.10320000000000000        -0.12322200915667794     
  0.10350000000000001        -0.15124530479436238     
  0.10380000000000000        -0.19886239135764455     
  0.10410000000000001        -0.26197363139017960     
  0.10440000000000001        -0.33486808255051081     
  0.10470000000000000        -0.41040471142083301     
  0.10500000000000000        -0.48071242492749255     
  0.10530000000000000        -0.53751757201346395     
  0.10560000000000000        -0.57314808621753666     
  0.10590000000000001        -0.58098167000770806     
  0.10620000000000000        -0.55610662325816707     
  0.10650000000000001        -0.49602410768322636     
  0.10679999999999999        -0.40072431493973742     
  0.10710000000000000        -0.27312878521152584     
  0.10740000000000001        -0.11860486961514893     
  0.10770000000000000          5.5013320026831555E-002
  0.10800000000000000         0.23835077233446808     
  0.10830000000000001         0.42090231625332392     
  0.10859999999999999         0.59204393351039664     
  0.10890000000000000         0.74192861274039068     
  0.10920000000000001         0.86201171024459700     
  0.10950000000000001         0.94591194357953912     
  0.10979999999999999         0.98974658819320771     
  0.11009999999999999         0.99220338990069212     
  0.11040000000000001         0.95477844045241511     
  0.11070000000000001         0.88105342343821746     
  0.11100000000000000         0.77671777903395567     
  0.11130000000000000         0.64860763413308686     
  0.11160000000000002         0.50438783002411680     
  0.11190000000000001         0.35160850590228243     
  0.11220000000000001         0.19757487341812535     
  0.11250000000000000          4.8599137953509702E-002
  0.11280000000000000         -8.9865578575315366E-002
  0.11309999999999999        -0.21362440382296985     
  0.11340000000000001        -0.31968203921041161     
  0.11369999999999998        -0.40608444232789620     
  0.11400000000000000        -0.47149784208888956     
  0.11430000000000000        -0.51561473041431527     
  0.11460000000000002        -0.53850928594791958     
  0.11489999999999999        -0.54089602608958709     
  0.11520000000000001        -0.52402420248808212     
  0.11550000000000001        -0.48958849104896784     
  0.11580000000000000        -0.43994693059756323     
  0.11609999999999999        -0.37799962224897710     
  0.11640000000000002        -0.30709243897983668     
  0.11670000000000001        -0.23094423673226211     
  0.11700000000000001        -0.15319408378030691     
  0.11730000000000000         -7.7115056123370856E-002
  0.11760000000000000         -5.4980593848058916E-003
  0.11789999999999999          6.0018666169813328E-002
  0.11820000000000001         0.11902231825314805     
  0.11850000000000001         0.17237390405506145     
  0.11880000000000000         0.22240081951287738     
  0.11910000000000000         0.27215091154357202     
  0.11940000000000002         0.32504817473172742     
  0.11970000000000001         0.38451612654521056     
  0.12000000000000001         0.45288017284857085     
  0.12030000000000000         0.53083363450266230     
  0.12060000000000000         0.61710842667647570     
  0.12089999999999999         0.70796499172849348     
  0.12119999999999999         0.79733993216831034     
  0.12150000000000001         0.87725803155935322     
  0.12180000000000001         0.93825841846974600     
  0.12210000000000000         0.97077361780737781     
  0.12239999999999999         0.96592146091135511     
  0.12270000000000002         0.91638978158616446     
  0.12300000000000001         0.81796876782011918     
  0.12330000000000001         0.66984129354936250     
  0.12360000000000000         0.47518371638627743     
  0.12390000000000000         0.24128428886444181     
  0.12419999999999999         -2.1051142966152084E-002
  0.12450000000000001        -0.29802711509838159     
  0.12480000000000001        -0.57396687979961603     
  0.12509999999999999        -0.83224120178380434     
  0.12540000000000001         -1.0569303707911408     
  0.12570000000000003         -1.2336818175939599     
  0.12600000000000000         -1.3508370087414998     
  0.12630000000000002         -1.4003390773828726     
  0.12659999999999999         -1.3783260625816434     
  0.12690000000000001         -1.2851778409907308     
  0.12719999999999998         -1.1258592338345159     
  0.12750000000000000        -0.90938988204549087     
  0.12780000000000002        -0.64851684902541373     
  0.12809999999999999        -0.35899559124635255     
  0.12840000000000001         -5.8717650450297906E-002
  0.12869999999999998         0.23352917523249378     
  0.12900000000000000         0.49857997669205545     
  0.12930000000000003         0.71873991085450994     
  0.12959999999999999         0.87867482951264664     
  0.12990000000000002         0.96651453371791574     
  0.13019999999999998         0.97489311942686996     
  0.13050000000000000         0.90180226952197107     
  0.13080000000000003         0.75078892746353998     
  0.13109999999999999         0.53140983185478463     
  0.13140000000000002         0.25849093677398227     
  0.13169999999999998         -4.8523708229756934E-002
  0.13200000000000001        -0.36682444340779458     
  0.13229999999999997        -0.67182708891422938     
  0.13260000000000000        -0.93896675191310963     
  0.13290000000000002         -1.1454963404116318     
  0.13319999999999999         -1.2723831526795506     
  0.13350000000000001         -1.3058529788446462     
  0.13380000000000003         -1.2385510372613548     
  0.13410000000000000         -1.0701074116367884     
  0.13440000000000002        -0.80727733199988472     
  0.13469999999999999        -0.46367492212120853     
  0.13500000000000001         -5.8632121513592594E-002
  0.13529999999999998         0.38402702051493015     
  0.13560000000000000         0.83783154447656893     
  0.13590000000000002          1.2754023783661035     
  0.13619999999999999          1.6701976261722191     
  0.13650000000000001          1.9983138675028767     
  0.13680000000000003          2.2397490773854578     
  0.13710000000000000          2.3796695369208796     
  0.13740000000000002          2.4090315686008914     
  0.13769999999999999          2.3250181144044877     
  0.13800000000000001          2.1305776919538015     
  0.13829999999999998          1.8345436588563473     
  0.13860000000000000          1.4508306430158915     
  0.13890000000000002         0.99704221727814746     
  0.13919999999999999         0.49459130977894583     
  0.13950000000000001         -3.3755040756397806E-002
  0.13979999999999998        -0.56380966938434129     
  0.14010000000000000         -1.0721826620888459     
  0.14040000000000002         -1.5365810779774742     
  0.14069999999999999         -1.9373563155607334     
  0.14100000000000001         -2.2584134388028207     
  0.14130000000000004         -2.4876535590121183     
  0.14160000000000000         -2.6181743187305964     
  0.14189999999999997         -2.6480379029259420     
  0.14219999999999999         -2.5804843301000790     
  0.14250000000000002         -2.4238743942520480     
  0.14279999999999998         -2.1905857195349361     
  0.14310000000000000         -1.8965535355524104     
  0.14339999999999997         -1.5599701627877147     
  0.14369999999999999         -1.2000374385981871     
  0.14400000000000002        -0.83574667905455879     
  0.14429999999999998        -0.48475975752677503     
  0.14460000000000001        -0.16216657075236401     
  0.14490000000000003         0.12000168659933455     
  0.14520000000000000         0.35329932610076653     
  0.14550000000000002         0.53309045003056943     
  0.14579999999999999         0.65814225477226984     
  0.14610000000000001         0.73041908570416769     
  0.14640000000000003         0.75441306595905511     
  0.14670000000000000         0.73648696461519092     
  0.14699999999999996         0.68441681484349504     
  0.14729999999999999         0.60641443074790957     
  0.14760000000000001         0.51117909022452934     
  0.14789999999999998         0.40719735921067884     
  0.14820000000000000         0.30276631676396359     