  -1.4999999999999999E-002     0.0000000000000000     
  -1.4700000000000000E-002    -6.0373086236217633E-017
  -1.4400000000000000E-002     6.2479703756056357E-015
  -1.4100000000000000E-002     1.0320526666771223E-012
  -1.3800000000000000E-002    -2.8991863523978066E-012
  -1.3500000000000000E-002    -2.0114929951188519E-011
  -1.3200000000000000E-002     2.8626336128236841E-011
  -1.2899999999999998E-002     1.0152795988403590E-010
  -1.2600000000000000E-002     7.1428449307603327E-011
  -1.2299999999999998E-002    -4.7450008695220987E-010
  -1.2000000000000000E-002    -4.7117748718513375E-010
  -1.1699999999999999E-002     1.5889199252398182E-010
  -1.1399999999999999E-002     2.3251125578771103E-009
  -1.1099999999999999E-002     2.4972589519327817E-009
  -1.0799999999999999E-002    -3.3015623244550288E-009
  -1.0499999999999999E-002    -8.4972912692781598E-009
  -1.0199999999999999E-002    -5.2268440035214015E-009
  -9.8999999999999991E-003     9.6063728670825774E-009
  -9.5999999999999992E-003     2.2477535249355732E-008
  -9.2999999999999992E-003     2.3354908089580663E-008
  -8.9999999999999993E-003    -2.5077469480009641E-008
  -8.6999999999999994E-003    -7.1712681439180862E-008
  -8.3999999999999995E-003    -4.4487191829284084E-008
  -8.0999999999999996E-003     3.5776031392736324E-008
  -7.7999999999999988E-003     1.2719401755711189E-007
  -7.4999999999999997E-003     1.6624531928624759E-007
  -7.1999999999999998E-003    -6.2354526148419475E-009
  -6.8999999999999981E-003    -2.6122079192258783E-007
  -6.5999999999999982E-003    -3.9088838690468238E-007
  -6.3000000000000000E-003    -8.5709420789116174E-008
  -6.0000000000000001E-003     3.2752338926305426E-007
  -5.6999999999999985E-003     6.1006675558697148E-007
  -5.3999999999999986E-003     5.9612297083214888E-007
  -5.1000000000000004E-003    -8.3267592932362706E-008
  -4.7999999999999987E-003    -1.0766467876418557E-006
  -4.5000000000000005E-003    -1.2379255949346055E-006
  -4.1999999999999989E-003    -7.4133898787799716E-008
  -3.8999999999999990E-003     6.5642162790343282E-007
  -3.5999999999999990E-003     1.1814413083775977E-006
  -3.2999999999999991E-003     1.6834449128663876E-006
  -2.9999999999999992E-003    -2.7793993284463429E-007
  -2.6999999999999993E-003    -2.2705981795526155E-006
  -2.3999999999999994E-003    -1.7286213494202191E-007
  -2.0999999999999977E-003     4.3190745409526379E-006
  -1.7999999999999995E-003     8.2095900487356291E-006
  -1.4999999999999979E-003     1.9377115615819498E-005
  -1.1999999999999997E-003     3.4518362624546124E-005
  -8.9999999999999976E-004     4.6359647098196080E-005
  -5.9999999999999810E-004     6.4095225333708604E-005
  -2.9999999999999992E-004     8.6543246773591878E-005
   0.0000000000000000          1.0535144934954500E-004
   3.0000000000000165E-004     1.4906339046482882E-004
   5.9999999999999984E-004     2.2925968533154615E-004
   9.0000000000000149E-004     3.1850245384771128E-004
   1.2000000000000031E-003     4.1984050109045130E-004
   1.5000000000000013E-003     5.1768258598717219E-004
   1.8000000000000030E-003     5.7703357278223572E-004
   2.1000000000000012E-003     5.8794120797303563E-004
   2.3999999999999994E-003     5.1163239236422947E-004
   2.7000000000000010E-003     2.4796271777833049E-004
   2.9999999999999992E-003    -3.2935939225451987E-004
   3.3000000000000008E-003    -1.4937527997149120E-003
   3.6000000000000025E-003    -3.6205123428261258E-003
   3.9000000000000007E-003    -7.1463257438766376E-003
   4.2000000000000023E-003    -1.2686883974293357E-002
   4.5000000000000005E-003    -2.1075498539194611E-002
   4.7999999999999987E-003    -3.3442084905462070E-002
   5.1000000000000004E-003    -5.1321386610803765E-002
   5.4000000000000020E-003    -7.6567716272728598E-002
   5.7000000000000037E-003   -0.11133674312125422     
   5.9999999999999984E-003   -0.15816254021033502     
   6.3000000000000000E-003   -0.21985905353803206     
   6.6000000000000017E-003   -0.29951043200134131     
   6.9000000000000034E-003   -0.40026559237906278     
   7.2000000000000015E-003   -0.52508452969298958     
   7.5000000000000032E-003   -0.67652059942018039     
   7.8000000000000014E-003   -0.85643286649608985     
   8.0999999999999996E-003    -1.0655469162080931     
   8.4000000000000012E-003    -1.3029533818128183     
   8.7000000000000029E-003    -1.5656925165903068     
   9.0000000000000011E-003    -1.8483256831343127     
   9.2999999999999992E-003    -2.1427654280892847     
   9.6000000000000009E-003    -2.4378990550911892     
   9.8999999999999991E-003    -2.7198620795888595     
   1.0200000000000001E-002    -2.9720887756544485     
   1.0500000000000002E-002    -3.1760725554212579     
   1.0800000000000004E-002    -3.3123366802553478     
   1.1099999999999999E-002    -3.3617013043520472     
   1.1400000000000000E-002    -3.3067870969204307     
   1.1700000000000002E-002    -3.1338789272993450     
   1.2000000000000004E-002    -2.8346517427277531     
   1.2300000000000002E-002    -2.4075499147464678     
   1.2600000000000000E-002    -1.8595982522794885     
   1.2900000000000002E-002    -1.2063434131752184     
   1.3200000000000000E-002   -0.47219580590489352     
   1.3500000000000002E-002    0.31097930199162760     
   1.3800000000000003E-002     1.1060576393588806     
   1.4100000000000001E-002     1.8737719069765637     
   1.4400000000000000E-002     2.5775765911706756     
   1.4700000000000001E-002     3.1872084892247567     
   1.4999999999999999E-002     3.6850114197360071     
   1.5300000000000001E-002     4.0684029903737136     
   1.5600000000000003E-002     4.3542615967583496     
   1.5899999999999997E-002     4.5791048500438123     
   1.6199999999999999E-002     4.7979861712428278     
   1.6500000000000001E-002     5.0805077559989025     
   1.6800000000000002E-002     5.5033196740669919     
   1.7100000000000004E-002     6.1416470939012928     
   1.7400000000000006E-002     7.0573759736965922     
   1.7700000000000000E-002     8.2875637350005764     
   1.8000000000000002E-002     9.8345125194593130     
   1.8300000000000004E-002     11.655219585707075     
   1.8600000000000005E-002     13.659441076615057     
   1.8900000000000000E-002     15.707306855986545     
   1.9200000000000002E-002     17.617543620749338     
   1.9500000000000003E-002     19.177662752042867     
   1.9799999999999998E-002     20.161594981472685     
   2.0100000000000000E-002     20.351744714330046     
   2.0400000000000001E-002     19.559268375473792     
   2.0700000000000003E-002     17.650199049791702     
   2.0999999999999998E-002     14.560010281345960     
   2.1299999999999999E-002     10.312793557294595     
   2.1600000000000001E-002     5.0229428157015619     
   2.1900000000000003E-002    -1.1038790065830906     
   2.2200000000000004E-002    -7.7828471347051904     
   2.2500000000000006E-002    -14.669570006690098     
   2.2800000000000001E-002    -21.383977982838214     
   2.3100000000000002E-002    -27.542354312368346     
   2.3400000000000004E-002    -32.785314838181520     
   2.3699999999999999E-002    -36.807635229870428     
   2.4000000000000000E-002    -39.382838264723667     
   2.4300000000000002E-002    -40.376674282207837     
   2.4599999999999997E-002    -39.759016188149936     
   2.4900000000000005E-002    -37.599626400867251     
   2.5200000000000000E-002    -34.061114105632569     
   2.5499999999999995E-002    -29.380360450648652     
   2.5800000000000003E-002    -23.847829700333584     
   2.6099999999999998E-002    -17.783052252618994     
   2.6400000000000007E-002    -11.510546302289148     
   2.6700000000000002E-002    -5.3360518409895832     
   2.6999999999999996E-002    0.47132917749907133     
   2.7300000000000005E-002     5.6919511749224272     
   2.7600000000000000E-002     10.164668842861495     
   2.7900000000000008E-002     13.789359001982987     
   2.8200000000000003E-002     16.522330803524916     
   2.8499999999999998E-002     18.374236527880619     
   2.8800000000000006E-002     19.396542836575946     
   2.9100000000000001E-002     19.674241136441537     
   2.9400000000000003E-002     19.315962716752679     
   2.9700000000000004E-002     18.441142608880902     
   3.0000000000000006E-002     17.174884561364379     
   3.0300000000000001E-002     15.637833012086098     
   3.0600000000000002E-002     13.943769251707725     
   3.0900000000000004E-002     12.192791414544319     
   3.1199999999999999E-002     10.470813741231449     
   3.1500000000000007E-002     8.8457500364266881     
   3.1800000000000002E-002     7.3695815022145883     
   3.2099999999999997E-002     6.0759156465900830     
   3.2400000000000005E-002     4.9813484473641623     
   3.2700000000000000E-002     4.0882390998455076     
   3.3000000000000002E-002     3.3827826135592387     
   3.3300000000000003E-002     2.8432407352220634     
   3.3599999999999998E-002     2.4349808696151531     
   3.3900000000000000E-002     2.1224695885298881     
   3.4200000000000001E-002     1.8627532056543354     
   3.4500000000000003E-002     1.6185157230183149     
   3.4799999999999998E-002     1.3517112289285942     
   3.5099999999999999E-002     1.0336283370559629     
   3.5400000000000001E-002    0.64241172033430161     
   3.5699999999999996E-002    0.16436495086438996     
   3.6000000000000004E-002   -0.40024870303539017     
   3.6299999999999999E-002    -1.0460705483634978     
   3.6600000000000008E-002    -1.7536509284611452     
   3.6900000000000002E-002    -2.4989501087178829     
   3.7199999999999997E-002    -3.2490352755774325     
   3.7500000000000006E-002    -3.9674767680739258     
   3.7800000000000000E-002    -4.6180705906490500     
   3.8100000000000009E-002    -5.1610332520554838     
   3.8400000000000004E-002    -5.5666538116247342     
   3.8699999999999998E-002    -5.8049843913216783     
   3.9000000000000007E-002    -5.8605816223348768     
   3.9300000000000002E-002    -5.7236671306571010     
   3.9600000000000003E-002    -5.3993154525553040     
   3.9900000000000005E-002    -4.9030766990945445     
   4.0200000000000000E-002    -4.2603110085851608     
   4.0500000000000001E-002    -3.5093550965050344     
   4.0800000000000003E-002    -2.6906211352692364     
   4.1100000000000005E-002    -1.8538457630038465     
   4.1399999999999999E-002    -1.0449595705017531     
   4.1700000000000008E-002   -0.30920313288763634     
   4.2000000000000003E-002    0.31500182093724083     
   4.2299999999999997E-002    0.79937760463830443     
   4.2600000000000006E-002     1.1252276045215246     
   4.2900000000000001E-002     1.2879587994974402     
   4.3200000000000002E-002     1.2937593918368537     
   4.3500000000000004E-002     1.1616689147768184     
   4.3799999999999999E-002    0.91896580320171628     
   4.4100000000000000E-002    0.60081386768934875     
   4.4400000000000002E-002    0.24623109484072903     
   4.4700000000000004E-002   -0.10554404688877006     
   4.4999999999999998E-002   -0.41645743542643521     
   4.5300000000000000E-002   -0.65496963174520573     
   4.5600000000000002E-002   -0.79635512427980926     
   4.5899999999999996E-002   -0.82539750143964730     
   4.6200000000000005E-002   -0.73681841566657180     
   4.6500000000000000E-002   -0.53594537660826325     
   4.6799999999999994E-002   -0.23723231967177549     
   4.7100000000000003E-002    0.13631628741183788     
   4.7399999999999998E-002    0.55563277989233129     
   4.7700000000000006E-002    0.98808419667824898     
   4.8000000000000001E-002     1.4000630403375505     
   4.8300000000000010E-002     1.7590565662427837     
   4.8600000000000004E-002     2.0376966146101454     
   4.8899999999999999E-002     2.2139308120986674     
   4.9200000000000008E-002     2.2752645917312782     
   4.9500000000000002E-002     2.2161824142023385     
   4.9800000000000011E-002     2.0426566794242240     
   5.0100000000000006E-002     1.7663136734248188     
   5.0400000000000000E-002     1.4095830147352093     
   5.0700000000000009E-002    0.99718132009687910     
   5.1000000000000004E-002    0.56017548700569941     
   5.1299999999999998E-002    0.12840484218180725     
   5.1600000000000007E-002   -0.26799535435888056     
   5.1900000000000002E-002   -0.60247859327815056     
   5.2200000000000010E-002   -0.85457455090691037     
   5.2500000000000005E-002    -1.0075067743736770     
   5.2800000000000000E-002    -1.0560267328451733     
   5.3099999999999994E-002   -0.99745156456295581     
   5.3400000000000003E-002   -0.84085860073536645     
   5.3699999999999998E-002   -0.59895179294777345     
   5.4000000000000006E-002   -0.29201676303693308     
   5.4300000000000001E-002     5.5323262927256922E-002
   5.4599999999999996E-002    0.41718139032621909     
   5.4900000000000004E-002    0.76265799443544791     
   5.5199999999999999E-002     1.0666822618525664     
   5.5499999999999994E-002     1.3007306843441733     
   5.5800000000000002E-002     1.4458088259442867     
   5.6099999999999997E-002     1.4846499583913193     
   5.6400000000000006E-002     1.4096655862961220     
   5.6700000000000000E-002     1.2207065212161725     
   5.6999999999999995E-002    0.92539137305647445     
   5.7300000000000004E-002    0.54202913336898084     
   5.7599999999999998E-002     9.4029714472341958E-002
   5.7900000000000007E-002   -0.38642539149926680     
   5.8200000000000002E-002   -0.86493902733968187     
   5.8499999999999996E-002    -1.3052395157268670     
   5.8800000000000005E-002    -1.6710824130326838     
   5.9100000000000000E-002    -1.9333332324691259     
   5.9400000000000008E-002    -2.0675486332653072     
   5.9700000000000003E-002    -2.0607300830346720     
   6.0000000000000012E-002    -1.9105913437879805     
   6.0300000000000006E-002    -1.6256102112069850     
   6.0600000000000001E-002    -1.2279224398129422     
   6.0900000000000010E-002   -0.74610634915652663     
   6.1200000000000004E-002   -0.21976477682468193     
   6.1500000000000013E-002    0.31075807482522100     
   6.1800000000000008E-002    0.80223625632398643     
   6.2100000000000002E-002     1.2159587657064130     
   6.2399999999999997E-002     1.5198069234197236     
   6.2700000000000006E-002     1.6902978287548986     
   6.3000000000000000E-002     1.7171518836844648     
   6.3300000000000009E-002     1.5995062499362340     
   6.3600000000000004E-002     1.3510909374043638     
   6.3899999999999998E-002    0.99412067953299621     
   6.4199999999999993E-002    0.55868204642062413     
   6.4500000000000002E-002     8.1863081182084851E-002
   6.4800000000000010E-002   -0.40060801295508858     
   6.5100000000000005E-002   -0.85156840162666825     
   6.5400000000000000E-002    -1.2401379165719046     
   6.5700000000000008E-002    -1.5412401220691141     
   6.5999999999999989E-002    -1.7380992664216826     
   6.6299999999999998E-002    -1.8220834258267968     
   6.6600000000000006E-002    -1.7940925553511828     
   6.6900000000000001E-002    -1.6616377062564889     
   6.7199999999999996E-002    -1.4390765865423085     
   6.7500000000000004E-002    -1.1446591785776283     
   6.7800000000000013E-002   -0.80082937391375797     
   6.8099999999999994E-002   -0.42909814360641629     
   6.8400000000000002E-002    -5.2991744609484109E-002
   6.8700000000000011E-002    0.30816350146790283     
   6.8999999999999992E-002    0.63516125366595277     
   6.9300000000000000E-002    0.91438289654046268     
   6.9600000000000009E-002     1.1335867176910850     
   6.9900000000000004E-002     1.2865867235062944     
   7.0199999999999999E-002     1.3693726037830625     
   7.0500000000000007E-002     1.3830018466301035     
   7.0800000000000016E-002     1.3309827424082497     
   7.1099999999999997E-002     1.2214064152823836     
   7.1400000000000005E-002     1.0634474206570568     
   7.1700000000000000E-002    0.87005001406134430     
   7.1999999999999995E-002    0.65346686719159885     
   7.2300000000000003E-002    0.42815132112740750     
   7.2600000000000012E-002    0.20658881782898436     
   7.2900000000000006E-002     8.6991069118062814E-004
   7.3200000000000001E-002   -0.17937190130486147     
   7.3499999999999996E-002   -0.32665270306328409     
   7.3800000000000004E-002   -0.43675203156900616     
   7.4099999999999999E-002   -0.50731718381988911     
   7.4400000000000008E-002   -0.53976002048614080     
   7.4700000000000003E-002   -0.53706441847672226     
   7.5000000000000011E-002   -0.50360816521968021     
   7.5299999999999992E-002   -0.44709977070167572     
   7.5600000000000001E-002   -0.37285198974156719     
   7.5900000000000009E-002   -0.29020490806394067     
   7.6200000000000004E-002   -0.20467128956596384     
   7.6499999999999999E-002   -0.12463968005776746     
   7.6800000000000007E-002    -5.5390078120670261E-002
   7.7099999999999988E-002    -1.5280088532155650E-003
   7.7399999999999997E-002     3.2045840438390830E-002
   7.7700000000000005E-002     4.5019143217183685E-002
   7.8000000000000014E-002     3.5415274237516697E-002
   7.8299999999999995E-002     5.9330442325314890E-003
   7.8600000000000003E-002    -4.1590372421253588E-002
   7.8900000000000012E-002   -0.10162639302704617     
   7.9199999999999993E-002   -0.16873940647694641     
   7.9500000000000001E-002   -0.23709418558408768     
   7.9800000000000010E-002   -0.29804524757380135     
   8.0100000000000018E-002   -0.34748396241823154     
   8.0399999999999999E-002   -0.37773219162883998     
   8.0700000000000008E-002   -0.38605853909495563     
   8.1000000000000003E-002   -0.36927706501295010     
   8.1299999999999997E-002   -0.32709762378094659     
   8.1600000000000006E-002   -0.26121164493787075     
   8.1900000000000014E-002   -0.17476827881775969     
   8.2199999999999995E-002    -7.3099214457133826E-002
   8.2500000000000004E-002     3.7639434686188133E-002
   8.2799999999999999E-002    0.15064111314943579     
   8.3100000000000007E-002    0.25833309472153221     
   8.3400000000000002E-002    0.35462343531810442     
   8.3700000000000011E-002    0.43226775343422835     
   8.4000000000000005E-002    0.48777244092582772     
   8.4300000000000000E-002    0.51598459364771343     
   8.4599999999999995E-002    0.51697522628542680     
   8.4900000000000003E-002    0.48903377762772482     
   8.5199999999999998E-002    0.43533091671800483     
   8.5500000000000007E-002    0.35839501319541300     
   8.5800000000000001E-002    0.26434368045001605     
   8.6100000000000010E-002    0.15860569944558536     
   8.6399999999999991E-002     4.8927207272291634E-002
   8.6699999999999999E-002    -5.7326957710008522E-002
   8.7000000000000008E-002   -0.15291171413529570     
   8.7300000000000003E-002   -0.23131233991977512     
   8.7599999999999997E-002   -0.28749080465792809     
   8.7900000000000006E-002   -0.31759047560879050     
   8.8200000000000014E-002   -0.32102082520823705     
   8.8499999999999995E-002   -0.29767478759251415     
   8.8800000000000004E-002   -0.25118104196018576     
   8.9100000000000013E-002   -0.18608151895555528     
   8.9399999999999993E-002   -0.10806281031187641     
   8.9700000000000002E-002    -2.4441325532387308E-002
   9.0000000000000011E-002     5.8186393906915324E-002
   9.0299999999999991E-002    0.13329995350589074     
   9.0600000000000000E-002    0.19521753726121471     
   9.0900000000000009E-002    0.24031993482400910     
   9.1200000000000017E-002    0.26585291265203459     
   9.1499999999999998E-002    0.27146200056590986     
   9.1800000000000007E-002    0.25822197166447863     
   9.2100000000000001E-002    0.22858747154591996     
   9.2399999999999996E-002    0.18573263845570787     
   9.2700000000000005E-002    0.13388272862152023     
   9.3000000000000013E-002     7.7720718355639651E-002
   9.3300000000000008E-002     2.0584477913483033E-002
   9.3600000000000003E-002    -3.2567527204575536E-002
   9.3899999999999997E-002    -7.9623183304785156E-002
   9.4200000000000006E-002   -0.11764388969672385     
   9.4500000000000001E-002   -0.14474412041559054     
   9.4800000000000009E-002   -0.16111761552212059     
   9.5100000000000004E-002   -0.16546544862183699     
   9.5399999999999999E-002   -0.16019601070156045     
   9.5699999999999993E-002   -0.14514883239319895     
   9.6000000000000002E-002   -0.12388850924850373     
   9.6300000000000011E-002    -9.7898697573064172E-002
   9.6600000000000005E-002    -7.0688437212775984E-002
   9.6900000000000000E-002    -4.4901453411972853E-002
   9.7200000000000009E-002    -2.2820935466364350E-002
   9.7499999999999989E-002    -7.2535439226946996E-003
   9.7799999999999998E-002     7.8174188717043507E-004
   9.8100000000000007E-002     9.1078640967934624E-005
   9.8400000000000015E-002    -9.0665315802255404E-003
   9.8699999999999996E-002    -2.5382018442775336E-002
   9.9000000000000005E-002    -4.7531253892963525E-002
   9.9300000000000013E-002    -7.1851899157327329E-002
   9.9599999999999994E-002    -9.6884056257752954E-002
   9.9900000000000003E-002   -0.11814159967719631     
  0.10020000000000001        -0.13335407377508413     
  0.10049999999999999        -0.14029745731490290     
  0.10080000000000000        -0.13620479063927610     
  0.10110000000000001        -0.12166688434856524     
  0.10140000000000000         -9.5171158533558370E-002
  0.10170000000000000         -5.8778637625795091E-002
  0.10200000000000001         -1.3669254089839562E-002
  0.10230000000000002          3.7272753601929193E-002
  0.10260000000000000          9.1304722661833662E-002
  0.10290000000000001         0.14571371637420999     
  0.10320000000000000         0.19582122356375073     
  0.10350000000000001         0.24062160522501386     
  0.10380000000000000         0.27531863829555531     
  0.10410000000000001         0.29989864057585458     
  0.10440000000000001         0.31108515371357370     
  0.10470000000000000         0.30905780572110408     
  0.10500000000000000         0.29397130123925624     
  0.10530000000000000         0.26612844060824237     
  0.10560000000000000         0.22848013299085734     
  0.10590000000000001         0.18160031927689801     
  0.10620000000000000         0.13000008676046260     
  0.10650000000000001          7.5538185718806425E-002
  0.10679999999999999          2.2209857172162180E-002
  0.10710000000000000         -2.7550644775281970E-002
  0.10740000000000001         -7.1326917768035542E-002
  0.10770000000000000        -0.10695631108775655     
  0.10800000000000000        -0.13295188393982599     
  0.10830000000000001        -0.14964302688196685     
  0.10859999999999999        -0.15635248601787960     
  0.10890000000000000        -0.15420818925319588     
  0.10920000000000001        -0.14453188099807493     
  0.10950000000000001        -0.12856113501016170     
  0.10979999999999999        -0.10812912088238733     
  0.11009999999999999         -8.4721982652184419E-002
  0.11040000000000001         -5.9934600117258194E-002
  0.11070000000000001         -3.5199618109113789E-002
  0.11100000000000000         -1.1765930738039679E-002
  0.11130000000000000          9.1120489047309561E-003
  0.11160000000000002          2.6350125738014672E-002
  0.11190000000000001          3.9010714735389460E-002
  0.11220000000000001          4.6231582467184264E-002
  0.11250000000000000          4.7113297425073919E-002
  0.11280000000000000          4.1591066053268996E-002
  0.11309999999999999          2.8906286182760796E-002
  0.11340000000000001          1.0026076917021428E-002
  0.11369999999999998         -1.4638254959210135E-002
  0.11400000000000000         -4.4286397800790599E-002
  0.11430000000000000         -7.6774601333037512E-002
  0.11460000000000002        -0.11062681642927392     
  0.11489999999999999        -0.14492660640692573     
  0.11520000000000001        -0.17651069111537859     
  0.11550000000000001        -0.20631457166184780     
  0.11580000000000000        -0.23100246769009636     
  0.11609999999999999        -0.25224384674574846     
  0.11640000000000002        -0.26880697070435522     
  0.11670000000000001        -0.28103331284463423     
  0.11700000000000001        -0.28982117425457643     
  0.11730000000000000        -0.29501690721090662     
  0.11760000000000000        -0.29754888199508067     
  0.11789999999999999        -0.29693946002554999     
  0.11820000000000001        -0.29434038483311786     
  0.11850000000000001        -0.28801084978929709     
  0.11880000000000000        -0.27920818395240521     
  0.11910000000000000        -0.26669152184379352     
  0.11940000000000002        -0.25038725445828591     
  0.11970000000000001        -0.23071176783253367     
  0.12000000000000001        -0.20665102932243629     
  0.12030000000000000        -0.18027963905966016     
  0.12060000000000000        -0.15047879630185282     
  0.12089999999999999        -0.11895945064456370     
  0.12119999999999999         -8.6245457433696923E-002
  0.12150000000000001         -5.2559090163793558E-002
  0.12180000000000001         -1.9001439677607604E-002
  0.12210000000000000          1.3827330134025057E-002
  0.12239999999999999          4.5918111381052437E-002
  0.12270000000000002          7.6530230460514673E-002
  0.12300000000000001         0.10605051191511133     
  0.12330000000000001         0.13388863977934462     
  0.12360000000000000         0.16031478911652267     
  0.12390000000000000         0.18546223548097956     
  0.12419999999999999         0.20978775275664255     
  0.12450000000000001         0.23342151468170691     
  0.12480000000000001         0.25706282962525318     
  0.12509999999999999         0.28133228894621681     
  0.12540000000000001         0.30633827979451561     
  0.12570000000000003         0.33294435680497853     
  0.12600000000000000         0.36004191325936707     
  0.12630000000000002         0.38849644963418761     
  0.12659999999999999         0.41565385664468868     
  0.12690000000000001         0.44127838541405190     
  0.12719999999999998         0.46259377088927467     
  0.12750000000000000         0.47759612330201673     
  0.12780000000000002         0.48391113136850161     
  0.12809999999999999         0.47970804900629127     
  0.12840000000000001         0.46381852584727601     
  0.12869999999999998         0.43480568851748791     
  0.12900000000000000         0.39415329885330780     
  0.12930000000000003         0.34199624923695915     
  0.12959999999999999         0.28187312415643268     
  0.12990000000000002         0.21598043086918342     
  0.13019999999999998         0.14855617936330234     
  0.13050000000000000          8.3130430542794870E-002
  0.13080000000000003          2.2678616852837657E-002
  0.13109999999999999         -2.8498908412969100E-002
  0.13140000000000002         -7.0052581506649891E-002
  0.13169999999999998         -9.8598748509910988E-002
  0.13200000000000001        -0.11581061412912896     
  0.13229999999999997        -0.12104158060193318     
  0.13260000000000000        -0.11661049043508892     
  0.13290000000000002        -0.10460132867385329     
  0.13319999999999999         -8.7173319684893461E-002
  0.13350000000000001         -6.7587944740851572E-002
  0.13380000000000003         -4.7960077414207422E-002
  0.13410000000000000         -3.1508679731464304E-002
  0.13440000000000002         -1.9107441031549544E-002
  0.13469999999999999         -1.2622372041364014E-002
  0.13500000000000001         -1.2734969741446325E-002
  0.13529999999999998         -1.8499182209475551E-002
  0.13560000000000000         -3.0226674634786850E-002
  0.13590000000000002         -4.5426484334056640E-002
  0.13619999999999999         -6.3204085539765850E-002
  0.13650000000000001         -8.0553909111328120E-002
  0.13680000000000003         -9.6226083039296015E-002
  0.13710000000000000        -0.10695594697029653     
  0.13740000000000002        -0.11204819276502236     
  0.13769999999999999        -0.10989005621319978     
  0.13800000000000001         -9.9420504884223951E-002
  0.13829999999999998         -8.1655578892226147E-002
  0.13860000000000000         -5.6828229416042916E-002
  0.13890000000000002         -2.5995129407027768E-002
  0.13919999999999999          7.9007210224494809E-003
  0.13950000000000001          4.4132246191362454E-002
  0.13979999999999998          7.9915488848065597E-002
  0.14010000000000000         0.11317513185162684     
  0.14040000000000002         0.14305167183644790     
  0.14069999999999999         0.16760864398276998     
  0.14100000000000001         0.18667917538105258     
  0.14130000000000004         0.19942187604218092     
  0.14160000000000000         0.20600227328667042     
  0.14189999999999997         0.20617080696532952     
  0.14219999999999999         0.20038893371021113     
  0.14250000000000002         0.18888114086146918     
  0.14279999999999998         0.17113479286822561     
  0.14310000000000000         0.14849477068254269     
  0.14339999999999997         0.11942623329571661     
  0.14369999999999999          8.6018617621628157E-002
  0.14400000000000002          4.7194943921667461E-002
  0.14429999999999998          4.4320884498574419E-003
  0.14460000000000001         -4.1485670577496150E-002
  0.14490000000000003         -9.0084847667704498E-002
  0.14520000000000000        -0.13858034648563081     
  0.14550000000000002        -0.18722201259063451     
  0.14579999999999999        -0.23277624148470122     
  0.14610000000000001        -0.27484064965552224     
  0.14640000000000003        -0.31137033520002522     
  0.14670000000000000        -0.34152139321982711     
  0.14699999999999996        -0.36460933729181594     
  0.14729999999999999        -0.37977720417590410     
  0.14760000000000001        -0.38725774332709623     
  0.14789999999999998        -0.38710424814110622     
  0.14820000000000000        -0.38015128931377651     