  -1.4999999999999999E-002     0.0000000000000000     
  -1.4700000000000000E-002     0.0000000000000000     
  -1.4400000000000000E-002     0.0000000000000000     
  -1.4100000000000000E-002     0.0000000000000000     
  -1.3800000000000000E-002     0.0000000000000000     
  -1.3500000000000000E-002     0.0000000000000000     
  -1.3200000000000000E-002     0.0000000000000000     
  -1.2899999999999998E-002     0.0000000000000000     
  -1.2600000000000000E-002     0.0000000000000000     
  -1.2299999999999998E-002     0.0000000000000000     
  -1.2000000000000000E-002     0.0000000000000000     
  -1.1699999999999999E-002     0.0000000000000000     
  -1.1399999999999999E-002     0.0000000000000000     
  -1.1099999999999999E-002     0.0000000000000000     
  -1.0799999999999999E-002     0.0000000000000000     
  -1.0499999999999999E-002     0.0000000000000000     
  -1.0199999999999999E-002     0.0000000000000000     
  -9.8999999999999991E-003     0.0000000000000000     
  -9.5999999999999992E-003     0.0000000000000000     
  -9.2999999999999992E-003     0.0000000000000000     
  -8.9999999999999993E-003     0.0000000000000000     
  -8.6999999999999994E-003     0.0000000000000000     
  -8.3999999999999995E-003     0.0000000000000000     
  -8.0999999999999996E-003     0.0000000000000000     
  -7.7999999999999988E-003     0.0000000000000000     
  -7.4999999999999997E-003     0.0000000000000000     
  -7.1999999999999998E-003     0.0000000000000000     
  -6.8999999999999981E-003     0.0000000000000000     
  -6.5999999999999982E-003     0.0000000000000000     
  -6.3000000000000000E-003     0.0000000000000000     
  -6.0000000000000001E-003     0.0000000000000000     
  -5.6999999999999985E-003     0.0000000000000000     
  -5.3999999999999986E-003     0.0000000000000000     
  -5.1000000000000004E-003     0.0000000000000000     
  -4.7999999999999987E-003     0.0000000000000000     
  -4.5000000000000005E-003     0.0000000000000000     
  -4.1999999999999989E-003     0.0000000000000000     
  -3.8999999999999990E-003     0.0000000000000000     
  -3.5999999999999990E-003     0.0000000000000000     
  -3.2999999999999991E-003     0.0000000000000000     
  -2.9999999999999992E-003     0.0000000000000000     
  -2.6999999999999993E-003     0.0000000000000000     
  -2.3999999999999994E-003     0.0000000000000000     
  -2.0999999999999977E-003     0.0000000000000000     
  -1.7999999999999995E-003     0.0000000000000000     
  -1.4999999999999979E-003     0.0000000000000000     
  -1.1999999999999997E-003     0.0000000000000000     
  -8.9999999999999976E-004     0.0000000000000000     
  -5.9999999999999810E-004     0.0000000000000000     
  -2.9999999999999992E-004     0.0000000000000000     
   0.0000000000000000          0.0000000000000000     
   3.0000000000000165E-004     0.0000000000000000     
   5.9999999999999984E-004     0.0000000000000000     
   9.0000000000000149E-004     0.0000000000000000     
   1.2000000000000031E-003     0.0000000000000000     
   1.5000000000000013E-003     0.0000000000000000     
   1.8000000000000030E-003     0.0000000000000000     
   2.1000000000000012E-003     0.0000000000000000     
   2.3999999999999994E-003     0.0000000000000000     
   2.7000000000000010E-003     0.0000000000000000     
   2.9999999999999992E-003     0.0000000000000000     
   3.3000000000000008E-003     0.0000000000000000     
   3.6000000000000025E-003     0.0000000000000000     
   3.9000000000000007E-003     0.0000000000000000     
   4.2000000000000023E-003     0.0000000000000000     
   4.5000000000000005E-003     0.0000000000000000     
   4.7999999999999987E-003     0.0000000000000000     
   5.1000000000000004E-003     0.0000000000000000     
   5.4000000000000020E-003     0.0000000000000000     
   5.7000000000000037E-003     0.0000000000000000     
   5.9999999999999984E-003     0.0000000000000000     
   6.3000000000000000E-003     0.0000000000000000     
   6.6000000000000017E-003     0.0000000000000000     
   6.9000000000000034E-003     0.0000000000000000     
   7.2000000000000015E-003     0.0000000000000000     
   7.5000000000000032E-003     0.0000000000000000     
   7.8000000000000014E-003     0.0000000000000000     
   8.0999999999999996E-003     0.0000000000000000     
   8.4000000000000012E-003     0.0000000000000000     
   8.7000000000000029E-003     0.0000000000000000     
   9.0000000000000011E-003     0.0000000000000000     
   9.2999999999999992E-003     0.0000000000000000     
   9.6000000000000009E-003     0.0000000000000000     
   9.8999999999999991E-003     0.0000000000000000     
   1.0200000000000001E-002     0.0000000000000000     
   1.0500000000000002E-002     0.0000000000000000     
   1.0800000000000004E-002     0.0000000000000000     
   1.1099999999999999E-002     0.0000000000000000     
   1.1400000000000000E-002     0.0000000000000000     
   1.1700000000000002E-002     0.0000000000000000     
   1.2000000000000004E-002     0.0000000000000000     
   1.2300000000000002E-002     0.0000000000000000     
   1.2600000000000000E-002     0.0000000000000000     
   1.2900000000000002E-002     0.0000000000000000     
   1.3200000000000000E-002     0.0000000000000000     
   1.3500000000000002E-002     0.0000000000000000     
   1.3800000000000003E-002     0.0000000000000000     
   1.4100000000000001E-002     0.0000000000000000     
   1.4400000000000000E-002     0.0000000000000000     
   1.4700000000000001E-002     0.0000000000000000     
   1.4999999999999999E-002     0.0000000000000000     
   1.5300000000000001E-002     0.0000000000000000     
   1.5600000000000003E-002     0.0000000000000000     
   1.5899999999999997E-002     0.0000000000000000     
   1.6199999999999999E-002     0.0000000000000000     
   1.6500000000000001E-002     0.0000000000000000     
   1.6800000000000002E-002     0.0000000000000000     
   1.7100000000000004E-002     0.0000000000000000     
   1.7400000000000006E-002     0.0000000000000000     
   1.7700000000000000E-002     0.0000000000000000     
   1.8000000000000002E-002     0.0000000000000000     
   1.8300000000000004E-002     0.0000000000000000     
   1.8600000000000005E-002     0.0000000000000000     
   1.8900000000000000E-002     0.0000000000000000     
   1.9200000000000002E-002     0.0000000000000000     
   1.9500000000000003E-002     0.0000000000000000     
   1.9799999999999998E-002     0.0000000000000000     
   2.0100000000000000E-002     0.0000000000000000     
   2.0400000000000001E-002     0.0000000000000000     
   2.0700000000000003E-002     0.0000000000000000     
   2.0999999999999998E-002     0.0000000000000000     
   2.1299999999999999E-002     0.0000000000000000     
   2.1600000000000001E-002     0.0000000000000000     
   2.1900000000000003E-002     0.0000000000000000     
   2.2200000000000004E-002     0.0000000000000000     
   2.2500000000000006E-002     0.0000000000000000     
   2.2800000000000001E-002     0.0000000000000000     
   2.3100000000000002E-002     0.0000000000000000     
   2.3400000000000004E-002     4.0073518051849823E-044
   2.3699999999999999E-002     2.6765714357843559E-044
   2.4000000000000000E-002    -2.7523656914973727E-042
   2.4300000000000002E-002    -1.4727054484559591E-036
   2.4599999999999997E-002    -1.2619266827675214E-035
   2.4900000000000005E-002     1.0570889302979897E-034
   2.5200000000000000E-002    -5.0190876326185227E-034
   2.5499999999999995E-002    -8.6923406129273269E-034
   2.5800000000000003E-002     7.4992466449914701E-033
   2.6099999999999998E-002    -2.0652209094376764E-032
   2.6400000000000007E-002     3.8286178855019767E-032
   2.6700000000000002E-002    -5.2419362998653741E-032
   2.6999999999999996E-002     7.4213828977205988E-033
   2.7300000000000005E-002     3.3517201391475276E-031
   2.7600000000000000E-002    -1.7772078312136844E-030
   2.7900000000000008E-002     6.6130260802200049E-030
   2.8200000000000003E-002    -2.0505754416630503E-029
   2.8499999999999998E-002     5.5222920370991102E-029
   2.8800000000000006E-002    -1.2915368415472961E-028
   2.9100000000000001E-002     2.5257642943868441E-028
   2.9400000000000003E-002    -3.5974802675439816E-028
   2.9700000000000004E-002     1.0423070943161900E-028
   3.0000000000000006E-002     1.6092584700851254E-027
   3.0300000000000001E-002    -7.3961540996574939E-027
   3.0600000000000002E-002     2.1919035197215715E-026
   3.0900000000000004E-002    -4.9825604040858300E-026
   3.1199999999999999E-002     8.5101227067595193E-026
   3.1500000000000007E-002    -8.1767188776239299E-026
   3.1800000000000002E-002    -1.0013687254339683E-025
   3.2099999999999997E-002     7.4501434682469055E-025
   3.2400000000000005E-002    -2.2029323040318078E-024
   3.2700000000000000E-002     4.3971063753744687E-024
   3.3000000000000002E-002    -5.5777411209504320E-024
   3.3300000000000003E-002     5.3905364068925662E-025
   3.3599999999999998E-002     1.9545432067441170E-023
   3.3900000000000000E-002    -6.0324433014665372E-023
   3.4200000000000001E-002     1.0483778838605847E-022
   3.4500000000000003E-002    -8.9848134211664525E-023
   3.4799999999999998E-002    -7.1585639340805404E-023
   3.5099999999999999E-002     3.1823150848881222E-022
   3.5400000000000001E-002    -7.6391358329675290E-023
   3.5699999999999996E-002    -1.8761157784607154E-021
   3.6000000000000004E-002     5.7384467984452299E-021
   3.6299999999999999E-002    -4.3271843387870689E-021
   3.6600000000000008E-002    -2.8976851405242546E-020
   3.6900000000000002E-002     1.4554813764199744E-019
   3.7199999999999997E-002    -3.7129571276924288E-019
   3.7500000000000006E-002     4.9893310466889214E-019
   3.7800000000000000E-002     3.6151819251199073E-019
   3.8100000000000009E-002    -4.1940538010889762E-018
   3.8400000000000004E-002     1.3017827745541150E-017
   3.8699999999999998E-002    -2.3094286894813756E-017
   3.9000000000000007E-002     1.1391933931708163E-017
   3.9300000000000002E-002     7.8626977386704644E-017
   3.9600000000000003E-002    -3.1650308870760262E-016
   3.9900000000000005E-002     6.5915348518540473E-016
   4.0200000000000000E-002    -6.6764329942572073E-016
   4.0500000000000001E-002    -8.2661071606266980E-016
   4.0800000000000003E-002     5.6738575427530298E-015
   4.1100000000000005E-002    -1.5030720642400907E-014
   4.1399999999999999E-002     2.4436164593615087E-014
   4.1700000000000008E-002    -1.0351199665096486E-014
   4.2000000000000003E-002    -9.4504338538297051E-014
   4.2299999999999997E-002     3.9941097017985476E-013
   4.2600000000000006E-002    -8.5487379456795787E-013
   4.2900000000000001E-002     5.2639739784161585E-013
   4.3200000000000002E-002     3.4492363007929308E-012
   4.3500000000000004E-002    -1.4049332693899886E-011
   4.3799999999999999E-002     2.1178516878965816E-011
   4.4100000000000000E-002     2.4481304161963200E-011
   4.4400000000000002E-002    -1.9056977251264027E-010
   4.4700000000000004E-002     3.2481308739085558E-010
   4.4999999999999998E-002     3.6761220729482343E-010
   4.5300000000000000E-002    -2.6034416214987566E-009
   4.5600000000000002E-002     2.7649340803691470E-009
   4.5899999999999996E-002     9.7931736230919920E-009
   4.6200000000000005E-002    -2.9030785127763076E-008
   4.6500000000000000E-002    -2.0136459079103116E-008
   4.6799999999999994E-002     1.6243699989174814E-007
   4.7100000000000003E-002    -2.8357096069634113E-008
   4.7399999999999998E-002    -8.0384187189729661E-007
   4.7700000000000006E-002     1.1681057128714947E-006
   4.8000000000000001E-002     1.1135979000021908E-005
   4.8300000000000010E-002     2.8024927168926268E-005
   4.8600000000000004E-002     4.4160514424414515E-005
   4.8899999999999999E-002     5.8167314273098160E-005
   4.9200000000000008E-002     7.9957831598148396E-005
   4.9500000000000002E-002     1.1961550324074160E-004
   4.9800000000000011E-002     1.8245653612266609E-004
   5.0100000000000006E-002     2.7602738592910923E-004
   5.0400000000000000E-002     4.1173729248296218E-004
   5.0700000000000009E-002     6.0444451727122291E-004
   5.1000000000000004E-002     8.7713017225381196E-004
   5.1299999999999998E-002     1.2561489980917053E-003
   5.1600000000000007E-002     1.7641842858590409E-003
   5.1900000000000002E-002     2.4318161275012099E-003
   5.2200000000000010E-002     3.3029377563229367E-003
   5.2500000000000005E-002     4.4119645677375679E-003
   5.2800000000000000E-002     5.7698063054402683E-003
   5.3099999999999994E-002     7.3772266536477997E-003
   5.3400000000000003E-002     9.2240932900890058E-003
   5.3699999999999998E-002     1.1257886608412688E-002
   5.4000000000000006E-002     1.3358299291247201E-002
   5.4300000000000001E-002     1.5335889154631169E-002
   5.4599999999999996E-002     1.6924827873348522E-002
   5.4900000000000004E-002     1.7759445617613338E-002
   5.5199999999999999E-002     1.7368698065107602E-002
   5.5499999999999994E-002     1.5196937691759369E-002
   5.5800000000000002E-002     1.0612035835940494E-002
   5.6099999999999997E-002     2.9282033566887973E-003
   5.6400000000000006E-002    -8.5102280534680250E-003
   5.6700000000000000E-002    -2.4239459437273216E-002
   5.6999999999999995E-002    -4.4591563631370915E-002
   5.7300000000000004E-002    -6.9566799545592528E-002
   5.7599999999999998E-002    -9.8718737709685991E-002
   5.7900000000000007E-002   -0.13105888354646381     
   5.8200000000000002E-002   -0.16493460146543723     
   5.8499999999999996E-002   -0.19794606695833811     
   5.8800000000000005E-002   -0.22702767910513935     
   5.9100000000000000E-002   -0.24861537825520263     
   5.9400000000000008E-002   -0.25873764741808997     
   5.9700000000000003E-002   -0.25326394440894434     
   6.0000000000000012E-002   -0.22836391092053887     
   6.0300000000000006E-002   -0.18095290235588041     
   6.0600000000000001E-002   -0.10913608709253145     
   6.0900000000000010E-002    -1.2614839341245793E-002
   6.1200000000000004E-002    0.10691741615980423     
   6.1500000000000013E-002    0.24551464062448808     
   6.1800000000000008E-002    0.39695101076146011     
   6.2100000000000002E-002    0.55283622679096678     
   6.2399999999999997E-002    0.70306561782680477     
   6.2700000000000006E-002    0.83645264397822217     
   6.3000000000000000E-002    0.94147745622395806     
   6.3300000000000009E-002     1.0073141823655503     
   6.3600000000000004E-002     1.0248052841857280     
   6.3899999999999998E-002    0.98744455723878144     
   6.4199999999999993E-002    0.89222131135835048     
   6.4500000000000002E-002    0.74008391601494261     
   6.4800000000000010E-002    0.53628342111110616     
   6.5100000000000005E-002    0.29028188493100582     
   6.5400000000000000E-002     1.5063381895556411E-002
   6.5700000000000008E-002   -0.27349045314776543     
   6.5999999999999989E-002   -0.55792419916781477     
   6.6299999999999998E-002   -0.82039688250843579     
   6.6600000000000006E-002    -1.0440504324987443     
   6.6900000000000001E-002    -1.2145149443729308     
   6.7199999999999996E-002    -1.3207236240478617     
   6.7500000000000004E-002    -1.3560279311385968     
   6.7800000000000013E-002    -1.3185951420375253     
   6.8099999999999994E-002    -1.2114010782322027     
   6.8400000000000002E-002    -1.0421478517079596     
   6.8700000000000011E-002   -0.82233415188344638     
   6.8999999999999992E-002   -0.56657354724675058     
   6.9300000000000000E-002   -0.29146783832211365     
   6.9600000000000009E-002    -1.4291337470162938E-002
   6.9900000000000004E-002    0.24796194879249461     
   7.0199999999999999E-002    0.47986741903515179     
   7.0500000000000007E-002    0.66831849641606655     
   7.0800000000000016E-002    0.80310587415686285     
   7.1099999999999997E-002    0.87764326886537380     
   7.1400000000000005E-002    0.88882146397227246     
   7.1700000000000000E-002    0.83723632713588114     
   7.1999999999999995E-002    0.72701124790568117     
   7.2300000000000003E-002    0.56515418273771956     
   7.2600000000000012E-002    0.36152972991007315     
   7.2900000000000006E-002    0.12805735776567875     
   7.3200000000000001E-002   -0.12204728026440975     
   7.3499999999999996E-002   -0.37454380792299863     
   7.3800000000000004E-002   -0.61526541588278427     
   7.4099999999999999E-002   -0.83073208924910003     
   7.4400000000000008E-002    -1.0086306114826229     
   7.4700000000000003E-002    -1.1389060963931297     
   7.5000000000000011E-002    -1.2141360969238786     
   7.5299999999999992E-002    -1.2299635137516178     
   7.5600000000000001E-002    -1.1857198210846405     
   7.5900000000000009E-002    -1.0840699426217115     
   7.6200000000000004E-002   -0.93120340338821672     
   7.6499999999999999E-002   -0.73646513855238982     
   7.6800000000000007E-002   -0.51123623764122361     
   7.7099999999999988E-002   -0.26847212751027921     
   7.7399999999999997E-002    -2.1546212640199548E-002
   7.7700000000000005E-002    0.21687455160215563     
   7.8000000000000014E-002    0.43575598979713742     
   7.8299999999999995E-002    0.62679217986152680     
   7.8600000000000003E-002    0.78452865623559953     
   7.8900000000000012E-002    0.90702448314520845     
   7.9199999999999993E-002    0.99574212002733387     
   7.9500000000000001E-002     1.0546287057680319     
   7.9800000000000010E-002     1.0897538407219209     
   8.0100000000000018E-002     1.1082269879696420     
   8.0399999999999999E-002     1.1167866910650879     
   8.0700000000000008E-002     1.1212544161362419     
   8.1000000000000003E-002     1.1250388337276560     
   8.1299999999999997E-002     1.1290332982564573     
   8.1600000000000006E-002     1.1313121027915325     
   8.1900000000000014E-002     1.1269739577026217     
   8.2199999999999995E-002     1.1093837931638890     
   8.2500000000000004E-002     1.0706253972478408     
   8.2799999999999999E-002     1.0027385699782516     
   8.3100000000000007E-002    0.89932886531664669     
   8.3400000000000002E-002    0.75602142183050325     
   8.3700000000000011E-002    0.57219658951317742     
   8.4000000000000005E-002    0.35098793335085499     
   8.4300000000000000E-002     9.9266885454703024E-002
   8.4599999999999995E-002   -0.17182674464702261     
   8.4900000000000003E-002   -0.44882749303455716     
   8.5199999999999998E-002   -0.71644399699982919     
   8.5500000000000007E-002   -0.95874283288779694     
   8.5800000000000001E-002    -1.1615308235955539     
   8.6100000000000010E-002    -1.3127331412967709     
   8.6399999999999991E-002    -1.4039877314115068     
   8.6699999999999999E-002    -1.4316104307674209     
   8.7000000000000008E-002    -1.3962641622646321     
   8.7300000000000003E-002    -1.3033191850433663     
   8.7599999999999997E-002    -1.1622202123577370     
   8.7900000000000006E-002   -0.98490378939434553     
   8.8200000000000014E-002   -0.78515831784092982     
   8.8499999999999995E-002   -0.57707326248068647     
   8.8800000000000004E-002   -0.37357603610824636     
   8.9100000000000013E-002   -0.18552539765291873     
   8.9399999999999993E-002    -2.0757124494319414E-002
   8.9700000000000002E-002    0.11623254990740531     
   9.0000000000000011E-002    0.22433878083382838     
   9.0299999999999991E-002    0.30547919305856941     
   9.0600000000000000E-002    0.36404909998518359     
   9.0900000000000009E-002    0.40572752770779952     
   9.1200000000000017E-002    0.43680756431272150     
   9.1499999999999998E-002    0.46329574840784088     
   9.1800000000000007E-002    0.48960011171261159     
   9.2100000000000001E-002    0.51822869838264762     
   9.2399999999999996E-002    0.54972504309182824     
   9.2700000000000005E-002    0.58211414618293988     
   9.3000000000000013E-002    0.61156646886472987     
   9.3300000000000008E-002    0.63266114759003067     
   9.3600000000000003E-002    0.63889924994219471     
   9.3899999999999997E-002    0.62416724666551848     
   9.4200000000000006E-002    0.58270250133102497     
   9.4500000000000001E-002    0.50995592813879842     
   9.4800000000000009E-002    0.40369077309428253     
   9.5100000000000004E-002    0.26339255901255149     
   9.5399999999999999E-002     9.1249782054623516E-002
   9.5699999999999993E-002   -0.10819874638031551     
   9.6000000000000002E-002   -0.32892923920097883     
   9.6300000000000011E-002   -0.56269555070472788     
   9.6600000000000005E-002   -0.80047337402810359     
   9.6900000000000000E-002    -1.0329003096119966     
   9.7200000000000009E-002    -1.2501098819554406     
   9.7499999999999989E-002    -1.4431877992285960     
   9.7799999999999998E-002    -1.6040082795780422     
   9.8100000000000007E-002    -1.7253194646375603     
   9.8400000000000015E-002    -1.8016577541518173     
   9.8699999999999996E-002    -1.8288635785345912     
   9.9000000000000005E-002    -1.8041923823862638     
   9.9300000000000013E-002    -1.7266248069366679     
   9.9599999999999994E-002    -1.5965482824379396     
   9.9900000000000003E-002    -1.4158085262584301     
  0.10020000000000001         -1.1875916448964186     
  0.10049999999999999        -0.91650829604842143     
  0.10080000000000000        -0.60864912055691134     
  0.10110000000000001        -0.27132328678721712     
  0.10140000000000000          8.7173192420344506E-002
  0.10170000000000000         0.45712571396403240     
  0.10200000000000001         0.82828037172332403     
  0.10230000000000002          1.1896320325715157     
  0.10260000000000000          1.5302279856296606     
  0.10290000000000001          1.8393388585994128     
  0.10320000000000000          2.1066951291120093     
  0.10350000000000001          2.3236722435802823     
  0.10380000000000000          2.4829894948557989     
  0.10410000000000001          2.5794946576184157     
  0.10440000000000001          2.6107208147108785     
  0.10470000000000000          2.5760244746359362     
  0.10500000000000000          2.4780265726037887     
  0.10530000000000000          2.3216084905091612     
  0.10560000000000000          2.1135241498795487     
  0.10590000000000001          1.8629513542844469     
  0.10620000000000000          1.5799338439565624     
  0.10650000000000001          1.2756827755247944     
  0.10679999999999999         0.96171769986106836     
  0.10710000000000000         0.64887950985022247     
  0.10740000000000001         0.34785099649899875     
  0.10770000000000000          6.7541452265435273E-002
  0.10800000000000000        -0.18445454489785737     
  0.10830000000000001        -0.40204259181170987     
  0.10859999999999999        -0.58179472832330381     
  0.10890000000000000        -0.72166900373848775     
  0.10920000000000001        -0.82123611590096179     
  0.10950000000000001        -0.88275078885067504     
  0.10979999999999999        -0.90888515882584975     
  0.11009999999999999        -0.90405628761984869     
  0.11040000000000001        -0.87401828793569492     
  0.11070000000000001        -0.82404760194966986     
  0.11100000000000000        -0.76076666285068750     
  0.11130000000000000        -0.69089708619440671     
  0.11160000000000002        -0.62003407968898472     
  0.11190000000000001        -0.55472253052783760     
  0.11220000000000001        -0.50032459190938039     
  0.11250000000000000        -0.46142764597807828     
  0.11280000000000000        -0.44286542007680929     
  0.11309999999999999        -0.44757910565566278     
  0.11340000000000001        -0.47788630996357168     
  0.11369999999999998        -0.53551756388904037     
  0.11400000000000000        -0.62003390948425108     
  0.11430000000000000        -0.73011665324281771     
  0.11460000000000002        -0.86255137623968292     
  0.11489999999999999         -1.0118251856603138     
  0.11520000000000001         -1.1709687487608984     
  0.11550000000000001         -1.3306003543496456     
  0.11580000000000000         -1.4795550992208641     
  0.11609999999999999         -1.6056223760840984     
  0.11640000000000002         -1.6957594970011074     
  0.11670000000000001         -1.7371509869084798     
  0.11700000000000001         -1.7186766460220677     
  0.11730000000000000         -1.6321391668653442     
  0.11760000000000000         -1.4724083780116426     
  0.11789999999999999         -1.2399565865685782     
  0.11820000000000001        -0.94059363591406342     
  0.11850000000000001        -0.58508454193278159     
  0.11880000000000000        -0.19009672982975201     
  0.11910000000000000         0.22347996749004503     
  0.11940000000000002         0.63273821883596626     
  0.11970000000000001          1.0130367048906901     
  0.12000000000000001          1.3413890290252446     
  0.12030000000000000          1.5980810745799194     
  0.12060000000000000          1.7679268899295273     
  0.12089999999999999          1.8427316709745296     
  0.12119999999999999          1.8211313057482132     
  0.12150000000000001          1.7083856658173266     
  0.12180000000000001          1.5170338990045105     
  0.12210000000000000          1.2643547954353902     
  0.12239999999999999         0.97061333785315984     
  0.12270000000000002         0.65833626666744061     
  0.12300000000000001         0.34927945555170703     
  0.12330000000000001          6.2573424727520185E-002
  0.12360000000000000        -0.18556944498962596     
  0.12390000000000000        -0.38357235955853086     
  0.12419999999999999        -0.52460776353366734     
  0.12450000000000001        -0.60599873807739357     
  0.12480000000000001        -0.62901745467189496     
  0.12509999999999999        -0.59780017766464977     
  0.12540000000000001        -0.51830427213780528     
  0.12570000000000003        -0.39772783304279968     
  0.12600000000000000        -0.24341184309194766     
  0.12630000000000002         -6.2986113863102891E-002
  0.12659999999999999         0.13623890478553760     
  0.12690000000000001         0.34693932183469095     
  0.12719999999999998         0.56131254686803056     
  0.12750000000000000         0.77103309274744913     
  0.12780000000000002         0.96706465695404564     
  0.12809999999999999          1.1393222533904099     
  0.12840000000000001          1.2772762449309965     
  0.12869999999999998          1.3705316414574220     
  0.12900000000000000          1.4093333089576852     
  0.12930000000000003          1.3861103848022081     
  0.12959999999999999          1.2960180845065161     
  0.12990000000000002          1.1379186749077119     
  0.13019999999999998         0.91542449519274605     
  0.13050000000000000         0.63670960715073655     
  0.13080000000000003         0.31471942402282338     
  0.13109999999999999         -3.3580378784363756E-002
  0.13140000000000002        -0.38871913601687247     
  0.13169999999999998        -0.72931574216872719     
  0.13200000000000001         -1.0341963520866722     
  0.13229999999999997         -1.2847528131979735     
  0.13260000000000000         -1.4650930974785195     
  0.13290000000000002         -1.5644479572091954     
  0.13319999999999999         -1.5780652333065002     
  0.13350000000000001         -1.5070594137042086     
  0.13380000000000003         -1.3588535412783678     
  0.13410000000000000         -1.1464428587273061     
  0.13440000000000002        -0.88729164590087639     
  0.13469999999999999        -0.60247133600476555     
  0.13500000000000001        -0.31438498985669577     
  0.13529999999999998         -4.5560521350493183E-002
  0.13560000000000000         0.18255349157035561     
  0.13590000000000002         0.35157878796320624     
  0.13619999999999999         0.44756738582774869     
  0.13650000000000001         0.46105686951073410     
  0.13680000000000003         0.38821561408615252     
  0.13710000000000000         0.23137717112396436     
  0.13740000000000002         -1.8510235495606605E-003
  0.13769999999999999        -0.29810854630326344     
  0.13800000000000001        -0.63918774168939541     
  0.13829999999999998         -1.0031813156251033     
  0.13860000000000000         -1.3645788091125544     
  0.13890000000000002         -1.6966937332974277     
  0.13919999999999999         -1.9720962694839657     
  0.13950000000000001         -2.1638988831090686     
  0.13979999999999998         -2.2485443882823661     
  0.14010000000000000         -2.2062281887702233     
  0.14040000000000002         -2.0222296072731929     
  0.14069999999999999         -1.6902750160301434     
  0.14100000000000001         -1.2109318518683581     
  0.14130000000000004        -0.59426423960394259     
  0.14160000000000000         0.13965582350415368     
  0.14189999999999997         0.96299569538308150     
  0.14219999999999999          1.8385297882433798     
  0.14250000000000002          2.7227224685887474     
  0.14279999999999998          3.5682005020224556     
  0.14310000000000000          4.3246063103869457     
  0.14339999999999997          4.9436620397774247     
  0.14369999999999999          5.3817447209262932     
  0.14400000000000002          5.6023887103116534     
  0.14429999999999998          5.5803798130840629     
  0.14460000000000001          5.3029530992087412     
  0.14490000000000003          4.7719377159550849     
  0.14520000000000000          4.0044697596592673     
  0.14550000000000002          3.0314818946987647     
  0.14579999999999999          1.8977980044808007     
  0.14610000000000001         0.65815017193560676     
  0.14640000000000003        -0.62573956424223998     
  0.14670000000000000         -1.8878955405239315     
  0.14699999999999996         -3.0642558776603313     
  0.14729999999999999         -4.0943287775849226     
  0.14760000000000001         -4.9267700854992009     
  0.14789999999999998         -5.5225442431936163     
  0.14820000000000000         -5.8554666930681769     