  -1.4999999999999999E-002     0.0000000000000000     
  -1.4700000000000000E-002     0.0000000000000000     
  -1.4400000000000000E-002     0.0000000000000000     
  -1.4100000000000000E-002     0.0000000000000000     
  -1.3800000000000000E-002     0.0000000000000000     
  -1.3500000000000000E-002     0.0000000000000000     
  -1.3200000000000000E-002     0.0000000000000000     
  -1.2899999999999998E-002     0.0000000000000000     
  -1.2600000000000000E-002     0.0000000000000000     
  -1.2299999999999998E-002     0.0000000000000000     
  -1.2000000000000000E-002     0.0000000000000000     
  -1.1699999999999999E-002     0.0000000000000000     
  -1.1399999999999999E-002     0.0000000000000000     
  -1.1099999999999999E-002     0.0000000000000000     
  -1.0799999999999999E-002     0.0000000000000000     
  -1.0499999999999999E-002     0.0000000000000000     
  -1.0199999999999999E-002     0.0000000000000000     
  -9.8999999999999991E-003     0.0000000000000000     
  -9.5999999999999992E-003     0.0000000000000000     
  -9.2999999999999992E-003     0.0000000000000000     
  -8.9999999999999993E-003     0.0000000000000000     
  -8.6999999999999994E-003     0.0000000000000000     
  -8.3999999999999995E-003     0.0000000000000000     
  -8.0999999999999996E-003     0.0000000000000000     
  -7.7999999999999988E-003     0.0000000000000000     
  -7.4999999999999997E-003     0.0000000000000000     
  -7.1999999999999998E-003     0.0000000000000000     
  -6.8999999999999981E-003     0.0000000000000000     
  -6.5999999999999982E-003     0.0000000000000000     
  -6.3000000000000000E-003     0.0000000000000000     
  -6.0000000000000001E-003     0.0000000000000000     
  -5.6999999999999985E-003     0.0000000000000000     
  -5.3999999999999986E-003     0.0000000000000000     
  -5.1000000000000004E-003     0.0000000000000000     
  -4.7999999999999987E-003     0.0000000000000000     
  -4.5000000000000005E-003     0.0000000000000000     
  -4.1999999999999989E-003     0.0000000000000000     
  -3.8999999999999990E-003     0.0000000000000000     
  -3.5999999999999990E-003     0.0000000000000000     
  -3.2999999999999991E-003     0.0000000000000000     
  -2.9999999999999992E-003     0.0000000000000000     
  -2.6999999999999993E-003     0.0000000000000000     
  -2.3999999999999994E-003     0.0000000000000000     
  -2.0999999999999977E-003     0.0000000000000000     
  -1.7999999999999995E-003     0.0000000000000000     
  -1.4999999999999979E-003     0.0000000000000000     
  -1.1999999999999997E-003     0.0000000000000000     
  -8.9999999999999976E-004     0.0000000000000000     
  -5.9999999999999810E-004     0.0000000000000000     
  -2.9999999999999992E-004     0.0000000000000000     
   0.0000000000000000          0.0000000000000000     
   3.0000000000000165E-004     0.0000000000000000     
   5.9999999999999984E-004     0.0000000000000000     
   9.0000000000000149E-004     0.0000000000000000     
   1.2000000000000031E-003     0.0000000000000000     
   1.5000000000000013E-003     0.0000000000000000     
   1.8000000000000030E-003     0.0000000000000000     
   2.1000000000000012E-003     0.0000000000000000     
   2.3999999999999994E-003     0.0000000000000000     
   2.7000000000000010E-003     0.0000000000000000     
   2.9999999999999992E-003     0.0000000000000000     
   3.3000000000000008E-003     0.0000000000000000     
   3.6000000000000025E-003     0.0000000000000000     
   3.9000000000000007E-003     0.0000000000000000     
   4.2000000000000023E-003     0.0000000000000000     
   4.5000000000000005E-003     0.0000000000000000     
   4.7999999999999987E-003     0.0000000000000000     
   5.1000000000000004E-003     0.0000000000000000     
   5.4000000000000020E-003     0.0000000000000000     
   5.7000000000000037E-003     0.0000000000000000     
   5.9999999999999984E-003     0.0000000000000000     
   6.3000000000000000E-003     0.0000000000000000     
   6.6000000000000017E-003     0.0000000000000000     
   6.9000000000000034E-003     0.0000000000000000     
   7.2000000000000015E-003     0.0000000000000000     
   7.5000000000000032E-003     0.0000000000000000     
   7.8000000000000014E-003     0.0000000000000000     
   8.0999999999999996E-003     0.0000000000000000     
   8.4000000000000012E-003     0.0000000000000000     
   8.7000000000000029E-003     0.0000000000000000     
   9.0000000000000011E-003     0.0000000000000000     
   9.2999999999999992E-003     0.0000000000000000     
   9.6000000000000009E-003     0.0000000000000000     
   9.8999999999999991E-003     0.0000000000000000     
   1.0200000000000001E-002     0.0000000000000000     
   1.0500000000000002E-002     0.0000000000000000     
   1.0800000000000004E-002     0.0000000000000000     
   1.1099999999999999E-002     0.0000000000000000     
   1.1400000000000000E-002     0.0000000000000000     
   1.1700000000000002E-002     0.0000000000000000     
   1.2000000000000004E-002     0.0000000000000000     
   1.2300000000000002E-002     0.0000000000000000     
   1.2600000000000000E-002     0.0000000000000000     
   1.2900000000000002E-002     0.0000000000000000     
   1.3200000000000000E-002     0.0000000000000000     
   1.3500000000000002E-002     0.0000000000000000     
   1.3800000000000003E-002     0.0000000000000000     
   1.4100000000000001E-002     0.0000000000000000     
   1.4400000000000000E-002     0.0000000000000000     
   1.4700000000000001E-002     0.0000000000000000     
   1.4999999999999999E-002     0.0000000000000000     
   1.5300000000000001E-002     0.0000000000000000     
   1.5600000000000003E-002     0.0000000000000000     
   1.5899999999999997E-002     0.0000000000000000     
   1.6199999999999999E-002     0.0000000000000000     
   1.6500000000000001E-002     0.0000000000000000     
   1.6800000000000002E-002     0.0000000000000000     
   1.7100000000000004E-002     0.0000000000000000     
   1.7400000000000006E-002     0.0000000000000000     
   1.7700000000000000E-002     0.0000000000000000     
   1.8000000000000002E-002     0.0000000000000000     
   1.8300000000000004E-002     0.0000000000000000     
   1.8600000000000005E-002     0.0000000000000000     
   1.8900000000000000E-002     0.0000000000000000     
   1.9200000000000002E-002     0.0000000000000000     
   1.9500000000000003E-002     0.0000000000000000     
   1.9799999999999998E-002     0.0000000000000000     
   2.0100000000000000E-002     0.0000000000000000     
   2.0400000000000001E-002     0.0000000000000000     
   2.0700000000000003E-002     0.0000000000000000     
   2.0999999999999998E-002     0.0000000000000000     
   2.1299999999999999E-002     0.0000000000000000     
   2.1600000000000001E-002     0.0000000000000000     
   2.1900000000000003E-002     0.0000000000000000     
   2.2200000000000004E-002     0.0000000000000000     
   2.2500000000000006E-002     0.0000000000000000     
   2.2800000000000001E-002     0.0000000000000000     
   2.3100000000000002E-002     0.0000000000000000     
   2.3400000000000004E-002     0.0000000000000000     
   2.3699999999999999E-002     0.0000000000000000     
   2.4000000000000000E-002     0.0000000000000000     
   2.4300000000000002E-002     0.0000000000000000     
   2.4599999999999997E-002     0.0000000000000000     
   2.4900000000000005E-002     0.0000000000000000     
   2.5200000000000000E-002     0.0000000000000000     
   2.5499999999999995E-002     0.0000000000000000     
   2.5800000000000003E-002     0.0000000000000000     
   2.6099999999999998E-002     0.0000000000000000     
   2.6400000000000007E-002     0.0000000000000000     
   2.6700000000000002E-002     0.0000000000000000     
   2.6999999999999996E-002     0.0000000000000000     
   2.7300000000000005E-002     0.0000000000000000     
   2.7600000000000000E-002     0.0000000000000000     
   2.7900000000000008E-002     0.0000000000000000     
   2.8200000000000003E-002     0.0000000000000000     
   2.8499999999999998E-002     0.0000000000000000     
   2.8800000000000006E-002     0.0000000000000000     
   2.9100000000000001E-002     0.0000000000000000     
   2.9400000000000003E-002     0.0000000000000000     
   2.9700000000000004E-002     0.0000000000000000     
   3.0000000000000006E-002     0.0000000000000000     
   3.0300000000000001E-002     0.0000000000000000     
   3.0600000000000002E-002     0.0000000000000000     
   3.0900000000000004E-002     0.0000000000000000     
   3.1199999999999999E-002     0.0000000000000000     
   3.1500000000000007E-002     0.0000000000000000     
   3.1800000000000002E-002     0.0000000000000000     
   3.2099999999999997E-002     0.0000000000000000     
   3.2400000000000005E-002     0.0000000000000000     
   3.2700000000000000E-002     0.0000000000000000     
   3.3000000000000002E-002    -4.3056304353680550E-042
   3.3300000000000003E-002     2.0718340941328755E-041
   3.3599999999999998E-002    -1.0348914768663633E-037
   3.3900000000000000E-002    -9.5392598722994952E-038
   3.4200000000000001E-002     2.5550283009749083E-036
   3.4500000000000003E-002     1.5256567166414063E-036
   3.4799999999999998E-002     1.0186368133108511E-034
   3.5099999999999999E-002    -7.4757696386462830E-034
   3.5400000000000001E-002     2.7388123048420517E-033
   3.5699999999999996E-002    -8.6662182750924247E-033
   3.6000000000000004E-002     2.3450640539639225E-032
   3.6299999999999999E-002    -5.5850513053727842E-032
   3.6600000000000008E-002     1.0879953200889811E-031
   3.6900000000000002E-002    -1.2910307835203487E-031
   3.7199999999999997E-002    -1.1241160023084025E-031
   3.7500000000000006E-002     1.2697857650612016E-030
   3.7800000000000000E-002    -4.7229308961464779E-030
   3.8100000000000009E-002     1.2295075049895136E-029
   3.8400000000000004E-002    -2.3456655527641680E-029
   3.8699999999999998E-002     2.5963592565801447E-029
   3.9000000000000007E-002     2.4564995279584463E-029
   3.9300000000000002E-002    -2.3084512092934125E-028
   3.9600000000000003E-002     7.4255822981053825E-028
   3.9900000000000005E-002    -1.5798833559520307E-027
   4.0200000000000000E-002     2.0665698611055610E-027
   4.0500000000000001E-002     2.6304130565148930E-028
   4.0800000000000003E-002    -1.0638900842127168E-026
   4.1100000000000005E-002     3.5172882063840774E-026
   4.1399999999999999E-002    -7.0473283827512017E-026
   4.1700000000000008E-002     8.0147511073127416E-026
   4.2000000000000003E-002     2.8627159139258052E-026
   4.2299999999999997E-002    -3.6235452811832149E-025
   4.2600000000000006E-002     7.7595095588212664E-025
   4.2900000000000001E-002    -1.5563320096432436E-025
   4.3200000000000002E-002    -4.9451667892382233E-024
   4.3500000000000004E-002     2.2603311567343322E-023
   4.3799999999999999E-002    -7.1038641673189255E-023
   4.4100000000000000E-002     1.9941116827786080E-022
   4.4400000000000002E-002    -5.6651189559567672E-022
   4.4700000000000004E-002     1.6876700017448625E-021
   4.4999999999999998E-002    -5.0446112900299151E-021
   4.5300000000000000E-002     1.4103015390271361E-020
   4.5600000000000002E-002    -3.4176331977748806E-020
   4.5899999999999996E-002     6.1993226820416153E-020
   4.6200000000000005E-002    -2.8927502596041336E-020
   4.6500000000000000E-002    -4.1298795224823413E-019
   4.6799999999999994E-002     2.5180489150482593E-018
   4.7100000000000003E-002    -9.7938877744918379E-018
   4.7399999999999998E-002     2.9280138857837986E-017
   4.7700000000000006E-002    -6.6024134743865424E-017
   4.8000000000000001E-002     8.5063981861809192E-017
   4.8300000000000010E-002     1.2113059433094961E-016
   4.8600000000000004E-002    -1.2214428327074070E-015
   4.8899999999999999E-002     4.5344229524373020E-015
   4.9200000000000008E-002    -1.0485634565497243E-014
   4.9500000000000002E-002     1.0648368508760196E-014
   4.9800000000000011E-002     3.2208324104532080E-014
   5.0100000000000006E-002    -1.9994769326137358E-013
   5.0400000000000000E-002     5.2573264276933824E-013
   5.0700000000000009E-002    -5.3825465893783234E-013
   5.1000000000000004E-002    -1.6224009405667404E-012
   5.1299999999999998E-002     8.8040381105189645E-012
   5.1600000000000007E-002    -1.7227985412468580E-011
   5.1900000000000002E-002    -3.5318239812531131E-012
   5.2200000000000010E-002     1.1449537083643744E-010
   5.2500000000000005E-002    -2.8070799919042519E-010
   5.2800000000000000E-002     2.5978733859127784E-011
   5.3099999999999994E-002     1.5368410761788076E-009
   5.3400000000000003E-002    -3.3788990518418186E-009
   5.3699999999999998E-002    -1.8802163514240634E-009
   5.4000000000000006E-002     2.1182663894396502E-008
   5.4300000000000001E-002    -2.2173154508819222E-008
   5.4599999999999996E-002    -7.9548828331793557E-008
   5.4900000000000004E-002     1.8994767055250259E-007
   5.5199999999999999E-002     2.2499193878455706E-007
   5.5499999999999994E-002    -1.0542478280086671E-006
   5.5800000000000002E-002    -7.6663917944518064E-007
   5.6099999999999997E-002     6.7628278168769586E-006
   5.6400000000000006E-002     1.8982391323664674E-005
   5.6700000000000000E-002     2.5546389959378532E-005
   5.6999999999999995E-002     2.6088249179158947E-005
   5.7300000000000004E-002     3.2946949354136244E-005
   5.7599999999999998E-002     5.2865342250836710E-005
   5.7900000000000007E-002     8.2831452128851536E-005
   5.8200000000000002E-002     1.2383745364821718E-004
   5.8499999999999996E-002     1.8458405929020123E-004
   5.8800000000000005E-002     2.7282716683178619E-004
   5.9100000000000000E-002     3.9273592544583760E-004
   5.9400000000000008E-002     5.5193759388483883E-004
   5.9700000000000003E-002     7.6266155067273677E-004
   6.0000000000000012E-002     1.0342662959041725E-003
   6.0300000000000006E-002     1.3754957546873369E-003
   6.0600000000000001E-002     1.7963960907108585E-003
   6.0900000000000010E-002     2.2931146276456574E-003
   6.1200000000000004E-002     2.8449197470098516E-003
   6.1500000000000013E-002     3.4254150771850581E-003
   6.1800000000000008E-002     3.9899756806620387E-003
   6.2100000000000002E-002     4.4576893795389809E-003
   6.2399999999999997E-002     4.7138252745058951E-003
   6.2700000000000006E-002     4.6125895733660199E-003
   6.3000000000000000E-002     3.9752174674063572E-003
   6.3300000000000009E-002     2.5878078795797503E-003
   6.3600000000000004E-002     2.0308044821194067E-004
   6.3899999999999998E-002    -3.4396141716034360E-003
   6.4199999999999993E-002    -8.5788085618219382E-003
   6.4500000000000002E-002    -1.5393314671778416E-002
   6.4800000000000010E-002    -2.3963267106429580E-002
   6.5100000000000005E-002    -3.4231985559534647E-002
   6.5400000000000000E-002    -4.5961602020156540E-002
   6.5700000000000008E-002    -5.8679041339187082E-002
   6.5999999999999989E-002    -7.1642767287233830E-002
   6.6299999999999998E-002    -8.3839745544982081E-002
   6.6600000000000006E-002    -9.4000475683263057E-002
   6.6900000000000001E-002   -0.10065415909995687     
   6.7199999999999996E-002   -0.10222967501114394     
   6.7500000000000004E-002    -9.7179112518786720E-002
   6.7800000000000013E-002    -8.4139728206348283E-002
   6.8099999999999994E-002    -6.2109496392235286E-002
   6.8400000000000002E-002    -3.0644104144147949E-002
   6.8700000000000011E-002     9.9917822481463726E-003
   6.8999999999999992E-002     5.8722044443530741E-002
   6.9300000000000000E-002    0.11357440154855478     
   6.9600000000000009E-002    0.17171049149621975     
   6.9900000000000004E-002    0.22960095646842268     
   7.0199999999999999E-002    0.28324469583617573     
   7.0500000000000007E-002    0.32846023408910874     
   7.0800000000000016E-002    0.36128535562222319     
   7.1099999999999997E-002    0.37838190241026493     
   7.1400000000000005E-002    0.37743574236054661     
   7.1700000000000000E-002    0.35744099823600206     
   7.1999999999999995E-002    0.31892466659957858     
   7.2300000000000003E-002    0.26400687645124071     
   7.2600000000000012E-002    0.19630752304617030     
   7.2900000000000006E-002    0.12065824223068000     
   7.3200000000000001E-002     4.2657160731735533E-002
   7.3499999999999996E-002    -3.1834134518720476E-002
   7.3800000000000004E-002    -9.7286736338842217E-002
   7.4099999999999999E-002   -0.14912759952704258     
   7.4400000000000008E-002   -0.18423058200582684     
   7.4700000000000003E-002   -0.20122896907922677     
   7.5000000000000011E-002   -0.20071887280648035     
   7.5299999999999992E-002   -0.18525497370801197     
   7.5600000000000001E-002   -0.15901754411605826     
   7.5900000000000009E-002   -0.12738178876390133     
   7.6200000000000004E-002    -9.6368874354793729E-002
   7.6499999999999999E-002    -7.1844179477622921E-002
   7.6800000000000007E-002    -5.8957292833561693E-002
   7.7099999999999988E-002    -6.1462028837996494E-002
   7.7399999999999997E-002    -8.1213384182324613E-002
   7.7700000000000005E-002   -0.11801716404598943     
   7.8000000000000014E-002   -0.16954343328280344     
   7.8299999999999995E-002   -0.23147860501496492     
   7.8600000000000003E-002   -0.29801538078318768     
   7.8900000000000012E-002   -0.36243306817050341     
   7.9199999999999993E-002   -0.41773762697588973     
   7.9500000000000001E-002   -0.45740104130692516     
   7.9800000000000010E-002   -0.47602795801736542     
   8.0100000000000018E-002   -0.46988915422011313     
   8.0399999999999999E-002   -0.43738195244712552     
   8.0700000000000008E-002   -0.37912952675563871     
   8.1000000000000003E-002   -0.29794070207370082     
   8.1299999999999997E-002   -0.19865442635269873     
   8.1600000000000006E-002    -8.7665144551709984E-002
   8.1900000000000014E-002     2.7636384323788954E-002
   8.2199999999999995E-002    0.13942382201278974     
   8.2500000000000004E-002    0.24008556599832090     
   8.2799999999999999E-002    0.32276268714473871     
   8.3100000000000007E-002    0.38189924150636007     
   8.3400000000000002E-002    0.41358327378010179     
   8.3700000000000011E-002    0.41575482000925762     
   8.4000000000000005E-002    0.38833636399250060     
   8.4300000000000000E-002    0.33316253562024856     
   8.4599999999999995E-002    0.25375332565755893     
   8.4900000000000003E-002    0.15511035199015999     
   8.5199999999999998E-002     4.3363011341008187E-002
   8.5500000000000007E-002    -7.4588328265790871E-002
   8.5800000000000001E-002   -0.19148322037668819     
   8.6100000000000010E-002   -0.30012896128915106     
   8.6399999999999991E-002   -0.39366878697275753     
   8.6699999999999999E-002   -0.46602652202725076     
   8.7000000000000008E-002   -0.51226587668100720     
   8.7300000000000003E-002   -0.52866073968519456     
   8.7599999999999997E-002   -0.51307645065351881     
   8.7900000000000006E-002   -0.46514502382363065     
   8.8200000000000014E-002   -0.38612263578866601     
   8.8499999999999995E-002   -0.27911589387266844     
   8.8800000000000004E-002   -0.14886212408208438     
   8.9100000000000013E-002    -1.4720823961147239E-003
   8.9399999999999993E-002    0.15569258428130583     
   8.9700000000000002E-002    0.31452509074504109     
   9.0000000000000011E-002    0.46666824830070680     
   9.0299999999999991E-002    0.60381258247407021     
   9.0600000000000000E-002    0.71835872153739921     
   9.0900000000000009E-002    0.80380881049832065     
   9.1200000000000017E-002    0.85523715758816177     
   9.1499999999999998E-002    0.86973030831362774     
   9.1800000000000007E-002    0.84641982276708172     
   9.2100000000000001E-002    0.78671774099106651     
   9.2399999999999996E-002    0.69435707547097825     
   9.2700000000000005E-002    0.57504333759782233     
   9.3000000000000013E-002    0.43622287123549280     
   9.3300000000000008E-002    0.28660639566064133     
   9.3600000000000003E-002    0.13557519382899380     
   9.3899999999999997E-002    -7.3499819651670836E-003
   9.4200000000000006E-002   -0.13336151744659835     
   9.4500000000000001E-002   -0.23477046162321730     
   9.4800000000000009E-002   -0.30570541976927157     
   9.5100000000000004E-002   -0.34269996157404559     
   9.5399999999999999E-002   -0.34460307272216972     
   9.5699999999999993E-002   -0.31298668847131528     
   9.6000000000000002E-002   -0.25211217161990884     
   9.6300000000000011E-002   -0.16814537361168130     
   9.6600000000000005E-002    -6.9054370546883320E-002
   9.6900000000000000E-002     3.6027377870389135E-002
   9.7200000000000009E-002    0.13792401236002177     
   9.7499999999999989E-002    0.22777124035325580     
   9.7799999999999998E-002    0.29785845747276241     
   9.8100000000000007E-002    0.34245231578488972     
   9.8400000000000015E-002    0.35774752442475999     
   9.8699999999999996E-002    0.34245419734524818     
   9.9000000000000005E-002    0.29778377770479331     
   9.9300000000000013E-002    0.22677986162506719     
   9.9599999999999994E-002    0.13441716726782171     
   9.9900000000000003E-002     2.6826633691847700E-002
  0.10020000000000001         -8.9484878619793845E-002
  0.10049999999999999        -0.20791236619216286     
  0.10080000000000000        -0.32247801508985391     
  0.10110000000000001        -0.42833798486047259     
  0.10140000000000000        -0.52180249329785566     
  0.10170000000000000        -0.60060367529772396     
  0.10200000000000001        -0.66374228656300960     
  0.10230000000000002        -0.71128559302924110     
  0.10260000000000000        -0.74416049059524914     
  0.10290000000000001        -0.76361711620808426     
  0.10320000000000000        -0.77102064304643925     
  0.10350000000000001        -0.76753220267973377     
  0.10380000000000000        -0.75383925497412252     
  0.10410000000000001        -0.73021526225156352     
  0.10440000000000001        -0.69633548098350051     
  0.10470000000000000        -0.65153648574730938     
  0.10500000000000000        -0.59507828721302025     
  0.10530000000000000        -0.52621868727225274     
  0.10560000000000000        -0.44459286698022898     
  0.10590000000000001        -0.35052412021276863     
  0.10620000000000000        -0.24507642877806352     
  0.10650000000000001        -0.13006237062827622     
  0.10679999999999999         -8.4537269107641776E-003
  0.10710000000000000         0.11623420207960826     
  0.10740000000000001         0.23995807159134064     
  0.10770000000000000         0.35818656508138569     
  0.10800000000000000         0.46660732372294805     
  0.10830000000000001         0.56117053051274968     
  0.10859999999999999         0.63848290986680012     
  0.10890000000000000         0.69608642920730346     
  0.10920000000000001         0.73251871133557200     
  0.10950000000000001         0.74754609614255307     
  0.10979999999999999         0.74193350222223153     
  0.11009999999999999         0.71743144072684595     
  0.11040000000000001         0.67662537775964560     
  0.11070000000000001         0.62248541425308779     
  0.11100000000000000         0.55820225079857866     
  0.11130000000000000         0.48694388528850840     
  0.11160000000000002         0.41136873451934403     
  0.11190000000000001         0.33371567647037093     
  0.11220000000000001         0.25571204736045416     
  0.11250000000000000         0.17828826861092487     
  0.11280000000000000         0.10198748018176196     
  0.11309999999999999          2.7092870108989905E-002
  0.11340000000000001         -4.6300168272846588E-002
  0.11369999999999998        -0.11769503937616974     
  0.11400000000000000        -0.18610691186878370     
  0.11430000000000000        -0.25007158350981029     
  0.11460000000000002        -0.30715765933371553     
  0.11489999999999999        -0.35415961612099250     
  0.11520000000000001        -0.38741484508397878     
  0.11550000000000001        -0.40281865708797637     
  0.11580000000000000        -0.39656392736277224     
  0.11609999999999999        -0.36529959992708577     
  0.11640000000000002        -0.30659086636726862     
  0.11670000000000001        -0.21970423394232449     
  0.11700000000000001        -0.10559591504588706     
  0.11730000000000000          3.2915860722641910E-002
  0.11760000000000000         0.19090513198241016     
  0.11789999999999999         0.36175882657661163     
  0.11820000000000001         0.53764693648480932     
  0.11850000000000001         0.70979259720784904     
  0.11880000000000000         0.86917471915772404     
  0.11910000000000000          1.0072424188549562     
  0.11940000000000002          1.1165046136984813     
  0.11970000000000001          1.1908620043076148     
  0.12000000000000001          1.2258955866006787     
  0.12030000000000000          1.2193240206343947     
  0.12060000000000000          1.1708014140744110     
  0.12089999999999999          1.0814952329770251     
  0.12119999999999999         0.95445310599402688     
  0.12150000000000001         0.79381660847334468     
  0.12180000000000001         0.60433990807677584     
  0.12210000000000000         0.39169876477446713     
  0.12239999999999999         0.16187298281218171     
  0.12270000000000002         -7.9152176301122507E-002
  0.12300000000000001        -0.32505093025537218     
  0.12330000000000001        -0.56948896110414515     
  0.12360000000000000        -0.80612328571522185     
  0.12390000000000000         -1.0284404836664183     
  0.12419999999999999         -1.2301641027345680     
  0.12450000000000001         -1.4050190215038467     
  0.12480000000000001         -1.5471507108859028     
  0.12509999999999999         -1.6515562454052373     
  0.12540000000000001         -1.7139490271783622     
  0.12570000000000003         -1.7313182919404424     
  0.12600000000000000         -1.7022810728632478     
  0.12630000000000002         -1.6269670760472044     
  0.12659999999999999         -1.5073108618418500     
  0.12690000000000001         -1.3471070228633826     
  0.12719999999999998         -1.1515727555958200     
  0.12750000000000000        -0.92749653959466904     
  0.12780000000000002        -0.68261907951112377     
  0.12809999999999999        -0.42525873148421522     
  0.12840000000000001        -0.16460241397867503     
  0.12869999999999998          9.0720214404236638E-002
  0.12900000000000000         0.33220075871702009     
  0.12930000000000003         0.55174131198270993     
  0.12959999999999999         0.74267474349750673     
  0.12990000000000002         0.89894662078042031     
  0.13019999999999998          1.0157841271397179     
  0.13050000000000000          1.0903140823052491     
  0.13080000000000003          1.1204191677038744     
  0.13109999999999999          1.1060183072174905     
  0.13140000000000002          1.0486334447841688     
  0.13169999999999998         0.95088930153459983     
  0.13200000000000001         0.81745550005991274     
  0.13229999999999997         0.65402081521195554     
  0.13260000000000000         0.46740154116467703     
  0.13290000000000002         0.26595906942138220     
  0.13319999999999999          5.8149767595744403E-002
  0.13350000000000001        -0.14710829084053628     
  0.13380000000000003        -0.34026661927513496     
  0.13410000000000000        -0.51283178924883444     
  0.13440000000000002        -0.65678350441446287     
  0.13469999999999999        -0.76491911880213437     
  0.13500000000000001        -0.83199619180606255     
  0.13529999999999998        -0.85422960464616093     
  0.13560000000000000        -0.82994384067778004     
  0.13590000000000002        -0.75995499899071373     
  0.13619999999999999        -0.64711686356686093     
  0.13650000000000001        -0.49689792024001633     
  0.13680000000000003        -0.31696439495266504     
  0.13710000000000000        -0.11668285467986725     
  0.13740000000000002          9.2698395121676269E-002
  0.13769999999999999         0.29924801110828814     
  0.13800000000000001         0.49087615603218648     
  0.13829999999999998         0.65567257122322764     
  0.13860000000000000         0.78332908833302883     
  0.13890000000000002         0.86564196078377942     
  0.13919999999999999         0.89694979318846979     
  0.13950000000000001         0.87494506354301227     
  0.13979999999999998         0.80084764828496824     
  0.14010000000000000         0.67942412338917224     
  0.14040000000000002         0.51873353642054854     
  0.14069999999999999         0.32958258216671149     
  0.14100000000000001         0.12477407832385143     
  0.14130000000000004         -8.1839854976202719E-002
  0.14160000000000000        -0.27641810030159197     
  0.14189999999999997        -0.44608296293392657     
  0.14219999999999999        -0.57983659697255985     
  0.14250000000000002        -0.66952096352054691     
  0.14279999999999998        -0.71021744803741016     
  0.14310000000000000        -0.70036414382107903     
  0.14339999999999997        -0.64186944424305037     
  0.14369999999999999        -0.53974221388421961     
  0.14400000000000002        -0.40135647791813828     
  0.14429999999999998        -0.23610614272850317     
  0.14460000000000001         -5.4257506882593204E-002
  0.14490000000000003         0.13377918875370259     
  0.14520000000000000         0.31786215739272328     
  0.14550000000000002         0.48891393351495721     
  0.14579999999999999         0.63952509838310279     
  0.14610000000000001         0.76366673068281665     
  0.14640000000000003         0.85707536548529406     
  0.14670000000000000         0.91733264731529529     
  0.14699999999999996         0.94334084664886686     
  0.14729999999999999         0.93532936125640598     
  0.14760000000000001         0.89477655242775989     
  0.14789999999999998         0.82390200055033436     
  0.14820000000000000         0.72583746585001641     