  -1.4999999999999999E-002     0.0000000000000000     
  -1.4700000000000000E-002     0.0000000000000000     
  -1.4400000000000000E-002     0.0000000000000000     
  -1.4100000000000000E-002     0.0000000000000000     
  -1.3800000000000000E-002     0.0000000000000000     
  -1.3500000000000000E-002     0.0000000000000000     
  -1.3200000000000000E-002     0.0000000000000000     
  -1.2899999999999998E-002     0.0000000000000000     
  -1.2600000000000000E-002     0.0000000000000000     
  -1.2299999999999998E-002     0.0000000000000000     
  -1.2000000000000000E-002     0.0000000000000000     
  -1.1699999999999999E-002     0.0000000000000000     
  -1.1399999999999999E-002     0.0000000000000000     
  -1.1099999999999999E-002     0.0000000000000000     
  -1.0799999999999999E-002     0.0000000000000000     
  -1.0499999999999999E-002     0.0000000000000000     
  -1.0199999999999999E-002     0.0000000000000000     
  -9.8999999999999991E-003     0.0000000000000000     
  -9.5999999999999992E-003     0.0000000000000000     
  -9.2999999999999992E-003     0.0000000000000000     
  -8.9999999999999993E-003     0.0000000000000000     
  -8.6999999999999994E-003     0.0000000000000000     
  -8.3999999999999995E-003     0.0000000000000000     
  -8.0999999999999996E-003     0.0000000000000000     
  -7.7999999999999988E-003     0.0000000000000000     
  -7.4999999999999997E-003     0.0000000000000000     
  -7.1999999999999998E-003     0.0000000000000000     
  -6.8999999999999981E-003     0.0000000000000000     
  -6.5999999999999982E-003     0.0000000000000000     
  -6.3000000000000000E-003     0.0000000000000000     
  -6.0000000000000001E-003     0.0000000000000000     
  -5.6999999999999985E-003     0.0000000000000000     
  -5.3999999999999986E-003     0.0000000000000000     
  -5.1000000000000004E-003     0.0000000000000000     
  -4.7999999999999987E-003     0.0000000000000000     
  -4.5000000000000005E-003     0.0000000000000000     
  -4.1999999999999989E-003     0.0000000000000000     
  -3.8999999999999990E-003     0.0000000000000000     
  -3.5999999999999990E-003     0.0000000000000000     
  -3.2999999999999991E-003     0.0000000000000000     
  -2.9999999999999992E-003     0.0000000000000000     
  -2.6999999999999993E-003     0.0000000000000000     
  -2.3999999999999994E-003     0.0000000000000000     
  -2.0999999999999977E-003     0.0000000000000000     
  -1.7999999999999995E-003     0.0000000000000000     
  -1.4999999999999979E-003     0.0000000000000000     
  -1.1999999999999997E-003     0.0000000000000000     
  -8.9999999999999976E-004     0.0000000000000000     
  -5.9999999999999810E-004     0.0000000000000000     
  -2.9999999999999992E-004     0.0000000000000000     
   0.0000000000000000          0.0000000000000000     
   3.0000000000000165E-004     0.0000000000000000     
   5.9999999999999984E-004     0.0000000000000000     
   9.0000000000000149E-004     0.0000000000000000     
   1.2000000000000031E-003     0.0000000000000000     
   1.5000000000000013E-003     0.0000000000000000     
   1.8000000000000030E-003     0.0000000000000000     
   2.1000000000000012E-003     0.0000000000000000     
   2.3999999999999994E-003     0.0000000000000000     
   2.7000000000000010E-003     0.0000000000000000     
   2.9999999999999992E-003     0.0000000000000000     
   3.3000000000000008E-003     0.0000000000000000     
   3.6000000000000025E-003     0.0000000000000000     
   3.9000000000000007E-003     3.3230589781466795E-036
   4.2000000000000023E-003    -2.3128462976102621E-035
   4.5000000000000005E-003    -9.1597783689791129E-035
   4.7999999999999987E-003     3.0225348245881271E-034
   5.1000000000000004E-003    -4.8542550417622046E-034
   5.4000000000000020E-003     1.3134469878962334E-033
   5.7000000000000037E-003     4.9135207828791918E-034
   5.9999999999999984E-003    -1.2424793460793251E-032
   6.3000000000000000E-003     3.9692115889378362E-032
   6.6000000000000017E-003    -4.2592675922534242E-032
   6.9000000000000034E-003    -9.5439910885553664E-032
   7.2000000000000015E-003     4.3165823658887495E-031
   7.5000000000000032E-003    -5.0798619874844357E-031
   7.8000000000000014E-003    -9.2486419170778574E-031
   8.0999999999999996E-003     4.2846209591739116E-030
   8.4000000000000012E-003    -4.7585506767102806E-030
   8.7000000000000029E-003    -8.8202241463190663E-030
   9.0000000000000011E-003     3.7314041667513330E-029
   9.2999999999999992E-003    -3.6511483777759207E-029
   9.6000000000000009E-003    -7.8339233610221481E-029
   9.8999999999999991E-003     2.8775406566824055E-028
   1.0200000000000001E-002    -2.2996322738654848E-028
   1.0500000000000002E-002    -6.5925115653105424E-028
   1.0800000000000004E-002     2.0038086521680650E-027
   1.1099999999999999E-002    -1.0810429581908646E-027
   1.1400000000000000E-002    -5.3007338732207284E-027
   1.1700000000000002E-002     1.2640555426664852E-026
   1.2000000000000004E-002    -2.3638768397876850E-027
   1.2300000000000002E-002    -3.9519281465321201E-026
   1.2600000000000000E-002     7.1322494526504487E-026
   1.2900000000000002E-002     1.8833925719624184E-026
   1.3200000000000000E-002    -2.6406712696286353E-025
   1.3500000000000002E-002     3.5046810506783836E-025
   1.3800000000000003E-002     2.9704352078779919E-025
   1.4100000000000001E-002    -1.5475312138319650E-024
   1.4400000000000000E-002     1.4469608593972732E-024
   1.4700000000000001E-002     2.4437267871645133E-024
   1.4999999999999999E-002    -7.8829366523798457E-024
   1.5300000000000001E-002     4.6853272111640409E-024
   1.5600000000000003E-002     1.5133222422682639E-023
   1.5899999999999997E-002    -3.4687669762276893E-023
   1.6199999999999999E-002     9.4747095626522828E-024
   1.6500000000000001E-002     7.6461726021861231E-023
   1.6800000000000002E-002    -1.3077091640943045E-022
   1.7100000000000004E-002    -7.7030511814153804E-024
   1.7400000000000006E-002     3.2363391255612326E-022
   1.7700000000000000E-002    -4.1654521839074317E-022
   1.8000000000000002E-002    -1.8145512705277112E-022
   1.8300000000000004E-002     1.1535059129496948E-021
   1.8600000000000005E-002    -1.0988912149206368E-021
   1.8900000000000000E-002    -9.8956924415662070E-022
   1.9200000000000002E-002     3.4433474897946721E-021
   1.9500000000000003E-002    -2.3621532779436077E-021
   1.9799999999999998E-002    -3.5145386785853098E-021
   2.0100000000000000E-002     8.5405964730743128E-021
   2.0400000000000001E-002    -4.4016960450719464E-021
   2.0700000000000003E-002    -8.6751238576911071E-021
   2.0999999999999998E-002     1.7949978067295501E-020
   2.1299999999999999E-002    -1.0306740999109720E-020
   2.1600000000000001E-002    -1.2941139381646748E-020
   2.1900000000000003E-002     3.6694805263420689E-020
   2.2200000000000004E-002    -3.9837749347098184E-020
   2.2500000000000006E-002    -3.6716376429156409E-021
   2.2800000000000001E-002     9.5612881563729686E-020
   2.3100000000000002E-002    -1.2846875354551591E-019
   2.3400000000000004E-002    -8.7365542282432322E-020
   2.3699999999999999E-002     3.5388133754831169E-019
   2.4000000000000000E-002     5.3954713630328940E-019
   2.4300000000000002E-002    -3.4222019609282624E-018
   2.4599999999999997E-002     2.4564354453276097E-018
   2.4900000000000005E-002     1.9606584836573124E-017
   2.5200000000000000E-002    -6.2535447243035914E-017
   2.5499999999999995E-002     1.5795875266674419E-017
   2.5800000000000003E-002     3.5171426617711302E-016
   2.6099999999999998E-002    -8.0846173591048295E-016
   2.6400000000000007E-002    -5.2424860094005068E-016
   2.6700000000000002E-002     5.5194070332577849E-015
   2.6999999999999996E-002    -5.7888644238494258E-015
   2.7300000000000005E-002    -2.2540954939880995E-014
   2.7600000000000000E-002     6.3573350531127265E-014
   2.7900000000000008E-002     4.1513203284929518E-014
   2.8200000000000003E-002    -4.0228170443798827E-013
   2.8499999999999998E-002     2.8277135723107356E-013
   2.8800000000000006E-002     1.7386701006120452E-012
   2.9100000000000001E-002    -3.5010755768500316E-012
   2.9400000000000003E-002    -4.1775617359363463E-012
   2.9700000000000004E-002     2.0623212277623855E-011
   3.0000000000000006E-002    -4.7391284966720276E-012
   3.0300000000000001E-002    -7.8859755856567503E-011
   3.0600000000000002E-002     9.9028849950322700E-011
   3.0900000000000004E-002     1.8638928793896226E-010
   3.1199999999999999E-002    -5.1154206777883062E-010
   3.1500000000000007E-002    -1.1349364528270002E-010
   3.1800000000000002E-002     1.5874645694705224E-009
   3.2099999999999997E-002    -1.1049710574434632E-009
   3.2400000000000005E-002    -2.8834099785946904E-009
   3.2700000000000000E-002     5.2176875253377462E-009
   3.3000000000000002E-002     5.3398026109673093E-010
   3.3300000000000003E-002    -1.2061592046269606E-008
   3.3599999999999998E-002     1.5306606520602245E-008
   3.3900000000000000E-002     1.1227726865447508E-008
   3.4200000000000001E-002    -6.4055227604213512E-008
   3.4500000000000003E-002     2.4646562613817807E-009
   3.4799999999999998E-002     2.6213996308913986E-007
   3.5099999999999999E-002     1.1170997105904684E-006
   3.5400000000000001E-002     4.4147203983653651E-006
   3.5699999999999996E-002     1.1088781196267372E-005
   3.6000000000000004E-002     1.9163944657259279E-005
   3.6299999999999999E-002     2.8345797574009780E-005
   3.6600000000000008E-002     4.2171770327337102E-005
   3.6900000000000002E-002     6.3123079401004569E-005
   3.7199999999999997E-002     9.3628557740532990E-005
   3.7500000000000006E-002     1.4063951654388077E-004
   3.7800000000000000E-002     2.1273607800656908E-004
   3.8100000000000009E-002     3.1945237375443671E-004
   3.8400000000000004E-002     4.7390084330704949E-004
   3.8699999999999998E-002     6.9009658129086978E-004
   3.9000000000000007E-002     9.8720833126490467E-004
   3.9300000000000002E-002     1.3958578926278873E-003
   3.9600000000000003E-002     1.9473604629084006E-003
   3.9900000000000005E-002     2.6682119364042261E-003
   4.0200000000000000E-002     3.5929768374977134E-003
   4.0500000000000001E-002     4.7641769108185848E-003
   4.0800000000000003E-002     6.2180813502330278E-003
   4.1100000000000005E-002     7.9847835167023550E-003
   4.1399999999999999E-002     1.0095288070701718E-002
   4.1700000000000008E-002     1.2569881081500645E-002
   4.2000000000000003E-002     1.5390194074852133E-002
   4.2299999999999997E-002     1.8494088277905114E-002
   4.2600000000000006E-002     2.1805841577741507E-002
   4.2900000000000001E-002     2.5242462888868576E-002
   4.3200000000000002E-002     2.8679078618687757E-002
   4.3500000000000004E-002     3.1943932395395766E-002
   4.3799999999999999E-002     3.4853350642002387E-002
   4.4100000000000000E-002     3.7233539250715798E-002
   4.4400000000000002E-002     3.8931027434819819E-002
   4.4700000000000004E-002     3.9829455748976568E-002
   4.4999999999999998E-002     3.9876640322411512E-002
   4.5300000000000000E-002     3.9103404200944492E-002
   4.5600000000000002E-002     3.7607651732650321E-002
   4.5899999999999996E-002     3.5540160311719020E-002
   4.6200000000000005E-002     3.3105686788252361E-002
   4.6500000000000000E-002     3.0507076937814792E-002
   4.6799999999999994E-002     2.7834572188219706E-002
   4.7100000000000003E-002     2.4998108056320845E-002
   4.7399999999999998E-002     2.1662998873302149E-002
   4.7700000000000006E-002     1.7155360114655759E-002
   4.8000000000000001E-002     1.0381043290658365E-002
   4.8300000000000010E-002    -1.6619199045120548E-004
   4.8600000000000004E-002    -1.6370856518135590E-002
   4.8899999999999999E-002    -4.0363823725029724E-002
   4.9200000000000008E-002    -7.4329109939283156E-002
   4.9500000000000002E-002   -0.12023575831465796     
   4.9800000000000011E-002   -0.17953650912021266     
   5.0100000000000006E-002   -0.25280490804021127     
   5.0400000000000000E-002   -0.33940306615745447     
   5.0700000000000009E-002   -0.43719831437188122     
   5.1000000000000004E-002   -0.54241997343916071     
   5.1299999999999998E-002   -0.64962834465665864     
   5.1600000000000007E-002   -0.75185090647551234     
   5.1900000000000002E-002   -0.84098023510416586     
   5.2200000000000010E-002   -0.90827125626223792     
   5.2500000000000005E-002   -0.94501525450528978     
   5.2800000000000000E-002   -0.94336200008529292     
   5.3099999999999994E-002   -0.89711749751856751     
   5.3400000000000003E-002   -0.80246502297940780     
   5.3699999999999998E-002   -0.65859872167252032     
   5.4000000000000006E-002   -0.46810570340994401     
   5.4300000000000001E-002   -0.23713593074942149     
   5.4599999999999996E-002     2.4787986872300067E-002
   5.4900000000000004E-002    0.30529368233650378     
   5.5199999999999999E-002    0.58984607869047057     
   5.5499999999999994E-002    0.86283261090706564     
   5.5800000000000002E-002     1.1087049305064658     
   5.6099999999999997E-002     1.3130613631743699     
   5.6400000000000006E-002     1.4639835429099919     
   5.6700000000000000E-002     1.5528628900415391     
   5.6999999999999995E-002     1.5751234367569231     
   5.7300000000000004E-002     1.5307332349557214     
   5.7599999999999998E-002     1.4241505928670313     
   5.7900000000000007E-002     1.2641080678047099     
   5.8200000000000002E-002     1.0626912167966729     
   5.8499999999999996E-002    0.83465421602560075     
   5.8800000000000005E-002    0.59601873446089138     
   5.9100000000000000E-002    0.36278721858078306     
   5.9400000000000008E-002    0.14987757853598088     
   5.9700000000000003E-002    -3.0386748351281800E-002
   6.0000000000000012E-002   -0.16875723154995051     
   6.0300000000000006E-002   -0.25999993314457848     
   6.0600000000000001E-002   -0.30284399082172336     
   6.0900000000000010E-002   -0.30002272456671197     
   6.1200000000000004E-002   -0.25767714132854119     
   6.1500000000000013E-002   -0.18457901827641460     
   6.1800000000000008E-002    -9.1247919577817499E-002
   6.2100000000000002E-002     1.1305927011545593E-002
   6.2399999999999997E-002    0.11228081314315742     
   6.2700000000000006E-002    0.20225144699168024     
   6.3000000000000000E-002    0.27358493036696951     
   6.3300000000000009E-002    0.32096913338867422     
   6.3600000000000004E-002    0.34160035784848275     
   6.3899999999999998E-002    0.33485421527711351     
   6.4199999999999993E-002    0.30217567125503064     
   6.4500000000000002E-002    0.24647247876091902     
   6.4800000000000010E-002    0.17174425845534247     
   6.5100000000000005E-002     8.2466328226004137E-002
   6.5400000000000000E-002    -1.6624659341268791E-002
   6.5700000000000008E-002   -0.12091411451871116     
   6.5999999999999989E-002   -0.22604745420992192     
   6.6299999999999998E-002   -0.32788702642462114     
   6.6600000000000006E-002   -0.42244887160798533     
   6.6900000000000001E-002   -0.50598466225122263     
   6.7199999999999996E-002   -0.57462286805469798     
   6.7500000000000004E-002   -0.62474393734051681     
   6.7800000000000013E-002   -0.65296423361309119     
   6.8099999999999994E-002   -0.65634363854009259     
   6.8400000000000002E-002   -0.63297671080728268     
   6.8700000000000011E-002   -0.58222740923751370     
   6.8999999999999992E-002   -0.50540530746431955     
   6.9300000000000000E-002   -0.40589916796010544     
   6.9600000000000009E-002   -0.28962698689513977     
   6.9900000000000004E-002   -0.16481392214424390     
   7.0199999999999999E-002    -4.1679286946428008E-002
   7.0500000000000007E-002     6.7914826952117133E-002
   7.0800000000000016E-002    0.15165379442564747     
   7.1099999999999997E-002    0.19770732279050723     
   7.1400000000000005E-002    0.19583196638443312     
   7.1700000000000000E-002    0.13862266764524439     
   7.1999999999999995E-002     2.2686197475160527E-002
   7.2300000000000003E-002   -0.15085049535387315     
   7.2600000000000012E-002   -0.37579051331733615     
   7.2900000000000006E-002   -0.64102352448187705     
   7.3200000000000001E-002   -0.93109525136479776     
   7.3499999999999996E-002    -1.2271065809272457     
   7.3800000000000004E-002    -1.5080511673277954     
   7.4099999999999999E-002    -1.7527979718062687     
   7.4400000000000008E-002    -1.9413623913741795     
   7.4700000000000003E-002    -2.0568611719374323     
   7.5000000000000011E-002    -2.0869507875977851     
   7.5299999999999992E-002    -2.0247211527152507     
   7.5600000000000001E-002    -1.8694868139425460     
   7.5900000000000009E-002    -1.6269865065664264     
   7.6200000000000004E-002    -1.3084337717540566     
   7.6499999999999999E-002   -0.93016934221091763     
   7.6800000000000007E-002   -0.51192855438012541     
   7.7099999999999988E-002    -7.5270482911413139E-002
   7.7399999999999997E-002    0.35793412487670084     
   7.7700000000000005E-002    0.76723278441699505     
   7.8000000000000014E-002     1.1350648497311924     
   7.8299999999999995E-002     1.4478747940705663     
   7.8600000000000003E-002     1.6964148376369779     
   7.8900000000000012E-002     1.8766329375185797     
   7.9199999999999993E-002     1.9885758238538855     
   7.9500000000000001E-002     2.0362725323256790     
   7.9800000000000010E-002     2.0271604113911623     
   8.0100000000000018E-002     1.9698795120848462     
   8.0399999999999999E-002     1.8747539549989973     
   8.0700000000000008E-002     1.7514340898473435     
   8.1000000000000003E-002     1.6089289203321617     
   8.1299999999999997E-002     1.4551194918168455     
   8.1600000000000006E-002     1.2960463774396038     
   8.1900000000000014E-002     1.1365423217725588     
   8.2199999999999995E-002    0.98018270939034646     
   8.2500000000000004E-002    0.82953077838532174     
   8.2799999999999999E-002    0.68702060355281669     
   8.3100000000000007E-002    0.55487537846854385     
   8.3400000000000002E-002    0.43573228074740505     
   8.3700000000000011E-002    0.33234915763726786     
   8.4000000000000005E-002    0.24818875580271668     
   8.4300000000000000E-002    0.18669106786367376     
   8.4599999999999995E-002    0.15102293328764521     
   8.4900000000000003E-002    0.14428827882075648     
   8.5199999999999998E-002    0.16782341084270608     
   8.5500000000000007E-002    0.22236304602533633     
   8.5800000000000001E-002    0.30648163504042020     
   8.6100000000000010E-002    0.41647688016366591     
   8.6399999999999991E-002    0.54703492304916013     
   8.6699999999999999E-002    0.68988639418807207     
   8.7000000000000008E-002    0.83529550073796877     
   8.7300000000000003E-002    0.97109139152257107     
   8.7599999999999997E-002     1.0839626804266462     
   8.7900000000000006E-002     1.1594753278422054     
   8.8200000000000014E-002     1.1830962908211973     
   8.8499999999999995E-002     1.1412159215212980     
   8.8800000000000004E-002     1.0213016280508660     
   8.9100000000000013E-002    0.81393933348459657     
   8.9399999999999993E-002    0.51307380186572249     
   8.9700000000000002E-002    0.11716901396957498     
   9.0000000000000011E-002   -0.36960703394822442     
   9.0299999999999991E-002   -0.93791991923345930     
   9.0600000000000000E-002    -1.5714403459709654     
   9.0900000000000009E-002    -2.2484102345641914     
   9.1200000000000017E-002    -2.9414470322891688     
   9.1499999999999998E-002    -3.6183846156267316     
   9.1800000000000007E-002    -4.2444391442036782     
   9.2100000000000001E-002    -4.7828698379741752     
   9.2399999999999996E-002    -5.1982941874804727     
   9.2700000000000005E-002    -5.4579615859934041     
   9.3000000000000013E-002    -5.5344796459317660     
   9.3300000000000008E-002    -5.4077487272499951     
   9.3600000000000003E-002    -5.0670676503256873     
   9.3899999999999997E-002    -4.5121836913947506     
   9.4200000000000006E-002    -3.7538528662346002     
   9.4500000000000001E-002    -2.8144815145226487     
   9.4800000000000009E-002    -1.7263946657500207     
   9.5100000000000004E-002   -0.53099871312422919     
   9.5399999999999999E-002    0.72355091617405254     
   9.5699999999999993E-002     1.9853417949425973     
   9.6000000000000002E-002     3.2012453227882798     
   9.6300000000000011E-002     4.3200965147264965     
   9.6600000000000005E-002     5.2959308910103706     
   9.6900000000000000E-002     6.0898881303207659     
   9.7200000000000009E-002     6.6724915897995718     
   9.7499999999999989E-002     7.0251985026396602     
   9.7799999999999998E-002     7.1399393534699884     
   9.8100000000000007E-002     7.0202947123647075     
   9.8400000000000015E-002     6.6791820979029852     
   9.8699999999999996E-002     6.1383395624499260     
   9.9000000000000005E-002     5.4262280855245164     
   9.9300000000000013E-002     4.5759368281897679     
   9.9599999999999994E-002     3.6235654629116909     
   9.9900000000000003E-002     2.6054554186893477     
  0.10020000000000001          1.5577402235119515     
  0.10049999999999999         0.51378524651248303     
  0.10080000000000000        -0.49596879408033395     
  0.10110000000000001         -1.4447523493314758     
  0.10140000000000000         -2.3104193429664712     
  0.10170000000000000         -3.0747013385320372     
  0.10200000000000001         -3.7238490939401570     
  0.10230000000000002         -4.2481766157683838     
  0.10260000000000000         -4.6415839644957426     
  0.10290000000000001         -4.9020734307015754     
  0.10320000000000000         -5.0310192589845188     
  0.10350000000000001         -5.0329885956306013     
  0.10380000000000000         -4.9160972091148274     
  0.10410000000000001         -4.6916637831514842     
  0.10440000000000001         -4.3729043366387392     
  0.10470000000000000         -3.9765012561771442     
  0.10500000000000000         -3.5199856986550597     
  0.10530000000000000         -3.0224292433840598     
  0.10560000000000000         -2.5027802073015599     
  0.10590000000000001         -1.9784178747109529     
  0.10620000000000000         -1.4655947636160571     
  0.10650000000000001        -0.97687905011989029     
  0.10679999999999999        -0.52156917820672699     
  0.10710000000000000        -0.10482483895994715     
  0.10740000000000001         0.27212892826684232     
  0.10770000000000000         0.61171050753998235     
  0.10800000000000000         0.91899378915381957     
  0.10830000000000001          1.2003002334121120     
  0.10859999999999999          1.4626199157436075     
  0.10890000000000000          1.7115816011219125     
  0.10920000000000001          1.9506031393959966     
  0.10950000000000001          2.1799697986542976     
  0.10979999999999999          2.3967306722937924     
  0.11009999999999999          2.5941047783759581     
  0.11040000000000001          2.7632196078231965     
  0.11070000000000001          2.8928740172419354     
  0.11100000000000000          2.9718208483297679     
  0.11130000000000000          2.9895110323549710     
  0.11160000000000002          2.9379515861209997     
  0.11190000000000001          2.8118744124400727     
  0.11220000000000001          2.6104676957704820     
  0.11250000000000000          2.3364739648788135     
  0.11280000000000000          1.9971151568730674     
  0.11309999999999999          1.6029957725352262     
  0.11340000000000001          1.1668032567212356     
  0.11369999999999998         0.70374215843051868     
  0.11400000000000000         0.22880528130778638     
  0.11430000000000000        -0.24226671154955021     
  0.11460000000000002        -0.69474315775015405     
  0.11489999999999999         -1.1152234129674281     
  0.11520000000000001         -1.4916241253912261     
  0.11550000000000001         -1.8134913554757774     
  0.11580000000000000         -2.0724594720829042     
  0.11609999999999999         -2.2619986672003520     
  0.11640000000000002         -2.3774945877981870     
  0.11670000000000001         -2.4179270408861466     
  0.11700000000000001         -2.3837700028379674     
  0.11730000000000000         -2.2800862923297922     
  0.11760000000000000         -2.1146710049598463     
  0.11789999999999999         -1.8983593116244994     
  0.11820000000000001         -1.6461070905927560     
  0.11850000000000001         -1.3737548723157371     
  0.11880000000000000         -1.0995896001421961     
  0.11910000000000000        -0.84142716193082978     
  0.11940000000000002        -0.61570282312441671     
  0.11970000000000001        -0.43649666097812018     
  0.12000000000000001        -0.31313859046103415     
  0.12030000000000000        -0.25067861499016003     
  0.12060000000000000        -0.24817732060764960     
  0.12089999999999999        -0.29926519103796173     
  0.12119999999999999        -0.39239303658359403     
  0.12150000000000001        -0.51108248272239187     
  0.12180000000000001        -0.63714785430535292     
  0.12210000000000000        -0.74930609115267044     
  0.12239999999999999        -0.82776177551147689     
  0.12270000000000002        -0.85369444284654228     
  0.12300000000000001        -0.81155949990685461     
  0.12330000000000001        -0.69100314307855226     
  0.12360000000000000        -0.48609161084265756     
  0.12390000000000000        -0.19767540189105848     
  0.12419999999999999         0.16761476502219838     
  0.12450000000000001         0.59730220718824667     
  0.12480000000000001          1.0734596355794601     
  0.12509999999999999          1.5744789954924219     
  0.12540000000000001          2.0752604133651960     
  0.12570000000000003          2.5496544970035768     
  0.12600000000000000          2.9713437691613360     
  0.12630000000000002          3.3157544268530477     
  0.12659999999999999          3.5615036613665882     
  0.12690000000000001          3.6912369843567276     
  0.12719999999999998          3.6931557756008084     
  0.12750000000000000          3.5604472242954794     
  0.12780000000000002          3.2929918827958486     
  0.12809999999999999          2.8956277410961651     
  0.12840000000000001          2.3795535584545848     
  0.12869999999999998          1.7609974148795924     
  0.12900000000000000          1.0607680074381649     
  0.12930000000000003         0.30595335262267598     
  0.12959999999999999        -0.47287061816377957     
  0.12990000000000002         -1.2381581045490180     
  0.13019999999999998         -1.9487559734385211     
  0.13050000000000000         -2.5575985794215530     
  0.13080000000000003         -3.0149915037430510     
  0.13109999999999999         -3.2696435194301108     
  0.13140000000000002         -3.2718014380056308     
  0.13169999999999998         -2.9798097197020295     
  0.13200000000000001         -2.3627955436743062     
  0.13229999999999997         -1.4096968848268423     
  0.13260000000000000        -0.13295175825273328     
  0.13290000000000002          1.4257867832852105     
  0.13319999999999999          3.1923740331552861     
  0.13350000000000001          5.0613584818012010     
  0.13380000000000003          6.8974714413612990     
  0.13410000000000000          8.5452318125029780     
  0.13440000000000002          9.8384799666368963     
  0.13469999999999999          10.613884873652317     
  0.13500000000000001          10.728692934363599     
  0.13529999999999998          10.074558165421678     
  0.13560000000000000          8.5943573845582151     
  0.13590000000000002          6.2928427525415982     
  0.13619999999999999          3.2432633721923736     
  0.13650000000000001        -0.41064642012107061     
  0.13680000000000003         -4.4627185690594731     
  0.13710000000000000         -8.6546974747538368     
  0.13740000000000002         -12.697216059157887     
  0.13769999999999999         -16.290416708198197     
  0.13800000000000001         -19.150653794698695     
  0.13829999999999998         -21.035148543404809     
  0.13860000000000000         -21.763439073549868     
  0.13890000000000002         -21.236907833710568     
  0.13919999999999999         -19.446346146470422     
  0.13950000000000001         -16.477144103731590     
  0.13979999999999998         -12.502158036487620     
  0.14010000000000000         -7.7684811447353832     
  0.14040000000000002         -2.5786654117371026     
  0.14069999999999999          2.7361212281885483     
  0.14100000000000001          7.8382482672604610     
  0.14130000000000004          12.413458801518212     
  0.14160000000000000          16.190082492098274     
  0.14189999999999997          18.960424333873075     
  0.14219999999999999          20.589107398489737     
  0.14250000000000002          21.021341190360531     
  0.14279999999999998          20.280029152518903     
  0.14310000000000000          18.457431645838081     
  0.14339999999999997          15.705845689766788     
  0.14369999999999999          12.218969212924486     
  0.14400000000000002          8.2190998825782859     
  0.14429999999999998          3.9367302893718423     
  0.14460000000000001        -0.40107835603445247     
  0.14490000000000003         -4.5859280107927205     
  0.14520000000000000         -8.4364347682555501     
  0.14550000000000002         -11.804410932532333     
  0.14579999999999999         -14.579364751788319     
  0.14610000000000001         -16.686874344079030     
  0.14640000000000003         -18.088798459222794     
  0.14670000000000000         -18.777706067341033     
  0.14699999999999996         -18.774274735144957     
  0.14729999999999999         -18.120302100699778     
  0.14760000000000001         -16.874996080292131     
  0.14789999999999998         -15.109031570155294     
  0.14820000000000000         -12.901811493708930     