  -1.4999999999999999E-002     0.0000000000000000     
  -1.4700000000000000E-002     0.0000000000000000     
  -1.4400000000000000E-002     0.0000000000000000     
  -1.4100000000000000E-002     0.0000000000000000     
  -1.3800000000000000E-002     0.0000000000000000     
  -1.3500000000000000E-002     0.0000000000000000     
  -1.3200000000000000E-002     0.0000000000000000     
  -1.2899999999999998E-002     0.0000000000000000     
  -1.2600000000000000E-002     0.0000000000000000     
  -1.2299999999999998E-002     0.0000000000000000     
  -1.2000000000000000E-002     0.0000000000000000     
  -1.1699999999999999E-002     0.0000000000000000     
  -1.1399999999999999E-002     0.0000000000000000     
  -1.1099999999999999E-002     0.0000000000000000     
  -1.0799999999999999E-002     0.0000000000000000     
  -1.0499999999999999E-002     0.0000000000000000     
  -1.0199999999999999E-002     0.0000000000000000     
  -9.8999999999999991E-003     0.0000000000000000     
  -9.5999999999999992E-003     0.0000000000000000     
  -9.2999999999999992E-003     0.0000000000000000     
  -8.9999999999999993E-003     0.0000000000000000     
  -8.6999999999999994E-003     0.0000000000000000     
  -8.3999999999999995E-003     0.0000000000000000     
  -8.0999999999999996E-003     0.0000000000000000     
  -7.7999999999999988E-003     0.0000000000000000     
  -7.4999999999999997E-003     0.0000000000000000     
  -7.1999999999999998E-003     0.0000000000000000     
  -6.8999999999999981E-003     0.0000000000000000     
  -6.5999999999999982E-003     0.0000000000000000     
  -6.3000000000000000E-003     0.0000000000000000     
  -6.0000000000000001E-003     0.0000000000000000     
  -5.6999999999999985E-003     0.0000000000000000     
  -5.3999999999999986E-003     0.0000000000000000     
  -5.1000000000000004E-003     0.0000000000000000     
  -4.7999999999999987E-003     0.0000000000000000     
  -4.5000000000000005E-003     0.0000000000000000     
  -4.1999999999999989E-003     0.0000000000000000     
  -3.8999999999999990E-003     0.0000000000000000     
  -3.5999999999999990E-003     0.0000000000000000     
  -3.2999999999999991E-003     0.0000000000000000     
  -2.9999999999999992E-003     0.0000000000000000     
  -2.6999999999999993E-003     0.0000000000000000     
  -2.3999999999999994E-003     0.0000000000000000     
  -2.0999999999999977E-003    -1.7812937458944904E-037
  -1.7999999999999995E-003    -1.3568383423591969E-035
  -1.4999999999999979E-003     8.8603811812661685E-035
  -1.1999999999999997E-003    -1.6857003247822264E-034
  -8.9999999999999976E-004     9.1749218773283961E-034
  -5.9999999999999810E-004    -2.3530426069584408E-033
  -2.9999999999999992E-004     1.5461098528480220E-033
   0.0000000000000000          2.8681743552271890E-033
   3.0000000000000165E-004    -5.4192472892294511E-033
   5.9999999999999984E-004     4.1266724107906573E-033
   9.0000000000000149E-004    -5.0074625408641477E-032
   1.2000000000000031E-003     2.4904291659760051E-031
   1.5000000000000013E-003    -4.2330134370409984E-031
   1.8000000000000030E-003    -2.7975664253124461E-031
   2.1000000000000012E-003     2.6989088339921832E-030
   2.3999999999999994E-003    -5.1454667382402619E-030
   2.7000000000000010E-003    -4.7089051107075039E-032
   2.9999999999999992E-003     2.2936738447677189E-029
   3.3000000000000008E-003    -4.8231261151105626E-029
   3.6000000000000025E-003     3.9180315937471739E-031
   3.9000000000000007E-003     2.0009602529657807E-028
   4.2000000000000023E-003    -4.1693084222660346E-028
   4.5000000000000005E-003     6.9270195700646957E-029
   4.7999999999999987E-003     1.5814145325055716E-027
   5.1000000000000004E-003    -3.7499137775379454E-027
   5.4000000000000020E-003     1.5277018763811782E-027
   5.7000000000000037E-003     1.2088934692997369E-026
   5.9999999999999984E-003    -3.1574021235236169E-026
   6.3000000000000000E-003     1.8284600012631865E-026
   6.6000000000000017E-003     8.5391145083999927E-026
   6.9000000000000034E-003    -2.4661178990474487E-025
   7.2000000000000015E-003     1.7336861069255002E-025
   7.5000000000000032E-003     5.8291927510454738E-025
   7.8000000000000014E-003    -1.7799971196719820E-024
   8.0999999999999996E-003     1.3056416738412754E-024
   8.4000000000000012E-003     3.9011027814009951E-024
   8.7000000000000029E-003    -1.1874221801242355E-023
   9.0000000000000011E-003     7.9421811014213603E-024
   9.2999999999999992E-003     2.7212762309598248E-023
   9.6000000000000009E-003    -7.4942552733890655E-023
   9.8999999999999991E-003     3.4598970897701748E-023
   1.0200000000000001E-002     1.9772205761867538E-022
   1.0500000000000002E-002    -4.4470159785949327E-022
   1.0800000000000004E-002     6.1979700708117992E-023
   1.1099999999999999E-002     1.3823372861776309E-021
   1.1400000000000000E-002    -2.4240165296528820E-021
   1.1700000000000002E-002    -6.1981457104347190E-022
   1.2000000000000004E-002     8.6971655902576387E-021
   1.2300000000000002E-002    -1.1714616939077486E-020
   1.2600000000000000E-002    -8.3005607436841805E-021
   1.2900000000000002E-002     4.7727701964412389E-020
   1.3200000000000000E-002    -4.8794800507921227E-020
   1.3500000000000002E-002    -6.1575037389591585E-020
   1.3800000000000003E-002     2.2686430166038066E-019
   1.4100000000000001E-002    -1.6940631013741382E-019
   1.4400000000000000E-002    -3.4705149260703706E-019
   1.4700000000000001E-002     9.3175439387672950E-019
   1.4999999999999999E-002    -4.6420158810960259E-019
   1.5300000000000001E-002    -1.5971658437643223E-018
   1.5600000000000003E-002     3.3041500411987021E-018
   1.5899999999999997E-002    -8.7718353198735118E-019
   1.6199999999999999E-002    -6.1502608311694359E-018
   1.6500000000000001E-002     1.0130369589008173E-017
   1.6800000000000002E-002    -5.2869431213329987E-019
   1.7100000000000004E-002    -1.9987483383952731E-017
   1.7400000000000006E-002     2.7242017412427722E-017
   1.7700000000000000E-002     3.0308173563541338E-018
   1.8000000000000002E-002    -5.5387157214827953E-017
   1.8300000000000004E-002     6.7578409038292493E-017
   1.8600000000000005E-002     1.0196474642810866E-017
   1.8900000000000000E-002    -1.3588305630204933E-016
   1.9200000000000002E-002     1.7188290741145945E-016
   1.9500000000000003E-002     2.5877684972410008E-018
   1.9799999999999998E-002    -3.2776941384922150E-016
   2.0100000000000000E-002     4.8340866521081858E-016
   2.0400000000000001E-002    -6.9298354456133666E-017
   2.0700000000000003E-002    -8.7307233637069254E-016
   2.0999999999999998E-002     1.4144131256021220E-015
   2.1299999999999999E-002    -2.7388289731411464E-016
   2.1600000000000001E-002    -2.5285964923567625E-015
   2.1900000000000003E-002     4.4263173594669219E-015
   2.2200000000000004E-002    -1.0492682383373651E-015
   2.2500000000000006E-002    -9.3851989485241909E-015
   2.2800000000000001E-002     1.5805491060896359E-014
   2.3100000000000002E-002     4.6576390270638138E-015
   2.3400000000000004E-002    -3.4391569861019824E-014
   2.3699999999999999E-002    -6.8438483288119515E-015
   2.4000000000000000E-002     2.3035246935800694E-014
   2.4300000000000002E-002     3.1167156089079304E-013
   2.4599999999999997E-002    -2.1162006760453259E-013
   2.4900000000000005E-002    -2.3281940301876009E-012
   2.5200000000000000E-002     2.8096556347913291E-012
   2.5499999999999995E-002     1.1211228261910665E-011
   2.5800000000000003E-002    -1.9966549996040233E-011
   2.6099999999999998E-002    -4.3918548096702561E-011
   2.6400000000000007E-002     1.1232679833616227E-010
   2.6700000000000002E-002     1.2668472686883523E-010
   2.6999999999999996E-002    -5.1092415884871622E-010
   2.7300000000000005E-002    -1.4397025387589525E-010
   2.7600000000000000E-002     1.6864575757809812E-009
   2.7900000000000008E-002    -7.0950368222851560E-010
   2.8200000000000003E-002    -3.1873040655004788E-009
   2.8499999999999998E-002     4.2402993095607666E-009
   2.8800000000000006E-002    -2.5993311194508604E-009
   2.9100000000000001E-002    -1.0247057926462093E-008
   2.9400000000000003E-002     5.0861262852273354E-008
   2.9700000000000004E-002     2.0623337940523491E-009
   3.0000000000000006E-002    -2.9900957248309916E-007
   3.0300000000000001E-002     8.2735886697412112E-008
   3.0600000000000002E-002     2.3731440331859154E-006
   3.0900000000000004E-002     6.3050004641111711E-006
   3.1199999999999999E-002     1.2508700607004450E-005
   3.1500000000000007E-002     2.4607028189611439E-005
   3.1800000000000002E-002     4.2103757610909588E-005
   3.2099999999999997E-002     5.8215499396290994E-005
   3.2400000000000005E-002     7.8134564669433317E-005
   3.2700000000000000E-002     1.2483775002715552E-004
   3.3000000000000002E-002     2.0751368321255266E-004
   3.3300000000000003E-002     3.1238627799045569E-004
   3.3599999999999998E-002     4.4668368948489839E-004
   3.3900000000000000E-002     6.4888443972275416E-004
   3.4200000000000001E-002     9.4302346043121212E-004
   3.4500000000000003E-002     1.3388617401807108E-003
   3.4799999999999998E-002     1.8740763989951396E-003
   3.5099999999999999E-002     2.6012635286959147E-003
   3.5400000000000001E-002     3.5533552766519806E-003
   3.5699999999999996E-002     4.7610624698045390E-003
   3.6000000000000004E-002     6.2700923240255049E-003
   3.6299999999999999E-002     8.1131531204216532E-003
   3.6600000000000008E-002     1.0289418310024055E-002
   3.6900000000000002E-002     1.2771765451407548E-002
   3.7199999999999997E-002     1.5501937524619007E-002
   3.7500000000000006E-002     1.8362046789587888E-002
   3.7800000000000000E-002     2.1155699671165120E-002
   3.8100000000000009E-002     2.3605603259102458E-002
   3.8400000000000004E-002     2.5340878834552362E-002
   3.8699999999999998E-002     2.5887591250965507E-002
   3.9000000000000007E-002     2.4696491167919908E-002
   3.9300000000000002E-002     2.1162658507380604E-002
   3.9600000000000003E-002     1.4651377390278600E-002
   3.9900000000000005E-002     4.5840920851624861E-003
   4.0200000000000000E-002    -9.4797553526825180E-003
   4.0500000000000001E-002    -2.7774571826161817E-002
   4.0800000000000003E-002    -5.0193740924082277E-002
   4.1100000000000005E-002    -7.6187735772473147E-002
   4.1399999999999999E-002   -0.10468700319622452     
   4.1700000000000008E-002   -0.13399600715167512     
   4.2000000000000003E-002   -0.16178451154963899     
   4.2299999999999997E-002   -0.18516517804754423     
   4.2600000000000006E-002   -0.20077824189878893     
   4.2900000000000001E-002   -0.20495834535151261     
   4.3200000000000002E-002   -0.19404886273184396     
   4.3500000000000004E-002   -0.16476870742475705     
   4.3799999999999999E-002   -0.11454283961911378     
   4.4100000000000000E-002    -4.1929173397064180E-002
   4.4400000000000002E-002     5.2964194494918522E-002
   4.4700000000000004E-002    0.16817804824600524     
   4.4999999999999998E-002    0.29981195311190728     
   4.5300000000000000E-002    0.44198351191655316     
   4.5600000000000002E-002    0.58698450314609296     
   4.5899999999999996E-002    0.72569714487133830     
   4.6200000000000005E-002    0.84821496651728778     
   4.6500000000000000E-002    0.94456205810982508     
   4.6799999999999994E-002     1.0055060179907676     
   4.7100000000000003E-002     1.0234890965694039     
   4.7399999999999998E-002    0.99333302123527734     
   4.7700000000000006E-002    0.91282634050568390     
   4.8000000000000001E-002    0.78307925046710503     
   4.8300000000000010E-002    0.60866658634224668     
   4.8600000000000004E-002    0.39715271382326128     
   4.8899999999999999E-002    0.15869091140972671     
   4.9200000000000008E-002    -9.4825422072310830E-002
   4.9500000000000002E-002   -0.35101585829224119     
   4.9800000000000011E-002   -0.59772859740614315     
   5.0100000000000006E-002   -0.82419566566316194     
   5.0400000000000000E-002    -1.0219516540033824     
   5.0700000000000009E-002    -1.1850944509931720     
   5.1000000000000004E-002    -1.3107845510271767     
   5.1299999999999998E-002    -1.3990078874207041     
   5.1600000000000007E-002    -1.4519395528193473     
   5.1900000000000002E-002    -1.4735246593436837     
   5.2200000000000010E-002    -1.4686423239319799     
   5.2500000000000005E-002    -1.4419284765061200     
   5.2800000000000000E-002    -1.3973979666450145     
   5.3099999999999994E-002    -1.3377172676835116     
   5.3400000000000003E-002    -1.2638060792355590     
   5.3699999999999998E-002    -1.1750514271525094     
   5.4000000000000006E-002    -1.0695422673625594     
   5.4300000000000001E-002   -0.94433538213630075     
   5.4599999999999996E-002   -0.79658619949549014     
   5.4900000000000004E-002   -0.62397454910265782     
   5.5199999999999999E-002   -0.42543562377614952     
   5.5499999999999994E-002   -0.20185529756508735     
   5.5800000000000002E-002     4.3656665244466222E-002
   5.6099999999999997E-002    0.30598928946063908     
   5.6400000000000006E-002    0.57755248617951727     
   5.6700000000000000E-002    0.84930483817502889     
   5.6999999999999995E-002     1.1113878268777484     
   5.7300000000000004E-002     1.3532291381719845     
   5.7599999999999998E-002     1.5648981019991477     
   5.7900000000000007E-002     1.7378775724796445     
   5.8200000000000002E-002     1.8650894981433568     
   5.8499999999999996E-002     1.9418978298081231     
   5.8800000000000005E-002     1.9662316638111379     
   5.9100000000000000E-002     1.9381559691469443     
   5.9400000000000008E-002     1.8603251790278066     
   5.9700000000000003E-002     1.7374791739962290     
   6.0000000000000012E-002     1.5754340558788906     
   6.0300000000000006E-002     1.3814022250104494     
   6.0600000000000001E-002     1.1630724420472556     
   6.0900000000000010E-002    0.92770997653740539     
   6.1200000000000004E-002    0.68232308289602750     
   6.1500000000000013E-002    0.43308030536991743     
   6.1800000000000008E-002    0.18491228898377571     
   6.2100000000000002E-002    -5.8302641053303191E-002
   6.2399999999999997E-002   -0.29371064419272092     
   6.2700000000000006E-002   -0.51968037121211763     
   6.3000000000000000E-002   -0.73491565949853366     
   6.3300000000000009E-002   -0.93842301886413260     
   6.3600000000000004E-002    -1.1293204794729963     
   6.3899999999999998E-002    -1.3056249351714393     
   6.4199999999999993E-002    -1.4650598462846922     
   6.4500000000000002E-002    -1.6039684679349389     
   6.4800000000000010E-002    -1.7176103235901363     
   6.5100000000000005E-002    -1.8002911432993953     
   6.5400000000000000E-002    -1.8456986760439440     
   6.5700000000000008E-002    -1.8474846696987464     
   6.5999999999999989E-002    -1.7997921335272349     
   6.6299999999999998E-002    -1.6982615838951816     
   6.6600000000000006E-002    -1.5408471510145871     
   6.6900000000000001E-002    -1.3277859420848166     
   6.7199999999999996E-002    -1.0630712298447653     
   6.7500000000000004E-002   -0.75384865732522355     
   6.7800000000000013E-002   -0.41054492440468032     
   6.8099999999999994E-002    -4.6653065821060116E-002
   6.8400000000000002E-002    0.32284333554514971     
   6.8700000000000011E-002    0.68142484153994165     
   6.8999999999999992E-002     1.0128841187903483     
   6.9300000000000000E-002     1.3025172680715362     
   6.9600000000000009E-002     1.5373838827202917     
   6.9900000000000004E-002     1.7081677569896974     
   7.0199999999999999E-002     1.8091045258043323     
   7.0500000000000007E-002     1.8379284973439882     
   7.0800000000000016E-002     1.7968413480078314     
   7.1099999999999997E-002     1.6910587224551410     
   7.1400000000000005E-002     1.5288263270288558     
   7.1700000000000000E-002     1.3208157771686770     
   7.1999999999999995E-002     1.0787051722066963     
   7.2300000000000003E-002    0.81540273214406422     
   7.2600000000000012E-002    0.54367881153564257     
   7.2900000000000006E-002    0.27574589512097841     
   7.3200000000000001E-002     2.3123565671129873E-002
   7.3499999999999996E-002   -0.20443063402990569     
   7.3800000000000004E-002   -0.39867811477689363     
   7.4099999999999999E-002   -0.55302475703525289     
   7.4400000000000008E-002   -0.66348491752540295     
   7.4700000000000003E-002   -0.72833542594706235     
   7.5000000000000011E-002   -0.74825559639252459     
   7.5299999999999992E-002   -0.72651253816036521     
   7.5600000000000001E-002   -0.66874830756975545     
   7.5900000000000009E-002   -0.58262764451591098     
   7.6200000000000004E-002   -0.47763609155769415     
   7.6499999999999999E-002   -0.36443602534606800     
   7.6800000000000007E-002   -0.25367113646740469     
   7.7099999999999988E-002   -0.15601686994214928     
   7.7399999999999997E-002    -8.0572343973490154E-002
   7.7700000000000005E-002    -3.4260086629091246E-002
   7.8000000000000014E-002    -2.1651235805250281E-002
   7.8299999999999995E-002    -4.3976539877011035E-002
   7.8600000000000003E-002    -9.9213909531434843E-002
   7.8900000000000012E-002   -0.18227005911098351     
   7.9199999999999993E-002   -0.28523813839193696     
   7.9500000000000001E-002   -0.39830412366954981     
   7.9800000000000010E-002   -0.51047723163551617     
   8.0100000000000018E-002   -0.61015532900405223     
   8.0399999999999999E-002   -0.68695907182890026     
   8.0700000000000008E-002   -0.73178349309256330     
   8.1000000000000003E-002   -0.73778550288177036     
   8.1299999999999997E-002   -0.70083062504762317     
   8.1600000000000006E-002   -0.61953722383825871     
   8.1900000000000014E-002   -0.49541618751525013     
   8.2199999999999995E-002   -0.33228418010434885     
   8.2500000000000004E-002   -0.13599849022747190     
   8.2799999999999999E-002     8.5957027437956829E-002
   8.3100000000000007E-002    0.32543744318996431     
   8.3400000000000002E-002    0.57352809280913486     
   8.3700000000000011E-002    0.82081160660231922     
   8.4000000000000005E-002     1.0576345654983228     
   8.4300000000000000E-002     1.2740397157195185     
   8.4599999999999995E-002     1.4593631904618536     
   8.4900000000000003E-002     1.6021876009050380     
   8.5199999999999998E-002     1.6905656730057272     
   8.5500000000000007E-002     1.7122480563266198     
   8.5800000000000001E-002     1.6549583399030325     
   8.6100000000000010E-002     1.5078850757673985     
   8.6399999999999991E-002     1.2623233631780877     
   8.6699999999999999E-002    0.91390972494619005     
   8.7000000000000008E-002    0.46333459136215405     
   8.7300000000000003E-002    -8.1998298984441290E-002
   8.7599999999999997E-002   -0.70666942590294546     
   8.7900000000000006E-002    -1.3876604669869534     
   8.8200000000000014E-002    -2.0943233477442265     
   8.8499999999999995E-002    -2.7893080102092158     
   8.8800000000000004E-002    -3.4315699815287251     
   8.9100000000000013E-002    -3.9781767519717670     
   8.9399999999999993E-002    -4.3879875275286757     
   8.9700000000000002E-002    -4.6251524991449600     
   9.0000000000000011E-002    -4.6621855813100561     
   9.0299999999999991E-002    -4.4827551016746128     
   9.0600000000000000E-002    -4.0834326010476785     
   9.0900000000000009E-002    -3.4749376168659838     
   9.1200000000000017E-002    -2.6819815192010354     
   9.1499999999999998E-002    -1.7410435419758501     
   9.1800000000000007E-002   -0.69890045584633265     
   9.2100000000000001E-002    0.39149095037681431     
   9.2399999999999996E-002     1.4745821589115884     
   9.2700000000000005E-002     2.4960147777653656     
   9.3000000000000013E-002     3.4071106183200066     
   9.3300000000000008E-002     4.1676072206603836     
   9.3600000000000003E-002     4.7482751826737557     
   9.3899999999999997E-002     5.1330398473337491     
   9.4200000000000006E-002     5.3189882163464395     
   9.4500000000000001E-002     5.3159660232491719     
   9.4800000000000009E-002     5.1447514467329274     
   9.5100000000000004E-002     4.8357604980235518     
   9.5399999999999999E-002     4.4254201974990739     
   9.5699999999999993E-002     3.9533185187819790     
   9.6000000000000002E-002     3.4595577046864263     
   9.6300000000000011E-002     2.9814335726846086     
   9.6600000000000005E-002     2.5512001027838402     
   9.6900000000000000E-002     2.1944818082373048     
   9.7200000000000009E-002     1.9276429053508506     
   9.7499999999999989E-002     1.7588436275374413     
   9.7799999999999998E-002     1.6868241711756349     
   9.8100000000000007E-002     1.7009380737924757     
   9.8400000000000015E-002     1.7836804054657993     
   9.8699999999999996E-002     1.9105895396349870     
   9.9000000000000005E-002     2.0526992883022408     
   9.9300000000000013E-002     2.1792857229604570     
   9.9599999999999994E-002     2.2578949493556757     
   9.9900000000000003E-002     2.2590250532195788     
  0.10020000000000001          2.1570422232822448     
  0.10049999999999999          1.9310507401146990     
  0.10080000000000000          1.5697986777271908     
  0.10110000000000001          1.0690303839222823     
  0.10140000000000000         0.43319540453747152     
  0.10170000000000000        -0.32191418857141452     
  0.10200000000000001         -1.1731786481420909     
  0.10230000000000002         -2.0910286474277378     
  0.10260000000000000         -3.0380422449432878     
  0.10290000000000001         -3.9748739386607075     
  0.10320000000000000         -4.8620900120769788     
  0.10350000000000001         -5.6596888347771657     
  0.10380000000000000         -6.3332461025338365     
  0.10410000000000001         -6.8554843468122444     
  0.10440000000000001         -7.2046674223256684     
  0.10470000000000000         -7.3700078426377651     
  0.10500000000000000         -7.3505104488747266     
  0.10530000000000000         -7.1517175186536912     
  0.10560000000000000         -6.7899774139195728     
  0.10590000000000001         -6.2885793381289199     
  0.10620000000000000         -5.6731694996780444     
  0.10650000000000001         -4.9763425793542426     
  0.10679999999999999         -4.2300809982943894     
  0.10710000000000000         -3.4648329535678823     
  0.10740000000000001         -2.7125031426815656     
  0.10770000000000000         -1.9992049557177114     
  0.10800000000000000         -1.3467068425693829     
  0.10830000000000001        -0.77524434207753290     
  0.10859999999999999        -0.29641034825259510     
  0.10890000000000000          8.2556125153742652E-002
  0.10920000000000001         0.35875629516229768     
  0.10950000000000001         0.53816955113917686     
  0.10979999999999999         0.63098792930015779     
  0.11009999999999999         0.65300856715959754     
  0.11040000000000001         0.62772201293655028     
  0.11070000000000001         0.58018319721907785     
  0.11100000000000000         0.53917734827358588     
  0.11130000000000000         0.53292017187871810     
  0.11160000000000002         0.58572344836041623     
  0.11190000000000001         0.71508495528752025     
  0.11220000000000001         0.92747233292938858     
  0.11250000000000000          1.2162406172712810     
  0.11280000000000000          1.5595276000661444     
  0.11309999999999999          1.9195037637097923     
  0.11340000000000001          2.2481667475230025     
  0.11369999999999998          2.4871758838478359     
  0.11400000000000000          2.5795304179847518     
  0.11430000000000000          2.4769935045266296     
  0.11460000000000002          2.1460544587414341     
  0.11489999999999999          1.5833002001292944     
  0.11520000000000001         0.81689541280225586     
  0.11550000000000001         -9.0458620453131161E-002
  0.11580000000000000         -1.0363944405115824     
  0.11609999999999999         -1.8932250140827023     
  0.11640000000000002         -2.5146638573815485     
  0.11670000000000001         -2.7493142220063684     
  0.11700000000000001         -2.4669193400731722     
  0.11730000000000000         -1.5691381064510892     
  0.11760000000000000         -1.0125356186648548E-002
  0.11789999999999999          2.1863696334018532     
  0.11820000000000001          4.9267777501477825     
  0.11850000000000001          8.0429847977802194     
  0.11880000000000000          11.302443259967209     
  0.11910000000000000          14.427605307402395     
  0.11940000000000002          17.117621986530235     
  0.11970000000000001          19.076703585808414     
  0.12000000000000001          20.044953833318367     
  0.12030000000000000          19.826945793160579     
  0.12060000000000000          18.312718911835624     
  0.12089999999999999          15.494807827167422     
  0.12119999999999999          11.475068768739021     
  0.12150000000000001          6.4563096346044109     
  0.12180000000000001         0.73284152408212699     
  0.12210000000000000         -5.3349078933633285     
  0.12239999999999999         -11.353384715362271     
  0.12270000000000002         -16.920753092258234     
  0.12300000000000001         -21.663711049532537     
  0.12330000000000001         -25.270997418619842     
  0.12360000000000000         -27.506400427731027     
  0.12390000000000000         -28.229344670477300     
  0.12419999999999999         -27.408027017928102     
  0.12450000000000001         -25.102130313297888     
  0.12480000000000001         -21.466136440553605     
  0.12509999999999999         -16.730771637526264     
  0.12540000000000001         -11.174072967202386     
  0.12570000000000003         -5.1113923856495811     
  0.12600000000000000          1.1295684258911023     
  0.12630000000000002          7.2381609159234213     
  0.12659999999999999          12.920990643701579     
  0.12690000000000001          17.924008909284932     
  0.12719999999999998          22.046967954334860     
  0.12750000000000000          25.130914113947480     
  0.12780000000000002          27.076524117608677     
  0.12809999999999999          27.840663278339616     
  0.12840000000000001          27.420930241802736     
  0.12869999999999998          25.871522319331984     
  0.12900000000000000          23.286031199130473     
  0.12930000000000003          19.789527448438385     
  0.12959999999999999          15.546777376674102     
  0.12990000000000002          10.738223789474880     
  0.13019999999999998          5.5586565677431885     
  0.13050000000000000         0.21718301826749228     
  0.13080000000000003         -5.0883096526843801     
  0.13109999999999999         -10.167055859790255     
  0.13140000000000002         -14.843973786372931     
  0.13169999999999998         -18.976052820714838     
  0.13200000000000001         -22.446248515652858     
  0.13229999999999997         -25.170478269061437     
  0.13260000000000000         -27.103196504854694     
  0.13290000000000002         -28.227527001814686     
  0.13319999999999999         -28.558869692302085     
  0.13350000000000001         -28.138991696356694     
  0.13380000000000003         -27.027665503316587     
  0.13410000000000000         -25.300376341268063     
  0.13440000000000002         -23.043378328481317     
  0.13469999999999999         -20.342866454613382     
  0.13500000000000001         -17.288833241243243     
  0.13529999999999998         -13.967556648309069     
  0.13560000000000000         -10.458278426560979     
  0.13590000000000002         -6.8378408825612578     
  0.13619999999999999         -3.1759058706178633     
  0.13650000000000001         0.46345805502491960     
  0.13680000000000003          4.0181464318090638     
  0.13710000000000000          7.4313572269078394     
  0.13740000000000002          10.646048319164825     
  0.13769999999999999          13.608082480234126     
  0.13800000000000001          16.266263612887958     
  0.13829999999999998          18.569772320898810     
  0.13860000000000000          20.474019563186989     
  0.13890000000000002          21.938497069942979     
  0.13919999999999999          22.932847481063927     
  0.13950000000000001          23.438708752311801     
  0.13979999999999998          23.446202724429405     
  0.14010000000000000          22.966275671714317     
  0.14040000000000002          22.023116589119290     
  0.14069999999999999          20.655765086673998     
  0.14100000000000001          18.921681949321179     
  0.14130000000000004          16.887605303339836     
  0.14160000000000000          14.629998846296873     
  0.14189999999999997          12.232516027323632     
  0.14219999999999999          9.7730195828442579     
  0.14250000000000002          7.3306072599041521     
  0.14279999999999998          4.9710635111533996     
  0.14310000000000000          2.7463900494943454     
  0.14339999999999997         0.69840620905806516     
  0.14369999999999999         -1.1547016805100232     
  0.14400000000000002         -2.8055438352880731     
  0.14429999999999998         -4.2632020954943100     
  0.14460000000000001         -5.5480688785525309     
  0.14490000000000003         -6.6868117787673986     
  0.14520000000000000         -7.7117751368109948     
  0.14550000000000002         -8.6510036522392966     
  0.14579999999999999         -9.5307634228015718     
  0.14610000000000001         -10.368489998913226     
  0.14640000000000003         -11.168605567411632     
  0.14670000000000000         -11.929180846248236     
  0.14699999999999996         -12.632554740536003     
  0.14729999999999999         -13.252002435120538     
  0.14760000000000001         -13.756819433541162     
  0.14789999999999998         -14.104672132518370     
  0.14820000000000000         -14.256849939363113     