  -1.4999999999999999E-002     0.0000000000000000     
  -1.4700000000000000E-002     1.3888338499209693E-025
  -1.4400000000000000E-002     1.0398198502803401E-020
  -1.4100000000000000E-002    -4.3355090275363794E-018
  -1.3800000000000000E-002    -1.7934044062641190E-016
  -1.3500000000000000E-002     2.1164199402276564E-015
  -1.3200000000000000E-002     7.6062977247950194E-015
  -1.2899999999999998E-002    -7.6538627055704052E-014
  -1.2600000000000000E-002    -2.2222222194272860E-014
  -1.2299999999999998E-002     5.9177273371291934E-013
  -1.2000000000000000E-002     4.8119368931673026E-013
  -1.1699999999999999E-002    -2.8552189868140171E-012
  -1.1399999999999999E-002    -4.7759207606890049E-012
  -1.1099999999999999E-002     8.8835604263656191E-012
  -1.0799999999999999E-002     1.7931561347290519E-011
  -1.0499999999999999E-002     1.0531183593914931E-011
  -1.0199999999999999E-002    -6.2385948585331048E-011
  -9.8999999999999991E-003    -1.3118717731216486E-010
  -9.5999999999999992E-003     7.1347243872840733E-011
  -9.2999999999999992E-003     5.3453227783050340E-010
  -8.9999999999999993E-003     7.1703231854990133E-011
  -8.6999999999999994E-003    -8.4054841067411840E-010
  -8.3999999999999995E-003    -5.7220008588999538E-010
  -8.0999999999999996E-003    -1.1089230406085926E-009
  -7.7999999999999988E-003     1.7159883468542932E-009
  -7.4999999999999997E-003     7.5443556411113500E-009
  -7.1999999999999998E-003    -1.5098232811327645E-009
  -6.8999999999999981E-003    -1.5866774899415470E-008
  -6.5999999999999982E-003    -1.9812668586187721E-010
  -6.3000000000000000E-003     4.5721739282816628E-009
  -6.0000000000000001E-003     9.3673289991034923E-011
  -5.6999999999999985E-003     5.4294334613605573E-008
  -5.3999999999999986E-003     7.3612816940784011E-009
  -5.1000000000000004E-003    -1.3139046527367969E-007
  -4.7999999999999987E-003    -2.0509055783882319E-008
  -4.5000000000000005E-003     1.0894253770781087E-007
  -4.1999999999999989E-003    -2.3028641629386199E-008
  -3.8999999999999990E-003     1.3504211407225891E-007
  -3.5999999999999990E-003     2.0002682023755106E-007
  -3.2999999999999991E-003    -5.0045439592582191E-007
  -2.9999999999999992E-003    -3.6475041733083229E-007
  -2.6999999999999993E-003     5.5655331915670444E-007
  -2.3999999999999994E-003     1.2237637675348123E-007
  -2.0999999999999977E-003    -5.3803161098137036E-008
  -1.7999999999999995E-003     7.6019538961698297E-007
  -1.4999999999999979E-003    -6.3938233325054614E-007
  -1.1999999999999997E-003    -1.6785388254369024E-006
  -8.9999999999999976E-004     1.0617011613179476E-006
  -5.9999999999999810E-004     1.2375701231365800E-006
  -2.9999999999999992E-004    -1.0108562477923997E-006
   0.0000000000000000          9.1798171336942589E-007
   3.0000000000000165E-004     1.2394127009995297E-007
   5.9999999999999984E-004    -2.9769536576550025E-006
   9.0000000000000149E-004     1.8048478306185822E-006
   1.2000000000000031E-003     2.9016637887193690E-006
   1.5000000000000013E-003    -3.3269591713960572E-006
   1.8000000000000030E-003    -1.1486202061505624E-007
   2.1000000000000012E-003     1.9732237912867499E-006
   2.3999999999999994E-003    -4.3890755019081786E-006
   2.7000000000000010E-003    -8.3666655384667314E-009
   2.9999999999999992E-003     6.9134268179753804E-006
   3.3000000000000008E-003     6.2713084861450782E-006
   3.6000000000000025E-003     4.6109478285926084E-006
   3.9000000000000007E-003    -4.1347996097339629E-006
   4.2000000000000023E-003    -1.2097851721574368E-006
   4.5000000000000005E-003     2.6606386901481226E-005
   4.7999999999999987E-003     4.4983411531808359E-005
   5.1000000000000004E-003     4.6872482735271103E-005
   5.4000000000000020E-003     4.3822750357518912E-005
   5.7000000000000037E-003     2.4199137389085690E-005
   5.9999999999999984E-003     9.3506409776030245E-006
   6.3000000000000000E-003     1.0501749373501621E-005
   6.6000000000000017E-003    -2.4488259364379796E-005
   6.9000000000000034E-003    -1.2075802264794443E-004
   7.2000000000000015E-003    -2.7344151011272059E-004
   7.5000000000000032E-003    -5.0629750385327546E-004
   7.8000000000000014E-003    -8.6427997560861237E-004
   8.0999999999999996E-003    -1.4654088263633003E-003
   8.4000000000000012E-003    -2.5001196131769926E-003
   8.7000000000000029E-003    -4.1572567869939247E-003
   9.0000000000000011E-003    -6.6452407956905093E-003
   9.2999999999999992E-003    -1.0261041071153684E-002
   9.6000000000000009E-003    -1.5445292860390735E-002
   9.8999999999999991E-003    -2.2800963258947326E-002
   1.0200000000000001E-002    -3.3030394271911338E-002
   1.0500000000000002E-002    -4.6871691627570503E-002
   1.0800000000000004E-002    -6.5128966674684666E-002
   1.1099999999999999E-002    -8.8701046261413105E-002
   1.1400000000000000E-002   -0.11856511126204716     
   1.1700000000000002E-002   -0.15568065485936436     
   1.2000000000000004E-002   -0.20076787249055034     
   1.2300000000000002E-002   -0.25403451612067907     
   1.2600000000000000E-002   -0.31501549068864426     
   1.2900000000000002E-002   -0.38255065138976585     
   1.3200000000000000E-002   -0.45461391712952598     
   1.3500000000000002E-002   -0.52807932233240407     
   1.3800000000000003E-002   -0.59848975092927947     
   1.4100000000000001E-002   -0.65999900064920813     
   1.4400000000000000E-002   -0.70556943196494692     
   1.4700000000000001E-002   -0.72727374654619359     
   1.4999999999999999E-002   -0.71649931178918191     
   1.5300000000000001E-002   -0.66457228123609258     
   1.5600000000000003E-002   -0.56336609825507999     
   1.5899999999999997E-002   -0.40623925595829224     
   1.6199999999999999E-002   -0.18899366529400616     
   1.6500000000000001E-002     8.9384034419133174E-002
   1.6800000000000002E-002    0.42591348424587938     
   1.7100000000000004E-002    0.81312965691450700     
   1.7400000000000006E-002     1.2390732605015686     
   1.7700000000000000E-002     1.6876191825522131     
   1.8000000000000002E-002     2.1386875722499905     
   1.8300000000000004E-002     2.5695511790696060     
   1.8600000000000005E-002     2.9566106173364917     
   1.8900000000000000E-002     3.2764810782747178     
   1.9200000000000002E-002     3.5080954199076819     
   1.9500000000000003E-002     3.6338097144266261     
   1.9799999999999998E-002     3.6409529685771909     
   2.0100000000000000E-002     3.5218490579882666     
   2.0400000000000001E-002     3.2743290894122343     
   2.0700000000000003E-002     2.9003314059642538     
   2.0999999999999998E-002     2.4052578574781363     
   2.1299999999999999E-002     1.7960733659520380     
   2.1600000000000001E-002     1.0788455650597251     
   2.1900000000000003E-002    0.25741257675163459     
   2.2200000000000004E-002   -0.66792554879701038     
   2.2500000000000006E-002    -1.7008004033974362     
   2.2800000000000001E-002    -2.8477179525480802     
   2.3100000000000002E-002    -4.1156639196746276     
   2.3400000000000004E-002    -5.5093182228769964     
   2.3699999999999999E-002    -7.0253713737012520     
   2.4000000000000000E-002    -8.6469972189813564     
   2.4300000000000002E-002    -10.340116208654372     
   2.4599999999999997E-002    -12.046128871890257     
   2.4900000000000005E-002    -13.680700837636680     
   2.5200000000000000E-002    -15.133970736424926     
   2.5499999999999995E-002    -16.271417088085119     
   2.5800000000000003E-002    -16.941270259954294     
   2.6099999999999998E-002    -16.986684212495923     
   2.6400000000000007E-002    -16.255917923284521     
   2.6700000000000002E-002    -14.621504242624169     
   2.6999999999999996E-002    -11.996171484842099     
   2.7300000000000005E-002    -8.3485304152630047     
   2.7600000000000000E-002    -3.7168073998870712     
   2.7900000000000008E-002     1.7807629288073741     
   2.8200000000000003E-002     7.9480345676610682     
   2.8499999999999998E-002     14.510976362460436     
   2.8800000000000006E-002     21.134560868724598     
   2.9100000000000001E-002     27.443902066306116     
   2.9400000000000003E-002     33.045065717857369     
   2.9700000000000004E-002     37.563753743685517     
   3.0000000000000006E-002     40.669672502296223     
   3.0300000000000001E-002     42.104978984714442     
   3.0600000000000002E-002     41.714434094533075     
   3.0900000000000004E-002     39.452993888202371     
   3.1199999999999999E-002     35.394797004950597     
   3.1500000000000007E-002     29.731367944011989     
   3.1800000000000002E-002     22.752295623151412     
   3.2099999999999997E-002     14.826887545908672     
   3.2400000000000005E-002     6.3736655781332452     
   3.2700000000000000E-002    -2.1719884074913023     
   3.3000000000000002E-002    -10.388898470892780     
   3.3300000000000003E-002    -17.899524037438102     
   3.3599999999999998E-002    -24.394484588862241     
   3.3900000000000000E-002    -29.643568873749807     
   3.4200000000000001E-002    -33.511431440020495     
   3.4500000000000003E-002    -35.953074120087940     
   3.4799999999999998E-002    -37.001688591147229     
   3.5099999999999999E-002    -36.766440042863607     
   3.5400000000000001E-002    -35.405127235250362     
   3.5699999999999996E-002    -33.106665411136497     
   3.6000000000000004E-002    -30.081522858846437     
   3.6299999999999999E-002    -26.531086972684232     
   3.6600000000000008E-002    -22.645949557782153     
   3.6900000000000002E-002    -18.594931945259788     
   3.7199999999999997E-002    -14.511128915284143     
   3.7500000000000006E-002    -10.504484808258853     
   3.7800000000000000E-002    -6.6544130365088572     
   3.8100000000000009E-002    -3.0156084884156620     
   3.8400000000000004E-002    0.37330502759999418     
   3.8699999999999998E-002     3.4873917889314869     
   3.9000000000000007E-002     6.3076741538901029     
   3.9300000000000002E-002     8.8211065751303739     
   3.9600000000000003E-002     11.011924337204196     
   3.9900000000000005E-002     12.865538131485739     
   4.0200000000000000E-002     14.368840661099529     
   4.0500000000000001E-002     15.505024365554318     
   4.0800000000000003E-002     16.264979751235202     
   4.1100000000000005E-002     16.644559289373976     
   4.1399999999999999E-002     16.640906720614762     
   4.1700000000000008E-002     16.270751404583883     
   4.2000000000000003E-002     15.552666145123379     
   4.2299999999999997E-002     14.517760749072398     
   4.2600000000000006E-002     13.213840052337099     
   4.2900000000000001E-002     11.688413241606787     
   4.3200000000000002E-002     10.003806747493527     
   4.3500000000000004E-002     8.2270362185958739     
   4.3799999999999999E-002     6.4198563508163682     
   4.4100000000000000E-002     4.6520212703128845     
   4.4400000000000002E-002     2.9821304458101610     
   4.4700000000000004E-002     1.4607023857798005     
   4.4999999999999998E-002    0.13441736526246065     
   4.5300000000000000E-002   -0.97310782953225861     
   4.5600000000000002E-002    -1.8474950085745425     
   4.5899999999999996E-002    -2.4850069569510280     
   4.6200000000000005E-002    -2.9049376432151881     
   4.6500000000000000E-002    -3.1296576392263855     
   4.6799999999999994E-002    -3.1954559209802111     
   4.7100000000000003E-002    -3.1467799114033679     
   4.7399999999999998E-002    -3.0247765992402500     
   4.7700000000000006E-002    -2.8748075034471761     
   4.8000000000000001E-002    -2.7365876758618533     
   4.8300000000000010E-002    -2.6401006324966514     
   4.8600000000000004E-002    -2.6117314447151272     
   4.8899999999999999E-002    -2.6632296171975387     
   4.9200000000000008E-002    -2.7954005268169535     
   4.9500000000000002E-002    -3.0022195765134345     
   4.9800000000000011E-002    -3.2664226388692521     
   5.0100000000000006E-002    -3.5630909189092863     
   5.0400000000000000E-002    -3.8639930367312076     
   5.0700000000000009E-002    -4.1378911527271951     
   5.1000000000000004E-002    -4.3521407558001641     
   5.1299999999999998E-002    -4.4796050468126323     
   5.1600000000000007E-002    -4.4966524524179494     
   5.1900000000000002E-002    -4.3844736535603852     
   5.2200000000000010E-002    -4.1380928574720715     
   5.2500000000000005E-002    -3.7566705900256423     
   5.2800000000000000E-002    -3.2501019367825967     
   5.3099999999999994E-002    -2.6409842128071808     
   5.3400000000000003E-002    -1.9534776797819309     
   5.3699999999999998E-002    -1.2221846220969852     
   5.4000000000000006E-002   -0.48560320355314313     
   5.4300000000000001E-002    0.22298515012250514     
   5.4599999999999996E-002    0.86566945425299624     
   5.4900000000000004E-002     1.4119901125638428     
   5.5199999999999999E-002     1.8416994152582860     
   5.5499999999999994E-002     2.1367739879833865     
   5.5800000000000002E-002     2.2948083084234074     
   5.6099999999999997E-002     2.3213905506158947     
   5.6400000000000006E-002     2.2276345939764517     
   5.6700000000000000E-002     2.0369741252958824     
   5.6999999999999995E-002     1.7755244406367963     
   5.7300000000000004E-002     1.4718192358679221     
   5.7599999999999998E-002     1.1583668843123132     
   5.7900000000000007E-002    0.86240396464219993     
   5.8200000000000002E-002    0.60905562261297774     
   5.8499999999999996E-002    0.41829373491858313     
   5.8800000000000005E-002    0.30309038741737038     
   5.9100000000000000E-002    0.26953824789993569     
   5.9400000000000008E-002    0.31624969061575958     
   5.9700000000000003E-002    0.43488337295560991     
   6.0000000000000012E-002    0.61141065807072170     
   6.0300000000000006E-002    0.82565120080811383     
   6.0600000000000001E-002     1.0568371650019681     
   6.0900000000000010E-002     1.2802857912520398     
   6.1200000000000004E-002     1.4723811830254532     
   6.1500000000000013E-002     1.6131207383525490     
   6.1800000000000008E-002     1.6855980768209711     
   6.2100000000000002E-002     1.6789677756934318     
   6.2399999999999997E-002     1.5904275829928596     
   6.2700000000000006E-002     1.4224634887324463     
   6.3000000000000000E-002     1.1852379649036360     
   6.3300000000000009E-002    0.89598581386094200     
   6.3600000000000004E-002    0.57494930806173883     
   6.3899999999999998E-002    0.24590162475207542     
   6.4199999999999993E-002    -6.7550428821861519E-002
   6.4500000000000002E-002   -0.34604896490498749     
   6.4800000000000010E-002   -0.57189217872009956     
   6.5100000000000005E-002   -0.73466947849797593     
   6.5400000000000000E-002   -0.83161494119088919     
   6.5700000000000008E-002   -0.86692544854721532     
   6.5999999999999989E-002   -0.85029521800905494     
   6.6299999999999998E-002   -0.79699573524953871     
   6.6600000000000006E-002   -0.72360358612577980     
   6.6900000000000001E-002   -0.64897833586442055     
   6.7199999999999996E-002   -0.58793686435159209     
   6.7500000000000004E-002   -0.55108134645366813     
   6.7800000000000013E-002   -0.54383574564657400     
   6.8099999999999994E-002   -0.56610588687423891     
   6.8400000000000002E-002   -0.60946188498177900     
   6.8700000000000011E-002   -0.66242633002999118     
   6.8999999999999992E-002   -0.71140745688345486     
   6.9300000000000000E-002   -0.74011173963378274     
   6.9600000000000009E-002   -0.73518744107962519     
   6.9900000000000004E-002   -0.68813148265897639     
   7.0199999999999999E-002   -0.59391406562328108     
   7.0500000000000007E-002   -0.45612866629868570     
   7.0800000000000016E-002   -0.28204088082246104     
   7.1099999999999997E-002    -8.5269490501212658E-002
   7.1400000000000005E-002    0.11533027509726086     
   7.1700000000000000E-002    0.30321575986331895     
   7.1999999999999995E-002    0.46131543431250749     
   7.2300000000000003E-002    0.57410553603060532     
   7.2600000000000012E-002    0.63482633490669582     
   7.2900000000000006E-002    0.63880732844861765     
   7.3200000000000001E-002    0.58965841258858931     
   7.3499999999999996E-002    0.49714095165021099     
   7.3800000000000004E-002    0.37183363477424236     
   7.4099999999999999E-002    0.23046687595301621     
   7.4400000000000008E-002     8.7615969599843857E-002
   7.4700000000000003E-002    -4.5445553705604179E-002
   7.5000000000000011E-002   -0.15488422804683349     
   7.5299999999999992E-002   -0.23754635974413860     
   7.5600000000000001E-002   -0.29184128668707043     
   7.5900000000000009E-002   -0.31771828299732391     
   7.6200000000000004E-002   -0.32455356505482585     
   7.6499999999999999E-002   -0.31667660278594034     
   7.6800000000000007E-002   -0.30109132867928728     
   7.7099999999999988E-002   -0.28761844567044254     
   7.7399999999999997E-002   -0.27638639706488083     
   7.7700000000000005E-002   -0.27164463894703234     
   7.8000000000000014E-002   -0.27267490678607781     
   7.8299999999999995E-002   -0.27248524385188888     
   7.8600000000000003E-002   -0.26993199036194854     
   7.8900000000000012E-002   -0.25798442005744349     
   7.9199999999999993E-002   -0.22763531452781796     
   7.9500000000000001E-002   -0.17923689765629505     
   7.9800000000000010E-002   -0.10648175052844736     
   8.0100000000000018E-002    -7.7607463019642329E-003
   8.0399999999999999E-002    0.11176361316468075     
   8.0700000000000008E-002    0.25181048052907851     
   8.1000000000000003E-002    0.40602232512069747     
   8.1299999999999997E-002    0.56396666971095089     
   8.1600000000000006E-002    0.72176209462159768     
   8.1900000000000014E-002    0.86753919678760738     
   8.2199999999999995E-002    0.98956402591477310     
   8.2500000000000004E-002     1.0833538401968352     
   8.2799999999999999E-002     1.1380050994566071     
   8.3100000000000007E-002     1.1456601229280892     
   8.3400000000000002E-002     1.1068052887531086     
   8.3700000000000011E-002     1.0153374344224366     
   8.4000000000000005E-002    0.87310418614264207     
   8.4300000000000000E-002    0.68941895088249039     
   8.4599999999999995E-002    0.46683578286533850     
   8.4900000000000003E-002    0.21888394046304727     
   8.5199999999999998E-002    -3.9759632032540917E-002
   8.5500000000000007E-002   -0.30071701499269698     
   8.5800000000000001E-002   -0.54432205437921732     
   8.6100000000000010E-002   -0.75834921315506931     
   8.6399999999999991E-002   -0.93538078568658878     
   8.6699999999999999E-002    -1.0625437148372339     
   8.7000000000000008E-002    -1.1363887411844427     
   8.7300000000000003E-002    -1.1579572790437698     
   8.7599999999999997E-002    -1.1249339222710300     
   8.7900000000000006E-002    -1.0457293658133628     
   8.8200000000000014E-002   -0.92794451305835024     
   8.8499999999999995E-002   -0.77898160216557977     
   8.8800000000000004E-002   -0.61216978388315069     
   8.9100000000000013E-002   -0.43850572685431882     
   8.9399999999999993E-002   -0.26661445927681771     
   8.9700000000000002E-002   -0.10914288204765014     
   9.0000000000000011E-002     2.5075262210694078E-002
   9.0299999999999991E-002    0.13133926266505766     
   9.0600000000000000E-002    0.20165623061331941     
   9.0900000000000009E-002    0.23450636065188915     
   9.1200000000000017E-002    0.23204978649227762     
   9.1499999999999998E-002    0.19268254336818580     
   9.1800000000000007E-002    0.12381385636464400     
   9.2100000000000001E-002     3.3496231043486119E-002
   9.2399999999999996E-002    -7.3077914658408211E-002
   9.2700000000000005E-002   -0.18192980551294458     
   9.3000000000000013E-002   -0.28438450873260374     
   9.3300000000000008E-002   -0.37277727168104396     
   9.3600000000000003E-002   -0.43406786088126315     
   9.3899999999999997E-002   -0.46498380598901767     
   9.4200000000000006E-002   -0.46101357159523226     
   9.4500000000000001E-002   -0.41810198303581381     
   9.4800000000000009E-002   -0.34160508725567851     
   9.5100000000000004E-002   -0.23294494435533802     
   9.5399999999999999E-002    -9.8470626029621533E-002
   9.5699999999999993E-002     5.1457651473680741E-002
   9.6000000000000002E-002    0.21028310768285519     
   9.6300000000000011E-002    0.36674384994335241     
   9.6600000000000005E-002    0.51208238061220668     
   9.6900000000000000E-002    0.63918600412115878     
   9.7200000000000009E-002    0.73915687781633144     
   9.7499999999999989E-002    0.80927303887731628     
   9.7799999999999998E-002    0.84424147361044899     
   9.8100000000000007E-002    0.84406873941666649     
   9.8400000000000015E-002    0.81067297428688845     
   9.8699999999999996E-002    0.74455229172074411     
   9.9000000000000005E-002    0.65280399772617748     
   9.9300000000000013E-002    0.54056535643167336     
   9.9599999999999994E-002    0.41278712733963885     
   9.9900000000000003E-002    0.28135790704061125     
  0.10020000000000001         0.15009462530188702     
  0.10049999999999999          2.7076523603258063E-002
  0.10080000000000000         -7.8436802845504486E-002
  0.10110000000000001        -0.16500563298865453     
  0.10140000000000000        -0.22735627752997392     
  0.10170000000000000        -0.26198830290332359     
  0.10200000000000001        -0.27199622130329904     
  0.10230000000000002        -0.25693943330775360     
  0.10260000000000000        -0.22069066085738531     
  0.10290000000000001        -0.16911208153815840     
  0.10320000000000000        -0.10727554352579442     
  0.10350000000000001         -4.0273337711818069E-002
  0.10380000000000000          2.3857519083769131E-002
  0.10410000000000001          8.0730188470337694E-002
  0.10440000000000001         0.12648577572489547     
  0.10470000000000000         0.15516149426119710     
  0.10500000000000000         0.16626005754519407     
  0.10530000000000000         0.16038639409243949     
  0.10560000000000000         0.13396408674819016     
  0.10590000000000001          9.3305979921978061E-002
  0.10620000000000000          3.9697043527355404E-002
  0.10650000000000001         -2.5473361280812509E-002
  0.10679999999999999         -9.3171324350127371E-002
  0.10710000000000000        -0.16183955339615422     
  0.10740000000000001        -0.22762788123348959     
  0.10770000000000000        -0.28131030958090358     
  0.10800000000000000        -0.32465036614047865     
  0.10830000000000001        -0.35105915726925085     
  0.10859999999999999        -0.35718803347308070     
  0.10890000000000000        -0.34545492015465817     
  0.10920000000000001        -0.31249125768036295     
  0.10950000000000001        -0.26117708387634642     
  0.10979999999999999        -0.19543015365845579     
  0.11009999999999999        -0.11616022485812076     
  0.11040000000000001         -3.1133647296400422E-002
  0.11070000000000001          5.6035158921517933E-002
  0.11100000000000000         0.13884204165663730     
  0.11130000000000000         0.21127403531535469     
  0.11160000000000002         0.27058171342827203     
  0.11190000000000001         0.31068139235226089     
  0.11220000000000001         0.32974858956744713     
  0.11250000000000000         0.32741280364385089     
  0.11280000000000000         0.30166282235988828     
  0.11309999999999999         0.25714173074839330     
  0.11340000000000001         0.19559816425552290     
  0.11369999999999998         0.11965243831081941     
  0.11400000000000000          3.6206460404032297E-002
  0.11430000000000000         -5.0735997095268180E-002
  0.11460000000000002        -0.13572407886955376     
  0.11489999999999999        -0.21197503124946271     
  0.11520000000000001        -0.27699812368064913     
  0.11550000000000001        -0.32619141565706516     
  0.11580000000000000        -0.35525463873791041     
  0.11609999999999999        -0.36322532933145119     
  0.11640000000000002        -0.35008271489483500     
  0.11670000000000001        -0.31520490799467799     
  0.11700000000000001        -0.26316263448597993     
  0.11730000000000000        -0.19664060505306619     
  0.11760000000000000        -0.11906493767605303     
  0.11789999999999999         -3.8908085917034506E-002
  0.11820000000000001          4.0177328601124947E-002
  0.11850000000000001         0.11294528527907355     
  0.11880000000000000         0.17147994903933064     
  0.11910000000000000         0.21570185601359942     
  0.11940000000000002         0.24173130840261886     
  0.11970000000000001         0.24715339256595320     
  0.12000000000000001         0.23627928652726943     
  0.12030000000000000         0.20809737674645323     
  0.12060000000000000         0.16620858908989458     
  0.12089999999999999         0.11689687191298605     
  0.12119999999999999          6.0336237396685005E-002
  0.12150000000000001          2.6894908938677295E-003
  0.12180000000000001         -5.3274115540811455E-002
  0.12210000000000000        -0.10653211645860837     
  0.12239999999999999        -0.15269480179887426     
  0.12270000000000002        -0.19288198076270813     
  0.12300000000000001        -0.22591369703408190     
  0.12330000000000001        -0.25022649003672554     
  0.12360000000000000        -0.26761221121854273     
  0.12390000000000000        -0.27667813677105929     
  0.12419999999999999        -0.27827726968719835     
  0.12450000000000001        -0.27273204156127423     
  0.12480000000000001        -0.25947793543340242     
  0.12509999999999999        -0.24033447417264864     
  0.12540000000000001        -0.21529547272633601     
  0.12570000000000003        -0.18548505958818653     
  0.12600000000000000        -0.15283898604244323     
  0.12630000000000002        -0.11783387197567957     
  0.12659999999999999         -8.2947244358966499E-002
  0.12690000000000001         -4.8838107616185157E-002
  0.12719999999999998         -1.6523703480288216E-002
  0.12750000000000000          1.2503021444184404E-002
  0.12780000000000002          3.7846240117191607E-002
  0.12809999999999999          5.9402982512468713E-002
  0.12840000000000001          7.6538390028343950E-002
  0.12869999999999998          8.9067538901391283E-002
  0.12900000000000000          9.7869439010956225E-002
  0.12930000000000003         0.10201731124619025     
  0.12959999999999999         0.10210460895579518     
  0.12990000000000002         0.10002174788581464     
  0.13019999999999998          9.3723957922051085E-002
  0.13050000000000000          8.6612907462378860E-002
  0.13080000000000003          8.0880528831078768E-002
  0.13109999999999999          7.4457203233428096E-002
  0.13140000000000002          7.2420788738607758E-002
  0.13169999999999998          7.5659534262899772E-002
  0.13200000000000001          8.2096111336818739E-002
  0.13229999999999997          9.7891179254989816E-002
  0.13260000000000000         0.11723409237280320     
  0.13290000000000002         0.14082125790133954     
  0.13319999999999999         0.16971143636057387     
  0.13350000000000001         0.19583389988102939     
  0.13380000000000003         0.22189868240289864     
  0.13410000000000000         0.24437315099016932     
  0.13440000000000002         0.25666063123638666     
  0.13469999999999999         0.26399581841906578     
  0.13500000000000001         0.26167898622701402     
  0.13529999999999998         0.24881421677425700     
  0.13560000000000000         0.23109784109060855     
  0.13590000000000002         0.20377206205425819     
  0.13619999999999999         0.17260263295571121     
  0.13650000000000001         0.14042086592756098     
  0.13680000000000003         0.10382506655087691     
  0.13710000000000000          7.0210700678178556E-002
  0.13740000000000002          3.8560863167194273E-002
  0.13769999999999999          8.6330810674963687E-003
  0.13800000000000001         -1.5965976913891147E-002
  0.13829999999999998         -3.7183767666806325E-002
  0.13860000000000000         -5.4277146831865401E-002
  0.13890000000000002         -6.5407482454618457E-002
  0.13919999999999999         -7.3739086698595219E-002
  0.13950000000000001         -7.7642319419066588E-002
  0.13979999999999998         -7.7480298557984689E-002
  0.14010000000000000         -7.4903984902996490E-002
  0.14040000000000002         -7.0046124879690946E-002
  0.14069999999999999         -6.2651609537610217E-002
  0.14100000000000001         -5.5187726603350910E-002
  0.14130000000000004         -4.7311751706547098E-002
  0.14160000000000000         -3.8363879875000180E-002
  0.14189999999999997         -3.0570090870182615E-002
  0.14219999999999999         -2.1934119349022875E-002
  0.14250000000000002         -1.2765217570553024E-002
  0.14279999999999998         -4.5825308534283926E-003
  0.14310000000000000          6.1809176166955620E-003
  0.14339999999999997          1.7608100612616143E-002
  0.14369999999999999          2.8831231436450944E-002
  0.14400000000000002          4.1605423705633443E-002
  0.14429999999999998          5.2274233429908543E-002
  0.14460000000000001          6.1511436631516661E-002
  0.14490000000000003          6.8299970289150816E-002
  0.14520000000000000          6.8887820313537254E-002
  0.14550000000000002          6.5463191039688159E-002
  0.14579999999999999          5.5744229508010557E-002
  0.14610000000000001          3.8894499283385280E-002
  0.14640000000000003          1.8209889167298907E-002
  0.14670000000000000         -7.0731907410739835E-003
  0.14699999999999996         -3.4694938974298845E-002
  0.14729999999999999         -6.2714731360261261E-002
  0.14760000000000001         -8.9879599657635284E-002
  0.14789999999999998        -0.11362349673086809     
  0.14820000000000000        -0.13342737785652348     