  -1.4999999999999999E-002     0.0000000000000000     
  -1.4700000000000000E-002     0.0000000000000000     
  -1.4400000000000000E-002     0.0000000000000000     
  -1.4100000000000000E-002     0.0000000000000000     
  -1.3800000000000000E-002     0.0000000000000000     
  -1.3500000000000000E-002     0.0000000000000000     
  -1.3200000000000000E-002     0.0000000000000000     
  -1.2899999999999998E-002     0.0000000000000000     
  -1.2600000000000000E-002     0.0000000000000000     
  -1.2299999999999998E-002     0.0000000000000000     
  -1.2000000000000000E-002     0.0000000000000000     
  -1.1699999999999999E-002     0.0000000000000000     
  -1.1399999999999999E-002     0.0000000000000000     
  -1.1099999999999999E-002     0.0000000000000000     
  -1.0799999999999999E-002     0.0000000000000000     
  -1.0499999999999999E-002     0.0000000000000000     
  -1.0199999999999999E-002     0.0000000000000000     
  -9.8999999999999991E-003     0.0000000000000000     
  -9.5999999999999992E-003     0.0000000000000000     
  -9.2999999999999992E-003     0.0000000000000000     
  -8.9999999999999993E-003     0.0000000000000000     
  -8.6999999999999994E-003     0.0000000000000000     
  -8.3999999999999995E-003     0.0000000000000000     
  -8.0999999999999996E-003     0.0000000000000000     
  -7.7999999999999988E-003     0.0000000000000000     
  -7.4999999999999997E-003     0.0000000000000000     
  -7.1999999999999998E-003     0.0000000000000000     
  -6.8999999999999981E-003     0.0000000000000000     
  -6.5999999999999982E-003     0.0000000000000000     
  -6.3000000000000000E-003     0.0000000000000000     
  -6.0000000000000001E-003     0.0000000000000000     
  -5.6999999999999985E-003     0.0000000000000000     
  -5.3999999999999986E-003     0.0000000000000000     
  -5.1000000000000004E-003     0.0000000000000000     
  -4.7999999999999987E-003     0.0000000000000000     
  -4.5000000000000005E-003     0.0000000000000000     
  -4.1999999999999989E-003     0.0000000000000000     
  -3.8999999999999990E-003     0.0000000000000000     
  -3.5999999999999990E-003     0.0000000000000000     
  -3.2999999999999991E-003     0.0000000000000000     
  -2.9999999999999992E-003     0.0000000000000000     
  -2.6999999999999993E-003     0.0000000000000000     
  -2.3999999999999994E-003     0.0000000000000000     
  -2.0999999999999977E-003     0.0000000000000000     
  -1.7999999999999995E-003     0.0000000000000000     
  -1.4999999999999979E-003     0.0000000000000000     
  -1.1999999999999997E-003     0.0000000000000000     
  -8.9999999999999976E-004     0.0000000000000000     
  -5.9999999999999810E-004     0.0000000000000000     
  -2.9999999999999992E-004     0.0000000000000000     
   0.0000000000000000          0.0000000000000000     
   3.0000000000000165E-004     0.0000000000000000     
   5.9999999999999984E-004     0.0000000000000000     
   9.0000000000000149E-004     0.0000000000000000     
   1.2000000000000031E-003     0.0000000000000000     
   1.5000000000000013E-003     0.0000000000000000     
   1.8000000000000030E-003     0.0000000000000000     
   2.1000000000000012E-003     0.0000000000000000     
   2.3999999999999994E-003     0.0000000000000000     
   2.7000000000000010E-003     0.0000000000000000     
   2.9999999999999992E-003     0.0000000000000000     
   3.3000000000000008E-003     0.0000000000000000     
   3.6000000000000025E-003     0.0000000000000000     
   3.9000000000000007E-003     0.0000000000000000     
   4.2000000000000023E-003     0.0000000000000000     
   4.5000000000000005E-003     0.0000000000000000     
   4.7999999999999987E-003     0.0000000000000000     
   5.1000000000000004E-003     0.0000000000000000     
   5.4000000000000020E-003     0.0000000000000000     
   5.7000000000000037E-003     0.0000000000000000     
   5.9999999999999984E-003     0.0000000000000000     
   6.3000000000000000E-003     0.0000000000000000     
   6.6000000000000017E-003     0.0000000000000000     
   6.9000000000000034E-003     0.0000000000000000     
   7.2000000000000015E-003     0.0000000000000000     
   7.5000000000000032E-003     0.0000000000000000     
   7.8000000000000014E-003     0.0000000000000000     
   8.0999999999999996E-003     0.0000000000000000     
   8.4000000000000012E-003     0.0000000000000000     
   8.7000000000000029E-003     0.0000000000000000     
   9.0000000000000011E-003     0.0000000000000000     
   9.2999999999999992E-003     0.0000000000000000     
   9.6000000000000009E-003     0.0000000000000000     
   9.8999999999999991E-003     0.0000000000000000     
   1.0200000000000001E-002     0.0000000000000000     
   1.0500000000000002E-002     0.0000000000000000     
   1.0800000000000004E-002     0.0000000000000000     
   1.1099999999999999E-002     0.0000000000000000     
   1.1400000000000000E-002     0.0000000000000000     
   1.1700000000000002E-002     0.0000000000000000     
   1.2000000000000004E-002     0.0000000000000000     
   1.2300000000000002E-002     0.0000000000000000     
   1.2600000000000000E-002     0.0000000000000000     
   1.2900000000000002E-002     0.0000000000000000     
   1.3200000000000000E-002     0.0000000000000000     
   1.3500000000000002E-002     0.0000000000000000     
   1.3800000000000003E-002     0.0000000000000000     
   1.4100000000000001E-002     0.0000000000000000     
   1.4400000000000000E-002     0.0000000000000000     
   1.4700000000000001E-002     0.0000000000000000     
   1.4999999999999999E-002     0.0000000000000000     
   1.5300000000000001E-002     0.0000000000000000     
   1.5600000000000003E-002     0.0000000000000000     
   1.5899999999999997E-002     0.0000000000000000     
   1.6199999999999999E-002     0.0000000000000000     
   1.6500000000000001E-002     0.0000000000000000     
   1.6800000000000002E-002     0.0000000000000000     
   1.7100000000000004E-002     0.0000000000000000     
   1.7400000000000006E-002     0.0000000000000000     
   1.7700000000000000E-002     0.0000000000000000     
   1.8000000000000002E-002     0.0000000000000000     
   1.8300000000000004E-002     0.0000000000000000     
   1.8600000000000005E-002     0.0000000000000000     
   1.8900000000000000E-002     0.0000000000000000     
   1.9200000000000002E-002     0.0000000000000000     
   1.9500000000000003E-002     0.0000000000000000     
   1.9799999999999998E-002     0.0000000000000000     
   2.0100000000000000E-002     0.0000000000000000     
   2.0400000000000001E-002     0.0000000000000000     
   2.0700000000000003E-002     0.0000000000000000     
   2.0999999999999998E-002     0.0000000000000000     
   2.1299999999999999E-002     0.0000000000000000     
   2.1600000000000001E-002     0.0000000000000000     
   2.1900000000000003E-002     0.0000000000000000     
   2.2200000000000004E-002     0.0000000000000000     
   2.2500000000000006E-002     0.0000000000000000     
   2.2800000000000001E-002     0.0000000000000000     
   2.3100000000000002E-002     0.0000000000000000     
   2.3400000000000004E-002     0.0000000000000000     
   2.3699999999999999E-002     0.0000000000000000     
   2.4000000000000000E-002     0.0000000000000000     
   2.4300000000000002E-002     0.0000000000000000     
   2.4599999999999997E-002     0.0000000000000000     
   2.4900000000000005E-002     0.0000000000000000     
   2.5200000000000000E-002     0.0000000000000000     
   2.5499999999999995E-002     0.0000000000000000     
   2.5800000000000003E-002     0.0000000000000000     
   2.6099999999999998E-002     0.0000000000000000     
   2.6400000000000007E-002     0.0000000000000000     
   2.6700000000000002E-002     0.0000000000000000     
   2.6999999999999996E-002     0.0000000000000000     
   2.7300000000000005E-002     0.0000000000000000     
   2.7600000000000000E-002     0.0000000000000000     
   2.7900000000000008E-002     0.0000000000000000     
   2.8200000000000003E-002     0.0000000000000000     
   2.8499999999999998E-002     0.0000000000000000     
   2.8800000000000006E-002     0.0000000000000000     
   2.9100000000000001E-002     0.0000000000000000     
   2.9400000000000003E-002     0.0000000000000000     
   2.9700000000000004E-002     0.0000000000000000     
   3.0000000000000006E-002     0.0000000000000000     
   3.0300000000000001E-002     0.0000000000000000     
   3.0600000000000002E-002     0.0000000000000000     
   3.0900000000000004E-002     0.0000000000000000     
   3.1199999999999999E-002     0.0000000000000000     
   3.1500000000000007E-002     0.0000000000000000     
   3.1800000000000002E-002     0.0000000000000000     
   3.2099999999999997E-002     0.0000000000000000     
   3.2400000000000005E-002     0.0000000000000000     
   3.2700000000000000E-002     0.0000000000000000     
   3.3000000000000002E-002     0.0000000000000000     
   3.3300000000000003E-002     0.0000000000000000     
   3.3599999999999998E-002     0.0000000000000000     
   3.3900000000000000E-002     0.0000000000000000     
   3.4200000000000001E-002     0.0000000000000000     
   3.4500000000000003E-002     0.0000000000000000     
   3.4799999999999998E-002     0.0000000000000000     
   3.5099999999999999E-002     0.0000000000000000     
   3.5400000000000001E-002     0.0000000000000000     
   3.5699999999999996E-002     0.0000000000000000     
   3.6000000000000004E-002     0.0000000000000000     
   3.6299999999999999E-002     5.1451298372717544E-042
   3.6600000000000008E-002    -5.0702785530218915E-041
   3.6900000000000002E-002    -8.3960706140213597E-038
   3.7199999999999997E-002    -1.1772176401666571E-037
   3.7500000000000006E-002     7.5941585415804386E-038
   3.7800000000000000E-002     9.4888346017784896E-036
   3.8100000000000009E-002     2.6657923805553551E-035
   3.8400000000000004E-002    -8.4495675405935080E-035
   3.8699999999999998E-002    -1.4422414131911938E-034
   3.9000000000000007E-002     8.6918301795903825E-034
   3.9300000000000002E-002    -4.0958401061760087E-033
   3.9600000000000003E-002     1.3580636828348852E-032
   3.9900000000000005E-002    -3.4264791407563792E-032
   4.0200000000000000E-002     6.1411327773353787E-032
   4.0500000000000001E-002    -5.6527440253013968E-032
   4.0800000000000003E-002    -1.1586704565751718E-031
   4.1100000000000005E-002     7.5174491620046302E-031
   4.1399999999999999E-002    -2.2359095358716457E-030
   4.1700000000000008E-002     4.5051178663886433E-030
   4.2000000000000003E-002    -5.6959988072758469E-030
   4.2299999999999997E-002     1.1300036696904483E-030
   4.2600000000000006E-002     9.9851023042676564E-030
   4.2900000000000001E-002     1.5180659096092005E-029
   4.3200000000000002E-002    -3.0310684243267611E-028
   4.3500000000000004E-002     1.6630482257373923E-027
   4.3799999999999999E-002    -6.5229956161991689E-027
   4.4100000000000000E-002     2.1601092260112281E-026
   4.4400000000000002E-002    -6.5092666946413282E-026
   4.4700000000000004E-002     1.8652239159756737E-025
   4.4999999999999998E-002    -5.1964979583092550E-025
   4.5300000000000000E-002     1.4085917182628803E-024
   4.5600000000000002E-002    -3.6495401465172312E-024
   4.5899999999999996E-002     8.7508738418101004E-024
   4.6200000000000005E-002    -1.8431179652016284E-023
   4.6500000000000000E-002     3.0349233823386943E-023
   4.6799999999999994E-002    -2.1300159602690454E-023
   4.7100000000000003E-002    -1.0398512789202478E-022
   4.7399999999999998E-002     6.5292960901812573E-022
   4.7700000000000006E-002    -2.5443723268357418E-021
   4.8000000000000001E-002     8.6402928525271099E-021
   4.8300000000000010E-002    -2.8676413552555035E-020
   4.8600000000000004E-002     9.6622471242198645E-020
   4.8899999999999999E-002    -3.2134524967878622E-019
   4.9200000000000008E-002     9.8701218953258135E-019
   4.9500000000000002E-002    -2.5596142916682988E-018
   4.9800000000000011E-002     4.6607730945251424E-018
   5.0100000000000006E-002    -6.7551071053493109E-019
   5.0400000000000000E-002    -3.9253562021950929E-017
   5.0700000000000009E-002     2.0003987352456004E-016
   5.1000000000000004E-002    -6.1783380612624057E-016
   5.1299999999999998E-002     1.1923052677055457E-015
   5.1600000000000007E-002    -3.9450180095380804E-016
   5.1900000000000002E-002    -7.3047930716871979E-015
   5.2200000000000010E-002     3.2230738920098959E-014
   5.2500000000000005E-002    -7.2766246783872713E-014
   5.2800000000000000E-002     4.7943172805265393E-014
   5.3099999999999994E-002     3.1701736343088665E-013
   5.3400000000000003E-002    -1.3913909961956994E-012
   5.3699999999999998E-002     2.5066145746582348E-012
   5.4000000000000006E-002     8.6010313657892321E-013
   5.4300000000000001E-002    -1.7679174649894083E-011
   5.4599999999999996E-002     4.4220689913549184E-011
   5.4900000000000004E-002    -1.4833585345067091E-011
   5.5199999999999999E-002    -2.1032359950110653E-010
   5.5499999999999994E-002     5.6399188186027691E-010
   5.5800000000000002E-002    -8.9197877312937052E-011
   5.6099999999999997E-002    -2.7139956768120403E-009
   5.6400000000000006E-002     5.2247752366079119E-009
   5.6700000000000000E-002     4.8532198530300406E-009
   5.6999999999999995E-002    -3.0890645109734598E-008
   5.7300000000000004E-002     1.2968966313892172E-008
   5.7599999999999998E-002     1.1885538329646992E-007
   5.7900000000000007E-002    -1.3668557879554554E-007
   5.8200000000000002E-002    -4.2776147173702862E-007
   5.8499999999999996E-002     6.8047892687974566E-007
   5.8800000000000005E-002     2.9989241076521011E-006
   5.9100000000000000E-002     4.5336914867533419E-006
   5.9400000000000008E-002     5.5190756837043217E-006
   5.9700000000000003E-002     7.7155290231082279E-006
   6.0000000000000012E-002     1.0953456552576972E-005
   6.0300000000000006E-002     1.5575573747284121E-005
   6.0600000000000001E-002     2.3802672148118251E-005
   6.0900000000000010E-002     3.6951632645708193E-005
   6.1200000000000004E-002     5.6146237344437480E-005
   6.1500000000000013E-002     8.2830934483320022E-005
   6.1800000000000008E-002     1.1858090390628318E-004
   6.2100000000000002E-002     1.6776499309260496E-004
   6.2399999999999997E-002     2.3480055523699545E-004
   6.2700000000000006E-002     3.2135938153548177E-004
   6.3000000000000000E-002     4.3038402777855096E-004
   6.3300000000000009E-002     5.6505766234762542E-004
   6.3600000000000004E-002     7.2771157376834482E-004
   6.3899999999999998E-002     9.2107480411755967E-004
   6.4199999999999993E-002     1.1407181174467231E-003
   6.4500000000000002E-002     1.3756816319730860E-003
   6.4800000000000010E-002     1.6149262683190523E-003
   6.5100000000000005E-002     1.8372839517290076E-003
   6.5400000000000000E-002     2.0092953030830625E-003
   6.5700000000000008E-002     2.0926744411540448E-003
   6.5999999999999989E-002     2.0384226381917076E-003
   6.6299999999999998E-002     1.7873998155497730E-003
   6.6600000000000006E-002     1.2777650283289186E-003
   6.6900000000000001E-002     4.4501535197023095E-004
   6.7199999999999996E-002    -7.6875623533845640E-004
   6.7500000000000004E-002    -2.4117344092355782E-003
   6.7800000000000013E-002    -4.5196555936201548E-003
   6.8099999999999994E-002    -7.0942152797713563E-003
   6.8400000000000002E-002    -1.0100456192614793E-002
   6.8700000000000011E-002    -1.3473010042050733E-002
   6.8999999999999992E-002    -1.7100169739755783E-002
   6.9300000000000000E-002    -2.0825107269954013E-002
   6.9600000000000009E-002    -2.4465649685831321E-002
   6.9900000000000004E-002    -2.7820190649063582E-002
   7.0199999999999999E-002    -3.0685936128017122E-002
   7.0500000000000007E-002    -3.2872668185243745E-002
   7.0800000000000016E-002    -3.4223435816281969E-002
   7.1099999999999997E-002    -3.4641582808203418E-002
   7.1400000000000005E-002    -3.4103896078985917E-002
   7.1700000000000000E-002    -3.2655158603574680E-002
   7.1999999999999995E-002    -3.0421140214465049E-002
   7.2300000000000003E-002    -2.7577837917183171E-002
   7.2600000000000012E-002    -2.4351924611189471E-002
   7.2900000000000006E-002    -2.0977275965403247E-002
   7.3200000000000001E-002    -1.7665303522958517E-002
   7.3499999999999996E-002    -1.4591668904800792E-002
   7.3800000000000004E-002    -1.1868986129133213E-002
   7.4099999999999999E-002    -9.5011840007676162E-003
   7.4400000000000008E-002    -7.4202110596701711E-003
   7.4700000000000003E-002    -5.4801711392173649E-003
   7.5000000000000011E-002    -3.5078868083493449E-003
   7.5299999999999992E-002    -1.3116776785157013E-003
   7.5600000000000001E-002     1.2798585412884494E-003
   7.5900000000000009E-002     4.3770323239852981E-003
   7.6200000000000004E-002     7.9600493736857146E-003
   7.6499999999999999E-002     1.1929246546801865E-002
   7.6800000000000007E-002     1.6062915910517797E-002
   7.7099999999999988E-002     2.0040896633165186E-002
   7.7399999999999997E-002     2.3477186982838551E-002
   7.7700000000000005E-002     2.5974809541325253E-002
   7.8000000000000014E-002     2.7135954462253181E-002
   7.8299999999999995E-002     2.6648675505786951E-002
   7.8600000000000003E-002     2.4269711648025712E-002
   7.8900000000000012E-002     1.9873141210728223E-002
   7.9199999999999993E-002     1.3448725817148351E-002
   7.9500000000000001E-002     5.1013017501080346E-003
   7.9800000000000010E-002    -4.9905480761944232E-003
   8.0100000000000018E-002    -1.6596699671910360E-002
   8.0399999999999999E-002    -2.9432893219787065E-002
   8.0700000000000008E-002    -4.3184776986556685E-002
   8.1000000000000003E-002    -5.7500167160679030E-002
   8.1299999999999997E-002    -7.1976738409397445E-002
   8.1600000000000006E-002    -8.6149619669377980E-002
   8.1900000000000014E-002    -9.9424410318012219E-002
   8.2199999999999995E-002   -0.11103775621789755     
   8.2500000000000004E-002   -0.12005390713370212     
   8.2799999999999999E-002   -0.12541824530129483     
   8.3100000000000007E-002   -0.12590930589726787     
   8.3400000000000002E-002   -0.12030028306731627     
   8.3700000000000011E-002   -0.10742829816593578     
   8.4000000000000005E-002    -8.6378024700098227E-002
   8.4300000000000000E-002    -5.6648270028146819E-002
   8.4599999999999995E-002    -1.8272009962438704E-002
   8.4900000000000003E-002     2.8007721135086799E-002
   8.5199999999999998E-002     8.0640203577466346E-002
   8.5500000000000007E-002    0.13731291594785225     
   8.5800000000000001E-002    0.19501548033175062     
   8.6100000000000010E-002    0.25015719434267014     
   8.6399999999999991E-002    0.29885343947801019     
   8.6699999999999999E-002    0.33723320295862730     
   8.7000000000000008E-002    0.36176139958691944     
   8.7300000000000003E-002    0.36965781181338531     
   8.7599999999999997E-002    0.35914029256529723     
   8.7900000000000006E-002    0.32976123118837930     
   8.8200000000000014E-002    0.28248218233199873     
   8.8499999999999995E-002    0.21979541817246873     
   8.8800000000000004E-002    0.14553777740584650     
   8.9100000000000013E-002     6.4673415862740835E-002
   8.9399999999999993E-002    -1.7002040007250127E-002
   8.9700000000000002E-002    -9.3339192268895060E-002
   9.0000000000000011E-002   -0.15829012477508062     
   9.0299999999999991E-002   -0.20647137844392277     
   9.0600000000000000E-002   -0.23354928795680241     
   9.0900000000000009E-002   -0.23668076574221786     
   9.1200000000000017E-002   -0.21478903523397522     
   9.1499999999999998E-002   -0.16870536146277945     
   9.1800000000000007E-002   -0.10114315464641428     
   9.2100000000000001E-002    -1.6554619976547592E-002
   9.2399999999999996E-002     7.9085763792952873E-002
   9.2700000000000005E-002    0.17882752033774235     
   9.3000000000000013E-002    0.27514053844185832     
   9.3300000000000008E-002    0.36054778049947822     
   9.3600000000000003E-002    0.42811906623781143     
   9.3899999999999997E-002    0.47203808023320859     
   9.4200000000000006E-002    0.48795955900181121     
   9.4500000000000001E-002    0.47343547186176760     
   9.4800000000000009E-002    0.42795283014687663     
   9.5100000000000004E-002    0.35314396280746496     
   9.5399999999999999E-002    0.25243735731966699     
   9.5699999999999993E-002    0.13100824305838488     
   9.6000000000000002E-002    -4.7208767681480163E-003
   9.6300000000000011E-002   -0.14747226496921817     
   9.6600000000000005E-002   -0.28961136016706479     
   9.6900000000000000E-002   -0.42362421751007939     
   9.7200000000000009E-002   -0.54259415543623324     
   9.7499999999999989E-002   -0.64059197109005939     
   9.7799999999999998E-002   -0.71284833339862685     
   9.8100000000000007E-002   -0.75620137457201286     
   9.8400000000000015E-002   -0.76889331534269512     
   9.8699999999999996E-002   -0.75082997016062236     
   9.9000000000000005E-002   -0.70339063135141267     
   9.9300000000000013E-002   -0.62923759130697532     
   9.9599999999999994E-002   -0.53226022074032364     
   9.9900000000000003E-002   -0.41711861869721117     
  0.10020000000000001        -0.28917178049824832     
  0.10049999999999999        -0.15416024283389432     
  0.10080000000000000         -1.7880550137946830E-002
  0.10110000000000001         0.11402345885758619     
  0.10140000000000000         0.23635221134274409     
  0.10170000000000000         0.34451365744037005     
  0.10200000000000001         0.43473732240479152     
  0.10230000000000002         0.50431604623528559     
  0.10260000000000000         0.55166458180995670     
  0.10290000000000001         0.57638374275795556     
  0.10320000000000000         0.57926800974804937     
  0.10350000000000001         0.56225393585129391     
  0.10380000000000000         0.52830622823059548     
  0.10410000000000001         0.48108271767872601     
  0.10440000000000001         0.42480462065048669     
  0.10470000000000000         0.36374068634627521     
  0.10500000000000000         0.30210664742896209     
  0.10530000000000000         0.24339089115006973     
  0.10560000000000000         0.19025616309946736     
  0.10590000000000001         0.14427876851318810     
  0.10620000000000000         0.10566707779006448     
  0.10650000000000001          7.3455676305914416E-002
  0.10679999999999999          4.5556942172745633E-002
  0.10710000000000000          1.8907884682637432E-002
  0.10740000000000001         -9.9691006685267390E-003
  0.10770000000000000         -4.4596263541313963E-002
  0.10800000000000000         -8.8086091362269650E-002
  0.10830000000000001        -0.14271138382284126     
  0.10859999999999999        -0.20941624772462150     
  0.10890000000000000        -0.28774949902070257     
  0.10920000000000001        -0.37573881284014665     
  0.10950000000000001        -0.46990395550510367     
  0.10979999999999999        -0.56560665419714184     
  0.11009999999999999        -0.65750269887837698     
  0.11040000000000001        -0.73988535605088168     
  0.11070000000000001        -0.80740485978646848     
  0.11100000000000000        -0.85532288294897207     
  0.11130000000000000        -0.88014121625523734     
  0.11160000000000002        -0.87967567134509261     
  0.11190000000000001        -0.85340485577840741     
  0.11220000000000001        -0.80216754679479640     
  0.11250000000000000        -0.72816422710311357     
  0.11280000000000000        -0.63464266346402831     
  0.11309999999999999        -0.52538302205167176     
  0.11340000000000001        -0.40454353431208212     
  0.11369999999999998        -0.27623711935640660     
  0.11400000000000000        -0.14419703941919440     
  0.11430000000000000         -1.1740253086078088E-002
  0.11460000000000002         0.11824060528402026     
  0.11489999999999999         0.24340428301069816     
  0.11520000000000001         0.36173901734184960     
  0.11550000000000001         0.47136145911566962     
  0.11580000000000000         0.57058794897446585     
  0.11609999999999999         0.65757206167152971     
  0.11640000000000002         0.73047783961320256     
  0.11670000000000001         0.78742844254382549     
  0.11700000000000001         0.82658708480074528     
  0.11730000000000000         0.84640503142458601     
  0.11760000000000000         0.84577957850717522     
  0.11789999999999999         0.82426657859022057     
  0.11820000000000001         0.78223041289739237     
  0.11850000000000001         0.72090738853054459     
  0.11880000000000000         0.64253804910258028     
  0.11910000000000000         0.55003041187465262     
  0.11940000000000002         0.44720042086727774     
  0.11970000000000001         0.33804618792640151     
  0.12000000000000001         0.22694120658938532     
  0.12030000000000000         0.11810535064192024     
  0.12060000000000000          1.5274983827021350E-002
  0.12089999999999999         -7.8291023127459364E-002
  0.12119999999999999        -0.16009511250478287     
  0.12150000000000001        -0.22829701252487242     
  0.12180000000000001        -0.28201295305032492     
  0.12210000000000000        -0.32074529711288502     
  0.12239999999999999        -0.34476512989760105     
  0.12270000000000002        -0.35466379025219458     
  0.12300000000000001        -0.35128334298290786     
  0.12330000000000001        -0.33580166686582513     
  0.12360000000000000        -0.30940177181026729     
  0.12390000000000000        -0.27377117218165381     
  0.12419999999999999        -0.23067838618469894     
  0.12450000000000001        -0.18223192362622284     
  0.12480000000000001        -0.13078916205402782     
  0.12509999999999999         -7.9025632048909000E-002
  0.12540000000000001         -2.9768842055462499E-002
  0.12570000000000003          1.4214705814065462E-002
  0.12600000000000000          5.0551517910195722E-002
  0.12630000000000002          7.7486287987054148E-002
  0.12659999999999999          9.3878427194525813E-002
  0.12690000000000001          9.9968503470294401E-002
  0.12719999999999998          9.6925034121123119E-002
  0.12750000000000000          8.7253003472958821E-002
  0.12780000000000002          7.4373608637740174E-002
  0.12809999999999999          6.2194044110766539E-002
  0.12840000000000001          5.5151437982638815E-002
  0.12869999999999998          5.7225709149415105E-002
  0.12900000000000000          7.1779633770901102E-002
  0.12930000000000003         0.10102695022535971     
  0.12959999999999999         0.14565711241055634     
  0.12990000000000002         0.20483244813248838     
  0.13019999999999998         0.27597161556332345     
  0.13050000000000000         0.35509758804501346     
  0.13080000000000003         0.43695816990459740     
  0.13109999999999999         0.51554476354481127     
  0.13140000000000002         0.58452972218402954     
  0.13169999999999998         0.63760243845460873     
  0.13200000000000001         0.66913737389200245     
  0.13229999999999997         0.67431300603329181     
  0.13260000000000000         0.64975240406127077     
  0.13290000000000002         0.59344352755209662     
  0.13319999999999999         0.50492247196376405     
  0.13350000000000001         0.38559342577571032     
  0.13380000000000003         0.23842021728849522     
  0.13410000000000000          6.8248677172300570E-002
  0.13440000000000002        -0.11900273648837270     
  0.13469999999999999        -0.31573700587114439     
  0.13500000000000001        -0.51360708464315064     
  0.13529999999999998        -0.70360075680320455     
  0.13560000000000000        -0.87653894945685407     
  0.13590000000000002         -1.0237378259895975     
  0.13619999999999999         -1.1374098652137019     
  0.13650000000000001         -1.2112021364125694     
  0.13680000000000003         -1.2409733345265725     
  0.13710000000000000         -1.2247307746478739     
  0.13740000000000002         -1.1633742885146832     
  0.13769999999999999         -1.0602289695877138     
  0.13800000000000001        -0.92150556176169207     
  0.13829999999999998        -0.75513457073643064     
  0.13860000000000000        -0.57092772379055656     
  0.13890000000000002        -0.37962611336194257     
  0.13919999999999999        -0.19174761911696159     
  0.13950000000000001         -1.7702215356120411E-002
  0.13979999999999998         0.13401234962374936     
  0.14010000000000000         0.25645141163235169     
  0.14040000000000002         0.34518922306046074     
  0.14069999999999999         0.39852343492343489     
  0.14100000000000001         0.41723933799399926     
  0.14130000000000004         0.40489830683778566     
  0.14160000000000000         0.36689758071410583     
  0.14189999999999997         0.31089708434941493     
  0.14219999999999999         0.24531926683520766     
  0.14250000000000002         0.17972705178793261     
  0.14279999999999998         0.12329354245939350     
  0.14310000000000000          8.4710155369991172E-002
  0.14339999999999997          7.1344100861074275E-002
  0.14369999999999999          8.8658356180619347E-002
  0.14400000000000002         0.13974343813965157     
  0.14429999999999998         0.22488202748823657     
  0.14460000000000001         0.34112068527751283     
  0.14490000000000003         0.48247515638637672     
  0.14520000000000000         0.63998138197607568     
  0.14550000000000002         0.80204371064172253     
  0.14579999999999999         0.95533461960766908     
  0.14610000000000001          1.0855823881185758     
  0.14640000000000003          1.1786458000769804     
  0.14670000000000000          1.2219332785691492     
  0.14699999999999996          1.2055027780324201     
  0.14729999999999999          1.1231039145415049     
  0.14760000000000001         0.97321128556941172     
  0.14789999999999998         0.75947099018773956     
  0.14820000000000000         0.49051877706523583     