  -1.4999999999999999E-002     0.0000000000000000     
  -1.4700000000000000E-002     0.0000000000000000     
  -1.4400000000000000E-002     0.0000000000000000     
  -1.4100000000000000E-002     0.0000000000000000     
  -1.3800000000000000E-002     0.0000000000000000     
  -1.3500000000000000E-002     0.0000000000000000     
  -1.3200000000000000E-002     0.0000000000000000     
  -1.2899999999999998E-002     0.0000000000000000     
  -1.2600000000000000E-002     0.0000000000000000     
  -1.2299999999999998E-002     0.0000000000000000     
  -1.2000000000000000E-002     0.0000000000000000     
  -1.1699999999999999E-002     0.0000000000000000     
  -1.1399999999999999E-002     0.0000000000000000     
  -1.1099999999999999E-002     0.0000000000000000     
  -1.0799999999999999E-002     0.0000000000000000     
  -1.0499999999999999E-002     0.0000000000000000     
  -1.0199999999999999E-002     0.0000000000000000     
  -9.8999999999999991E-003     0.0000000000000000     
  -9.5999999999999992E-003     0.0000000000000000     
  -9.2999999999999992E-003     0.0000000000000000     
  -8.9999999999999993E-003     0.0000000000000000     
  -8.6999999999999994E-003     0.0000000000000000     
  -8.3999999999999995E-003     0.0000000000000000     
  -8.0999999999999996E-003     0.0000000000000000     
  -7.7999999999999988E-003     0.0000000000000000     
  -7.4999999999999997E-003     0.0000000000000000     
  -7.1999999999999998E-003     0.0000000000000000     
  -6.8999999999999981E-003     0.0000000000000000     
  -6.5999999999999982E-003     3.4573153945972088E-037
  -6.3000000000000000E-003     2.7708150422262994E-036
  -6.0000000000000001E-003    -2.9133443585560402E-036
  -5.6999999999999985E-003    -3.5499461592987078E-035
  -5.3999999999999986E-003     5.8877452634313668E-035
  -5.1000000000000004E-003    -2.5970207007770688E-034
  -4.7999999999999987E-003    -3.6139231231644669E-034
  -4.5000000000000005E-003     9.7375531846296114E-034
  -4.1999999999999989E-003    -1.1448536114004081E-034
  -3.8999999999999990E-003     3.6157967182785970E-033
  -3.5999999999999990E-003    -2.0556449262797920E-032
  -3.2999999999999991E-003    -3.3373822678130592E-033
  -2.9999999999999992E-003     1.0449179851832464E-031
  -2.6999999999999993E-003     2.3116540933732440E-033
  -2.3999999999999994E-003    -4.1196419674819856E-031
  -2.0999999999999977E-003    -1.9227813031014704E-031
  -1.7999999999999995E-003     3.2864518758502941E-030
  -1.4999999999999979E-003    -9.2545591503104974E-030
  -1.1999999999999997E-003     1.6321133512799441E-029
  -8.9999999999999976E-004     2.7269258824655081E-030
  -5.9999999999999810E-004    -9.6091174428508106E-029
  -2.9999999999999992E-004     1.8063225539704269E-028
   0.0000000000000000         -2.5780086426170824E-029
   3.0000000000000165E-004    -2.1607645124005989E-028
   5.9999999999999984E-004    -1.9081158538197043E-028
   9.0000000000000149E-004     1.6087546665328609E-027
   1.2000000000000031E-003    -2.3300377725560191E-027
   1.5000000000000013E-003    -5.2081323954314046E-027
   1.8000000000000030E-003     2.9417617891898050E-026
   2.1000000000000012E-003    -4.0351594338602087E-026
   2.3999999999999994E-003    -5.1329546588890522E-026
   2.7000000000000010E-003     2.5928049378380635E-025
   2.9999999999999992E-003    -2.8507179534766218E-025
   3.3000000000000008E-003    -4.5708692530014922E-025
   3.6000000000000025E-003     2.0271757222925946E-024
   3.9000000000000007E-003    -2.1349318354131181E-024
   4.2000000000000023E-003    -3.8976154154888232E-024
   4.5000000000000005E-003     1.5320195609955996E-023
   4.7999999999999987E-003    -1.4028674462430340E-023
   5.1000000000000004E-003    -2.7613442948279542E-023
   5.4000000000000020E-003     9.8420769547617403E-023
   5.7000000000000037E-003    -8.7403882344226685E-023
   5.9999999999999984E-003    -1.6980473048000579E-022
   6.3000000000000000E-003     5.9266029294155460E-022
   6.6000000000000017E-003    -5.1084568220446993E-022
   6.9000000000000034E-003    -9.4044767420582253E-022
   7.2000000000000015E-003     3.2077979557483323E-021
   7.5000000000000032E-003    -2.8178301409850455E-021
   7.8000000000000014E-003    -4.6368855263508078E-021
   8.0999999999999996E-003     1.6409777340392107E-020
   8.4000000000000012E-003    -1.4255870044867845E-020
   8.7000000000000029E-003    -2.4861391082428699E-020
   9.0000000000000011E-003     8.4903444742273977E-020
   9.2999999999999992E-003    -6.7572852533522889E-020
   9.6000000000000009E-003    -1.4840247683831430E-019
   9.8999999999999991E-003     4.6354719877394675E-019
   1.0200000000000001E-002    -3.2151050665520871E-019
   1.0500000000000002E-002    -9.0317841502976181E-019
   1.0800000000000004E-002     2.5196239589305815E-018
   1.1099999999999999E-002    -1.4888307080938576E-018
   1.1400000000000000E-002    -5.0417908112975059E-018
   1.1700000000000002E-002     1.2701755016847363E-017
   1.2000000000000004E-002    -6.3701323064684044E-018
   1.2300000000000002E-002    -2.5103147106831852E-017
   1.2600000000000000E-002     5.7218823202027003E-017
   1.2900000000000002E-002    -2.3493182242091160E-017
   1.3200000000000000E-002    -1.1057807900997240E-016
   1.3500000000000002E-002     2.2703359380429420E-016
   1.3800000000000003E-002    -7.1663143823927302E-017
   1.4100000000000001E-002    -4.3125408138145461E-016
   1.4400000000000000E-002     7.9266498669353333E-016
   1.4700000000000001E-002    -1.7087782271834765E-016
   1.4999999999999999E-002    -1.4882578511305547E-015
   1.5300000000000001E-002     2.4448747095454625E-015
   1.5600000000000003E-002    -2.9317624097325029E-016
   1.5899999999999997E-002    -4.5484499688259241E-015
   1.6199999999999999E-002     6.7492078377440616E-015
   1.6500000000000001E-002    -2.9146116080642883E-016
   1.6800000000000002E-002    -1.2399149426875634E-014
   1.7100000000000004E-002     1.7086875762693333E-014
   1.7400000000000006E-002    -1.2205603551560124E-017
   1.7700000000000000E-002    -3.0902373094264443E-014
   1.8000000000000002E-002     4.0791968912069772E-014
   1.8300000000000004E-002     1.4201693449578437E-015
   1.8600000000000005E-002    -7.2767785400332865E-014
   1.8900000000000000E-002     8.7255370062087025E-014
   1.9200000000000002E-002     1.5465971220642876E-014
   1.9500000000000003E-002    -1.4221905381716638E-013
   1.9799999999999998E-002     1.0433726281538669E-013
   2.0100000000000000E-002     3.9461796663578858E-014
   2.0400000000000001E-002     7.5731924922588079E-014
   2.0700000000000003E-002    -1.8582100349138748E-013
   2.0999999999999998E-002    -1.0025799216619436E-012
   2.1299999999999999E-002     2.4693753446687106E-012
   2.1600000000000001E-002     1.6584845523205427E-012
   2.1900000000000003E-002    -1.0113416276190904E-011
   2.2200000000000004E-002     1.5797705310081268E-012
   2.2500000000000006E-002     2.5250341530847656E-011
   2.2800000000000001E-002    -4.2539417862098480E-012
   2.3100000000000002E-002    -5.7681049714425432E-011
   2.3400000000000004E-002    -5.5234213236847744E-011
   2.3699999999999999E-002     2.1426893742905124E-010
   2.4000000000000000E-002     4.0847171148360437E-010
   2.4300000000000002E-002    -1.0981897930654375E-009
   2.4599999999999997E-002    -1.5418509085655221E-009
   2.4900000000000005E-002     5.2674035482031798E-009
   2.5200000000000000E-002     3.3802958913422231E-009
   2.5499999999999995E-002    -2.2420502048319454E-008
   2.5800000000000003E-002    -5.7567291290978097E-010
   2.6099999999999998E-002     8.5568877453274456E-008
   2.6400000000000007E-002    -4.1026795910327324E-008
   2.6700000000000002E-002    -3.3832155295489798E-007
   2.6999999999999996E-002     3.5374485451247941E-007
   2.7300000000000005E-002     3.0036973108481641E-006
   2.7600000000000000E-002     6.7802730746761920E-006
   2.7900000000000008E-002     1.1022154073287361E-005
   2.8200000000000003E-002     1.7237335465074855E-005
   2.8499999999999998E-002     2.6468389911293389E-005
   2.8800000000000006E-002     3.7547579311693205E-005
   2.9100000000000001E-002     5.1573232534419985E-005
   2.9400000000000003E-002     7.5881815129493499E-005
   2.9700000000000004E-002     1.1894113091071240E-004
   3.0000000000000006E-002     1.8319318931734360E-004
   3.0300000000000001E-002     2.7037150969692382E-004
   3.0600000000000002E-002     3.9036023405478372E-004
   3.0900000000000004E-002     5.5648617531873514E-004
   3.1199999999999999E-002     7.8060942898462574E-004
   3.1500000000000007E-002     1.0776639011361657E-003
   3.1800000000000002E-002     1.4649753045017804E-003
   3.2099999999999997E-002     1.9595819195059802E-003
   3.2400000000000005E-002     2.5769356892374716E-003
   3.2700000000000000E-002     3.3248169738172742E-003
   3.3000000000000002E-002     4.2065578496105031E-003
   3.3300000000000003E-002     5.2262870302985133E-003
   3.3599999999999998E-002     6.3745864445177072E-003
   3.3900000000000000E-002     7.6169168943158866E-003
   3.4200000000000001E-002     8.8935724525540001E-003
   3.4500000000000003E-002     1.0125015984224675E-002
   3.4799999999999998E-002     1.1222298027924311E-002
   3.5099999999999999E-002     1.2075355906433053E-002
   3.5400000000000001E-002     1.2538914895236329E-002
   3.5699999999999996E-002     1.2465215802879872E-002
   3.6000000000000004E-002     1.1731503405550387E-002
   3.6299999999999999E-002     1.0235189082057655E-002
   3.6600000000000008E-002     7.9075249645749919E-003
   3.6900000000000002E-002     4.7283452914894629E-003
   3.7199999999999997E-002     7.3477683098012100E-004
   3.7500000000000006E-002    -3.9577574770818394E-003
   3.7800000000000000E-002    -9.1694036252932178E-003
   3.8100000000000009E-002    -1.4685811158279232E-002
   3.8400000000000004E-002    -2.0298720522181457E-002
   3.8699999999999998E-002    -2.5856529748660689E-002
   3.9000000000000007E-002    -3.1316644676290667E-002
   3.9300000000000002E-002    -3.6801722827410649E-002
   3.9600000000000003E-002    -4.2686220148171292E-002
   3.9900000000000005E-002    -4.9641783778638322E-002
   4.0200000000000000E-002    -5.8634419593794312E-002
   4.0500000000000001E-002    -7.0919677071943091E-002
   4.0800000000000003E-002    -8.7988447941777848E-002
   4.1100000000000005E-002   -0.11143015468478419     
   4.1399999999999999E-002   -0.14280109231962368     
   4.1700000000000008E-002   -0.18340378089619663     
   4.2000000000000003E-002   -0.23405437801260451     
   4.2299999999999997E-002   -0.29490313525703088     
   4.2600000000000006E-002   -0.36526626220949626     
   4.2900000000000001E-002   -0.44349298744283328     
   4.3200000000000002E-002   -0.52689768294455486     
   4.3500000000000004E-002   -0.61183948146971212     
   4.3799999999999999E-002   -0.69386192971179705     
   4.4100000000000000E-002   -0.76792799346681018     
   4.4400000000000002E-002   -0.82878412666359313     
   4.4700000000000004E-002   -0.87127399900439695     
   4.4999999999999998E-002   -0.89070208436855081     
   4.5300000000000000E-002   -0.88332627048727219     
   4.5600000000000002E-002   -0.84632780502318183     
   4.5899999999999996E-002   -0.77834355506037323     
   4.6200000000000005E-002   -0.67919422658895012     
   4.6500000000000000E-002   -0.55020059402220833     
   4.6799999999999994E-002   -0.39378799418774907     
   4.7100000000000003E-002   -0.21340125664824011     
   4.7399999999999998E-002    -1.3148163936699708E-002
   4.7700000000000006E-002    0.20228549937071552     
   4.8000000000000001E-002    0.42808355049475449     
   4.8300000000000010E-002    0.65931399411852543     
   4.8600000000000004E-002    0.89119184775796068     
   4.8899999999999999E-002     1.1190162692637307     
   4.9200000000000008E-002     1.3382700028729111     
   4.9500000000000002E-002     1.5446259737946935     
   4.9800000000000011E-002     1.7338673222468999     
   5.0100000000000006E-002     1.9018384378979922     
   5.0400000000000000E-002     2.0445957180564278     
   5.0700000000000009E-002     2.1584251090222981     
   5.1000000000000004E-002     2.2400009701297305     
   5.1299999999999998E-002     2.2865964630925215     
   5.1600000000000007E-002     2.2961835508406541     
   5.1900000000000002E-002     2.2676679994150559     
   5.2200000000000010E-002     2.2009790833744765     
   5.2500000000000005E-002     2.0971477550720947     
   5.2800000000000000E-002     1.9582666062266503     
   5.3099999999999994E-002     1.7871144022803453     
   5.3400000000000003E-002     1.5872570593181343     
   5.3699999999999998E-002     1.3622553058416640     
   5.4000000000000006E-002     1.1161235667863552     
   5.4300000000000001E-002    0.85217526441153302     
   5.4599999999999996E-002    0.57372957472930353     
   5.4900000000000004E-002    0.28317878285751641     
   5.5199999999999999E-002    -1.7062592371698791E-002
   5.5499999999999994E-002   -0.32497125414568312     
   5.5800000000000002E-002   -0.63812319080384361     
   5.6099999999999997E-002   -0.95378293769534339     
   5.6400000000000006E-002    -1.2679829933678977     
   5.6700000000000000E-002    -1.5757863390411813     
   5.6999999999999995E-002    -1.8709070792051965     
   5.7300000000000004E-002    -2.1458448001796100     
   5.7599999999999998E-002    -2.3922884055599036     
   5.7900000000000007E-002    -2.6016228097202863     
   5.8200000000000002E-002    -2.7654088622404780     
   5.8499999999999996E-002    -2.8764802504084610     
   5.8800000000000005E-002    -2.9293701561443646     
   5.9100000000000000E-002    -2.9210921048711374     
   5.9400000000000008E-002    -2.8514261080936771     
   5.9700000000000003E-002    -2.7231138066349585     
   6.0000000000000012E-002    -2.5420725329828766     
   6.0300000000000006E-002    -2.3163207817044293     
   6.0600000000000001E-002    -2.0564370709996194     
   6.0900000000000010E-002    -1.7732305398533570     
   6.1200000000000004E-002    -1.4787687819240354     
   6.1500000000000013E-002    -1.1837835901497982     
   6.1800000000000008E-002   -0.89808980741284783     
   6.2100000000000002E-002   -0.62929675298016319     
   6.2399999999999997E-002   -0.38256033622039992     
   6.2700000000000006E-002   -0.16091545305081756     
   6.3000000000000000E-002     3.5585469713987530E-002
   6.3300000000000009E-002    0.20815350539389307     
   6.3600000000000004E-002    0.36017201135737908     
   6.3899999999999998E-002    0.49508735411321225     
   6.4199999999999993E-002    0.61650502432839061     
   6.4500000000000002E-002    0.72719854969787290     
   6.4800000000000010E-002    0.82762264272302111     
   6.5100000000000005E-002    0.91686128598580863     
   6.5400000000000000E-002    0.99106926436753029     
   6.5700000000000008E-002     1.0445924267366440     
   6.5999999999999989E-002     1.0701837600058091     
   6.6299999999999998E-002     1.0597556646721895     
   6.6600000000000006E-002     1.0060885715889061     
   6.6900000000000001E-002    0.90369936124094830     
   6.7199999999999996E-002    0.75072686966154611     
   6.7500000000000004E-002    0.54978540522405450     
   6.7800000000000013E-002    0.30863737546386188     
   6.8099999999999994E-002     4.1056584729965456E-002
   6.8400000000000002E-002   -0.23463109804943616     
   6.8700000000000011E-002   -0.49508385781632180     
   6.8999999999999992E-002   -0.71568615186442930     
   6.9300000000000000E-002   -0.87056679276921034     
   6.9600000000000009E-002   -0.93706132093377326     
   6.9900000000000004E-002   -0.89676053161322988     
   7.0199999999999999E-002   -0.73846355071810221     
   7.0500000000000007E-002   -0.45979861207640160     
   7.0800000000000016E-002    -6.7667553517644835E-002
   7.1099999999999997E-002    0.42115580214798665     
   7.1400000000000005E-002    0.98125776146750909     
   7.1700000000000000E-002     1.5803057910683582     
   7.1999999999999995E-002     2.1811209253201493     
   7.2300000000000003E-002     2.7448949921466967     
   7.2600000000000012E-002     3.2337484524197735     
   7.2900000000000006E-002     3.6137981821822742     
   7.3200000000000001E-002     3.8574542277095851     
   7.3499999999999996E-002     3.9455931099728394     
   7.3800000000000004E-002     3.8683176455454618     
   7.4099999999999999E-002     3.6259368182881659     
   7.4400000000000008E-002     3.2285419620508544     
   7.4700000000000003E-002     2.6949650385599346     
   7.5000000000000011E-002     2.0521254750041349     
   7.5299999999999992E-002     1.3327130148891357     
   7.5600000000000001E-002    0.57380200793438441     
   7.5900000000000009E-002   -0.18540717634643544     
   7.6200000000000004E-002   -0.90577954212638645     
   7.6499999999999999E-002    -1.5497008424396155     
   7.6800000000000007E-002    -2.0833072463621578     
   7.7099999999999988E-002    -2.4783066998664127     
   7.7399999999999997E-002    -2.7132049682872283     
   7.7700000000000005E-002    -2.7749531038725155     
   7.8000000000000014E-002    -2.6596915949804782     
   7.8299999999999995E-002    -2.3736262093594607     
   7.8600000000000003E-002    -1.9328073535484047     
   7.8900000000000012E-002    -1.3632546228207461     
   7.9199999999999993E-002   -0.69928957017990601     
   7.9500000000000001E-002     1.7369987617033067E-002
   7.9800000000000010E-002    0.74053624454801537     
   8.0100000000000018E-002     1.4217109509399675     
   8.0399999999999999E-002     2.0135660153640442     
   8.0700000000000008E-002     2.4732982243477055     
   8.1000000000000003E-002     2.7655281135856757     
   8.1299999999999997E-002     2.8652094457799220     
   8.1600000000000006E-002     2.7601550109608528     
   8.1900000000000014E-002     2.4520702276107427     
   8.2199999999999995E-002     1.9571483920165793     
   8.2500000000000004E-002     1.3046014392997971     
   8.2799999999999999E-002    0.53568352927749530     
   8.3100000000000007E-002   -0.30027503761962560     
   8.3400000000000002E-002    -1.1486506292012528     
   8.3700000000000011E-002    -1.9550457236448513     
   8.4000000000000005E-002    -2.6683113538486065     
   8.4300000000000000E-002    -3.2459809931712575     
   8.4599999999999995E-002    -3.6565866505332667     
   8.4900000000000003E-002    -3.8826902423150687     
   8.5199999999999998E-002    -3.9224044499994601     
   8.5500000000000007E-002    -3.7885297728769043     
   8.5800000000000001E-002    -3.5080367160979264     
   8.6100000000000010E-002    -3.1183845269663744     
   8.6399999999999991E-002    -2.6645860106119925     
   8.6699999999999999E-002    -2.1949168427221957     
   8.7000000000000008E-002    -1.7558692881933138     
   8.7300000000000003E-002    -1.3889071450687598     
   8.7599999999999997E-002    -1.1253415062752892     
   8.7900000000000006E-002   -0.98515111108039166     
   8.8200000000000014E-002   -0.97389039589097925     
   8.8499999999999995E-002    -1.0837030033355177     
   8.8800000000000004E-002    -1.2937494227143196     
   8.9100000000000013E-002    -1.5720088002418302     
   8.9399999999999993E-002    -1.8798126334403382     
   8.9700000000000002E-002    -2.1740620584448638     
   9.0000000000000011E-002    -2.4129181139512621     
   9.0299999999999991E-002    -2.5588732627661850     
   9.0600000000000000E-002    -2.5823740800469901     
   9.0900000000000009E-002    -2.4650932106304495     
   9.1200000000000017E-002    -2.2004096547608629     
   9.1499999999999998E-002    -1.7953801498759239     
   9.1800000000000007E-002    -1.2686873856243817     
   9.2100000000000001E-002   -0.64901815377668304     
   9.2399999999999996E-002     2.6846008320734527E-002
   9.2700000000000005E-002    0.71912835150592958     
   9.3000000000000013E-002     1.3862700362770275     
   9.3300000000000008E-002     1.9914218435994617     
   9.3600000000000003E-002     2.5025319831791872     
   9.3899999999999997E-002     2.8970065382383274     
   9.4200000000000006E-002     3.1620892866374359     
   9.4500000000000001E-002     3.2945813841444922     
   9.4800000000000009E-002     3.3025589955692771     
   9.5100000000000004E-002     3.2010250172987971     
   9.5399999999999999E-002     3.0117562765393897     
   9.5699999999999993E-002     2.7595353827837803     
   9.6000000000000002E-002     2.4689504133726876     
   9.6300000000000011E-002     2.1636783204483843     
   9.6600000000000005E-002     1.8605927979074606     
   9.6900000000000000E-002     1.5721212520044050     
   9.7200000000000009E-002     1.3015511034359701     
   9.7499999999999989E-002     1.0464340479576029     
   9.7799999999999998E-002    0.79764583216249496     
   9.8100000000000007E-002    0.54267616143862663     
   9.8400000000000015E-002    0.26865924567248656     
   9.8699999999999996E-002    -3.4728085389652802E-002
   9.9000000000000005E-002   -0.37011424890580302     
   9.9300000000000013E-002   -0.73056144737190676     
   9.9599999999999994E-002    -1.0965673440830441     
   9.9900000000000003E-002    -1.4342309919297682     
  0.10020000000000001         -1.6982755756245775     
  0.10049999999999999         -1.8318155490642358     
  0.10080000000000000         -1.7751857824123589     
  0.10110000000000001         -1.4704348126239464     
  0.10140000000000000        -0.87128500834644718     
  0.10170000000000000          4.8257056937390796E-002
  0.10200000000000001          1.2858614465872149     
  0.10230000000000002          2.8032867116215261     
  0.10260000000000000          4.5245931798784280     
  0.10290000000000001          6.3354268168695587     
  0.10320000000000000          8.0886637298123816     
  0.10350000000000001          9.6151998113655424     
  0.10380000000000000          10.736072982078799     
  0.10410000000000001          11.282303335123999     
  0.10440000000000001          11.110511176221939     
  0.10470000000000000          10.123611816648477     
  0.10500000000000000          8.2835956799818860     
  0.10530000000000000          5.6239571742232677     
  0.10560000000000000          2.2528552235957529     
  0.10590000000000001         -1.6490597892833359     
  0.10620000000000000         -5.8397590864325766     
  0.10650000000000001         -10.031580278303608     
  0.10679999999999999         -13.915966783173754     
  0.10710000000000000         -17.186398260793595     
  0.10740000000000001         -19.567997784650153     
  0.10770000000000000         -20.839972677564823     
  0.10800000000000000         -20.857895555947469     
  0.10830000000000001         -19.567226380801426     
  0.10859999999999999         -17.008874413383662     
  0.10890000000000000         -13.319069761698728     
  0.10920000000000001         -8.7163452614713179     
  0.10950000000000001         -3.4873472545055799     
  0.10979999999999999          2.0389247371627803     
  0.11009999999999999          7.5152236252111884     
  0.11040000000000001          12.602427532124789     
  0.11070000000000001          16.996004819580399     
  0.11100000000000000          20.444049874653601     
  0.11130000000000000          22.766022303606807     
  0.11160000000000002          23.858651135516894     
  0.11190000000000001          23.700582845033519     
  0.11220000000000001          22.347005294141574     
  0.11250000000000000          19.920481653788247     
  0.11280000000000000          16.597830077799358     
  0.11309999999999999          12.593494733324498     
  0.11340000000000001          8.1419208159660670     
  0.11369999999999998          3.4827553052310298     
  0.11400000000000000         -1.1564608606035174     
  0.11430000000000000         -5.5715700012476796     
  0.11460000000000002         -9.5906066096661089     
  0.11489999999999999         -13.082275585207803     
  0.11520000000000001         -15.954407028005061     
  0.11550000000000001         -18.158112580614421     
  0.11580000000000000         -19.679565159058178     
  0.11609999999999999         -20.541053356015070     
  0.11640000000000002         -20.786749540474922     
  0.11670000000000001         -20.483453234350399     
  0.11700000000000001         -19.705491580247624     
  0.11730000000000000         -18.532414450364250     
  0.11760000000000000         -17.041556565090410     
  0.11789999999999999         -15.300914823681055     
  0.11820000000000001         -13.370491413031365     
  0.11850000000000001         -11.295153771725296     
  0.11880000000000000         -9.1102056211528701     
  0.11910000000000000         -6.8395829411064959     
  0.11940000000000002         -4.4996760602513151     
  0.11970000000000001         -2.1049728377618346     
  0.12000000000000001         0.33174365831785479     
  0.12030000000000000          2.7920002293758315     
  0.12060000000000000          5.2511668396599296     
  0.12089999999999999          7.6755540721111224     
  0.12119999999999999          10.022110489616235     
  0.12150000000000001          12.239506503831910     
  0.12180000000000001          14.270548842953746     
  0.12210000000000000          16.052583024261086     
  0.12239999999999999          17.526958098981726     
  0.12270000000000002          18.635380330919052     
  0.12300000000000001          19.332694913238321     
  0.12330000000000001          19.582158458252277     
  0.12360000000000000          19.365713190022554     
  0.12390000000000000          18.680724332137718     
  0.12419999999999999          17.543990123991627     
  0.12450000000000001          15.990779763307877     
  0.12480000000000001          14.072303638796319     
  0.12509999999999999          11.856706767700645     
  0.12540000000000001          9.4216514289533642     
  0.12570000000000003          6.8538167762364655     
  0.12600000000000000          4.2424042524847048     
  0.12630000000000002          1.6756386201595062     
  0.12659999999999999        -0.76384054946495628     
  0.12690000000000001         -3.0033011625271184     
  0.12719999999999998         -4.9829858319004554     
  0.12750000000000000         -6.6606362651456106     
  0.12780000000000002         -8.0079260893140400     
  0.12809999999999999         -9.0193656434811942     
  0.12840000000000001         -9.7013157557287073     
  0.12869999999999998         -10.080055715148742     
  0.12900000000000000         -10.191149532312936     
  0.12930000000000003         -10.082350350544313     
  0.12959999999999999         -9.8048527889763228     
  0.12990000000000002         -9.4133985059207639     
  0.13019999999999998         -8.9599084706893706     
  0.13050000000000000         -8.4909513093732496     
  0.13080000000000003         -8.0450689483295221     
  0.13109999999999999         -7.6498379993321155     
  0.13140000000000002         -7.3220651953101319     
  0.13169999999999998         -7.0650791039166556     
  0.13200000000000001         -6.8704791051759857     
  0.13229999999999997         -6.7203541733763998     
  0.13260000000000000         -6.5851106387625427     
  0.13290000000000002         -6.4322348161788625     
  0.13319999999999999         -6.2240838615158571     
  0.13350000000000001         -5.9229007780721021     
  0.13380000000000003         -5.4969533466690503     
  0.13410000000000000         -4.9190615975639176     
  0.13440000000000002         -4.1740928164817754     
  0.13469999999999999         -3.2581086213345398     
  0.13500000000000001         -2.1808178576187611     
  0.13529999999999998        -0.96693589062149288     
  0.13560000000000000         0.34839436295078940     
  0.13590000000000002          1.7153353880619560     
  0.13619999999999999          3.0807837874381079     
  0.13650000000000001          4.3827766375654775     
  0.13680000000000003          5.5651361486016313     
  0.13710000000000000          6.5703969568222309     
  0.13740000000000002          7.3555905156570383     
  0.13769999999999999          7.8865206794194069     
  0.13800000000000001          8.1444481454324169     
  0.13829999999999998          8.1283282442594889     
  0.13860000000000000          7.8504786218256069     
  0.13890000000000002          7.3401449818504734     
  0.13919999999999999          6.6373600154057284     
  0.13950000000000001          5.7929193167573807     
  0.13979999999999998          4.8594878592050916     
  0.14010000000000000          3.8967153236059682     
  0.14040000000000002          2.9549540945605877     
  0.14069999999999999          2.0845501224489009     
  0.14100000000000001          1.3247641948846998     
  0.14130000000000004         0.70345949990469769     
  0.14160000000000000         0.24159905045367241     
  0.14189999999999997         -5.7661184901808049E-002
  0.14219999999999999        -0.19582801528439298     
  0.14250000000000002        -0.19097366463033472     
  0.14279999999999998         -6.3715864130847399E-002
  0.14310000000000000         0.15235866566969969     
  0.14339999999999997         0.42315572011507752     
  0.14369999999999999         0.70921135905709398     
  0.14400000000000002         0.97005354699618307     
  0.14429999999999998          1.1701647971680340     
  0.14460000000000001          1.2724809547040741     
  0.14490000000000003          1.2536306229004337     
  0.14520000000000000          1.0926231240977069     
  0.14550000000000002         0.78315893359960442     
  0.14579999999999999         0.32862812121670776     
  0.14610000000000001        -0.25355890538301740     
  0.14640000000000003        -0.93692590217830229     
  0.14670000000000000         -1.6811807077167402     
  0.14699999999999996         -2.4415011543074883     
  0.14729999999999999         -3.1663102438694839     
  0.14760000000000001         -3.8043637968998620     
  0.14789999999999998         -4.3082566798161501     
  0.14820000000000000         -4.6383577548029562     