  -1.4999999999999999E-002     0.0000000000000000     
  -1.4700000000000000E-002     0.0000000000000000     
  -1.4400000000000000E-002     0.0000000000000000     
  -1.4100000000000000E-002     0.0000000000000000     
  -1.3800000000000000E-002     0.0000000000000000     
  -1.3500000000000000E-002     0.0000000000000000     
  -1.3200000000000000E-002     0.0000000000000000     
  -1.2899999999999998E-002     0.0000000000000000     
  -1.2600000000000000E-002     0.0000000000000000     
  -1.2299999999999998E-002     0.0000000000000000     
  -1.2000000000000000E-002     0.0000000000000000     
  -1.1699999999999999E-002     0.0000000000000000     
  -1.1399999999999999E-002     0.0000000000000000     
  -1.1099999999999999E-002     0.0000000000000000     
  -1.0799999999999999E-002     0.0000000000000000     
  -1.0499999999999999E-002     0.0000000000000000     
  -1.0199999999999999E-002     0.0000000000000000     
  -9.8999999999999991E-003     0.0000000000000000     
  -9.5999999999999992E-003     0.0000000000000000     
  -9.2999999999999992E-003     0.0000000000000000     
  -8.9999999999999993E-003     0.0000000000000000     
  -8.6999999999999994E-003     0.0000000000000000     
  -8.3999999999999995E-003     0.0000000000000000     
  -8.0999999999999996E-003     0.0000000000000000     
  -7.7999999999999988E-003     0.0000000000000000     
  -7.4999999999999997E-003     0.0000000000000000     
  -7.1999999999999998E-003     0.0000000000000000     
  -6.8999999999999981E-003     0.0000000000000000     
  -6.5999999999999982E-003     0.0000000000000000     
  -6.3000000000000000E-003     0.0000000000000000     
  -6.0000000000000001E-003     0.0000000000000000     
  -5.6999999999999985E-003     0.0000000000000000     
  -5.3999999999999986E-003     0.0000000000000000     
  -5.1000000000000004E-003     0.0000000000000000     
  -4.7999999999999987E-003     0.0000000000000000     
  -4.5000000000000005E-003     0.0000000000000000     
  -4.1999999999999989E-003     0.0000000000000000     
  -3.8999999999999990E-003     0.0000000000000000     
  -3.5999999999999990E-003     0.0000000000000000     
  -3.2999999999999991E-003     0.0000000000000000     
  -2.9999999999999992E-003     0.0000000000000000     
  -2.6999999999999993E-003     0.0000000000000000     
  -2.3999999999999994E-003     0.0000000000000000     
  -2.0999999999999977E-003     0.0000000000000000     
  -1.7999999999999995E-003     0.0000000000000000     
  -1.4999999999999979E-003     0.0000000000000000     
  -1.1999999999999997E-003     0.0000000000000000     
  -8.9999999999999976E-004     0.0000000000000000     
  -5.9999999999999810E-004     0.0000000000000000     
  -2.9999999999999992E-004     0.0000000000000000     
   0.0000000000000000          0.0000000000000000     
   3.0000000000000165E-004     0.0000000000000000     
   5.9999999999999984E-004     0.0000000000000000     
   9.0000000000000149E-004     0.0000000000000000     
   1.2000000000000031E-003     0.0000000000000000     
   1.5000000000000013E-003     0.0000000000000000     
   1.8000000000000030E-003     0.0000000000000000     
   2.1000000000000012E-003     0.0000000000000000     
   2.3999999999999994E-003     0.0000000000000000     
   2.7000000000000010E-003     0.0000000000000000     
   2.9999999999999992E-003     0.0000000000000000     
   3.3000000000000008E-003     0.0000000000000000     
   3.6000000000000025E-003     0.0000000000000000     
   3.9000000000000007E-003     0.0000000000000000     
   4.2000000000000023E-003     0.0000000000000000     
   4.5000000000000005E-003     0.0000000000000000     
   4.7999999999999987E-003     0.0000000000000000     
   5.1000000000000004E-003     0.0000000000000000     
   5.4000000000000020E-003     0.0000000000000000     
   5.7000000000000037E-003     0.0000000000000000     
   5.9999999999999984E-003     0.0000000000000000     
   6.3000000000000000E-003     0.0000000000000000     
   6.6000000000000017E-003     0.0000000000000000     
   6.9000000000000034E-003     0.0000000000000000     
   7.2000000000000015E-003     0.0000000000000000     
   7.5000000000000032E-003     0.0000000000000000     
   7.8000000000000014E-003     0.0000000000000000     
   8.0999999999999996E-003     0.0000000000000000     
   8.4000000000000012E-003     0.0000000000000000     
   8.7000000000000029E-003     0.0000000000000000     
   9.0000000000000011E-003     0.0000000000000000     
   9.2999999999999992E-003     0.0000000000000000     
   9.6000000000000009E-003     0.0000000000000000     
   9.8999999999999991E-003     0.0000000000000000     
   1.0200000000000001E-002     0.0000000000000000     
   1.0500000000000002E-002     0.0000000000000000     
   1.0800000000000004E-002     0.0000000000000000     
   1.1099999999999999E-002     0.0000000000000000     
   1.1400000000000000E-002     0.0000000000000000     
   1.1700000000000002E-002     0.0000000000000000     
   1.2000000000000004E-002     0.0000000000000000     
   1.2300000000000002E-002     0.0000000000000000     
   1.2600000000000000E-002     0.0000000000000000     
   1.2900000000000002E-002     0.0000000000000000     
   1.3200000000000000E-002     0.0000000000000000     
   1.3500000000000002E-002     0.0000000000000000     
   1.3800000000000003E-002     0.0000000000000000     
   1.4100000000000001E-002     0.0000000000000000     
   1.4400000000000000E-002     0.0000000000000000     
   1.4700000000000001E-002     0.0000000000000000     
   1.4999999999999999E-002     0.0000000000000000     
   1.5300000000000001E-002     0.0000000000000000     
   1.5600000000000003E-002     0.0000000000000000     
   1.5899999999999997E-002     0.0000000000000000     
   1.6199999999999999E-002     0.0000000000000000     
   1.6500000000000001E-002     0.0000000000000000     
   1.6800000000000002E-002     0.0000000000000000     
   1.7100000000000004E-002     0.0000000000000000     
   1.7400000000000006E-002     0.0000000000000000     
   1.7700000000000000E-002     0.0000000000000000     
   1.8000000000000002E-002     0.0000000000000000     
   1.8300000000000004E-002     0.0000000000000000     
   1.8600000000000005E-002     0.0000000000000000     
   1.8900000000000000E-002     0.0000000000000000     
   1.9200000000000002E-002     0.0000000000000000     
   1.9500000000000003E-002     0.0000000000000000     
   1.9799999999999998E-002     0.0000000000000000     
   2.0100000000000000E-002     0.0000000000000000     
   2.0400000000000001E-002     0.0000000000000000     
   2.0700000000000003E-002     0.0000000000000000     
   2.0999999999999998E-002     0.0000000000000000     
   2.1299999999999999E-002     0.0000000000000000     
   2.1600000000000001E-002     0.0000000000000000     
   2.1900000000000003E-002     0.0000000000000000     
   2.2200000000000004E-002     0.0000000000000000     
   2.2500000000000006E-002     0.0000000000000000     
   2.2800000000000001E-002     0.0000000000000000     
   2.3100000000000002E-002     0.0000000000000000     
   2.3400000000000004E-002     0.0000000000000000     
   2.3699999999999999E-002     0.0000000000000000     
   2.4000000000000000E-002     0.0000000000000000     
   2.4300000000000002E-002     0.0000000000000000     
   2.4599999999999997E-002     0.0000000000000000     
   2.4900000000000005E-002     0.0000000000000000     
   2.5200000000000000E-002     0.0000000000000000     
   2.5499999999999995E-002     0.0000000000000000     
   2.5800000000000003E-002     0.0000000000000000     
   2.6099999999999998E-002     0.0000000000000000     
   2.6400000000000007E-002     0.0000000000000000     
   2.6700000000000002E-002     0.0000000000000000     
   2.6999999999999996E-002     0.0000000000000000     
   2.7300000000000005E-002     0.0000000000000000     
   2.7600000000000000E-002     0.0000000000000000     
   2.7900000000000008E-002     0.0000000000000000     
   2.8200000000000003E-002     0.0000000000000000     
   2.8499999999999998E-002     0.0000000000000000     
   2.8800000000000006E-002     0.0000000000000000     
   2.9100000000000001E-002     0.0000000000000000     
   2.9400000000000003E-002     0.0000000000000000     
   2.9700000000000004E-002     0.0000000000000000     
   3.0000000000000006E-002     0.0000000000000000     
   3.0300000000000001E-002     0.0000000000000000     
   3.0600000000000002E-002     0.0000000000000000     
   3.0900000000000004E-002     0.0000000000000000     
   3.1199999999999999E-002     0.0000000000000000     
   3.1500000000000007E-002     0.0000000000000000     
   3.1800000000000002E-002     0.0000000000000000     
   3.2099999999999997E-002     0.0000000000000000     
   3.2400000000000005E-002     0.0000000000000000     
   3.2700000000000000E-002     0.0000000000000000     
   3.3000000000000002E-002     6.3927819002741771E-044
   3.3300000000000003E-002    -6.0245775763494602E-043
   3.3599999999999998E-002     1.2678825958575951E-036
   3.3900000000000000E-002    -1.6815021851710731E-035
   3.4200000000000001E-002     8.6573492353767994E-035
   3.4500000000000003E-002    -3.6032201776824303E-034
   3.4799999999999998E-002     1.1512640222499374E-033
   3.5099999999999999E-002    -4.3762564951960584E-033
   3.5400000000000001E-002     1.2372216856138116E-032
   3.5699999999999996E-002    -2.6783284700805593E-032
   3.6000000000000004E-002     4.4607795213728242E-032
   3.6299999999999999E-002    -3.0077499814132560E-032
   3.6600000000000008E-002    -1.4721109731236839E-031
   3.6900000000000002E-002     8.1849679769027757E-031
   3.7199999999999997E-002    -2.5942443284041209E-030
   3.7500000000000006E-002     6.0224586177185017E-030
   3.7800000000000000E-002    -9.7876850246215575E-030
   3.8100000000000009E-002     5.5495997446232845E-030
   3.8400000000000004E-002     3.1857672476811781E-029
   3.8699999999999998E-002    -1.5312162002231703E-028
   3.9000000000000007E-002     4.1357894556421726E-028
   3.9300000000000002E-002    -7.5001592614788371E-028
   3.9600000000000003E-002     6.4584331330533633E-028
   3.9900000000000005E-002     1.4200543777021652E-027
   4.0200000000000000E-002    -8.1965334744149829E-027
   4.0500000000000001E-002     2.1686543162717919E-026
   4.0800000000000003E-002    -3.5446265776756931E-026
   4.1100000000000005E-002     1.8683591926447728E-026
   4.1399999999999999E-002     9.9029402563093925E-026
   4.1700000000000008E-002    -4.0348813188573468E-025
   4.2000000000000003E-002     8.5365370950989520E-025
   4.2299999999999997E-002    -9.6457166193941080E-025
   4.2600000000000006E-002    -4.8776023892700222E-025
   4.2900000000000001E-002     4.8349551226723386E-024
   4.3200000000000002E-002    -9.8396638716734607E-024
   4.3500000000000004E-002    -7.5077539596315881E-025
   4.3799999999999999E-002     8.2077343235931907E-023
   4.4100000000000000E-002    -3.9484364121447085E-022
   4.4400000000000002E-002     1.4256702108505720E-021
   4.4700000000000004E-002    -4.7420933735615451E-021
   4.4999999999999998E-002     1.5281527880544874E-020
   4.5300000000000000E-002    -4.6907312329947834E-020
   4.5600000000000002E-002     1.3102052368547660E-019
   4.5899999999999996E-002    -3.1046703976649603E-019
   4.6200000000000005E-002     5.2490718893901090E-019
   4.6500000000000000E-002    -5.5638424677232487E-020
   4.6799999999999994E-002    -4.3296998850109569E-018
   4.7100000000000003E-002     2.2871484226100917E-017
   4.7399999999999998E-002    -7.8858503389988583E-017
   4.7700000000000006E-002     1.9911859205572530E-016
   4.8000000000000001E-002    -3.1845802182431678E-016
   4.8300000000000010E-002    -7.6059085091763729E-017
   4.8600000000000004E-002     2.7350814208883347E-015
   4.8899999999999999E-002    -1.1173185997973068E-014
   4.9200000000000008E-002     2.6630844770683368E-014
   4.9500000000000002E-002    -2.7908863920547937E-014
   4.9800000000000011E-002    -7.5505587474583799E-014
   5.0100000000000006E-002     4.6650012418452629E-013
   5.0400000000000000E-002    -1.1590523226604060E-012
   5.0700000000000009E-002     9.4336719598101783E-013
   5.1000000000000004E-002     4.1987022693716212E-012
   5.1299999999999998E-002    -1.8688434215017370E-011
   5.1600000000000007E-002     2.9494193587529067E-011
   5.1900000000000002E-002     2.7445292527269989E-011
   5.2200000000000010E-002    -2.3801372773520498E-010
   5.2500000000000005E-002     4.2234745266858134E-010
   5.2800000000000000E-002     3.3544354460113506E-010
   5.3099999999999994E-002    -2.8909067127458553E-009
   5.3400000000000003E-002     3.6590343464883024E-009
   5.3699999999999998E-002     8.1885934372654387E-009
   5.4000000000000006E-002    -2.9264829755153996E-008
   5.4300000000000001E-002    -3.0093830277771956E-009
   5.4599999999999996E-002     1.3131190925149535E-007
   5.4900000000000004E-002    -8.5916754595256171E-008
   5.5199999999999999E-002    -5.2865983722775510E-007
   5.5499999999999994E-002     5.4054954279715953E-007
   5.5800000000000002E-002     3.7371988156055430E-006
   5.6099999999999997E-002     6.6573634563867506E-006
   5.6400000000000006E-002     7.8742283048384009E-006
   5.6700000000000000E-002     9.1755661979856041E-006
   5.6999999999999995E-002     1.2329690675124610E-005
   5.7300000000000004E-002     1.8245340615788520E-005
   5.7599999999999998E-002     2.8471489709376327E-005
   5.7900000000000007E-002     4.5047400130863140E-005
   5.8200000000000002E-002     7.0137221035627582E-005
   5.8499999999999996E-002     1.0456839725426611E-004
   5.8800000000000005E-002     1.4870027989057543E-004
   5.9100000000000000E-002     2.0667513554874936E-004
   5.9400000000000008E-002     2.8449536868221486E-004
   5.9700000000000003E-002     3.8639227009940329E-004
   6.0000000000000012E-002     5.1637771350175751E-004
   6.0300000000000006E-002     6.7729854839549514E-004
   6.0600000000000001E-002     8.7101311557418652E-004
   6.0900000000000010E-002     1.0983097210028059E-003
   6.1200000000000004E-002     1.3508125726858621E-003
   6.1500000000000013E-002     1.6131639313395508E-003
   6.1800000000000008E-002     1.8706287627163886E-003
   6.2100000000000002E-002     2.0992010649203219E-003
   6.2399999999999997E-002     2.2587934564645149E-003
   6.2700000000000006E-002     2.2995560832002127E-003
   6.3000000000000000E-002     2.1626263353387728E-003
   6.3300000000000009E-002     1.7807087082607814E-003
   6.3600000000000004E-002     1.0789311510610029E-003
   6.3899999999999998E-002    -2.1027372537778570E-005
   6.4199999999999993E-002    -1.5850754353551671E-003
   6.4500000000000002E-002    -3.6582058991943707E-003
   6.4800000000000010E-002    -6.2674510432796440E-003
   6.5100000000000005E-002    -9.4096709249870195E-003
   6.5400000000000000E-002    -1.3039037733924804E-002
   6.5700000000000008E-002    -1.7060262282711056E-002
   6.5999999999999989E-002    -2.1324490368475040E-002
   6.6299999999999998E-002    -2.5636186171684106E-002
   6.6600000000000006E-002    -2.9765890439962923E-002
   6.6900000000000001E-002    -3.3461894624123058E-002
   6.7199999999999996E-002    -3.6472704373825576E-002
   6.7500000000000004E-002    -3.8561251513056782E-002
   6.7800000000000013E-002    -3.9524273000826532E-002
   6.8099999999999994E-002    -3.9214180258212404E-002
   6.8400000000000002E-002    -3.7560338023122121E-002
   6.8700000000000011E-002    -3.4572916296008727E-002
   6.8999999999999992E-002    -3.0329535186584419E-002
   6.9300000000000000E-002    -2.4970667913044791E-002
   6.9600000000000009E-002    -1.8687066085694485E-002
   6.9900000000000004E-002    -1.1710683959278274E-002
   7.0199999999999999E-002    -4.2740830390675900E-003
   7.0500000000000007E-002     3.3874461424929256E-003
   7.0800000000000016E-002     1.1043168143997381E-002
   7.1099999999999997E-002     1.8475337129790947E-002
   7.1400000000000005E-002     2.5434681062149044E-002
   7.1700000000000000E-002     3.1630040494535189E-002
   7.1999999999999995E-002     3.6686656762679348E-002
   7.2300000000000003E-002     4.0140246904554630E-002
   7.2600000000000012E-002     4.1408838606879071E-002
   7.2900000000000006E-002     3.9808051351502935E-002
   7.3200000000000001E-002     3.4595185230900126E-002
   7.3499999999999996E-002     2.5026314750856645E-002
   7.3800000000000004E-002     1.0477910207877562E-002
   7.4099999999999999E-002    -9.4791118945407454E-003
   7.4400000000000008E-002    -3.4911084921899739E-002
   7.4700000000000003E-002    -6.5441705119687998E-002
   7.5000000000000011E-002   -0.10015644069159849     
   7.5299999999999992E-002   -0.13758009530134069     
   7.5600000000000001E-002   -0.17568969479125904     
   7.5900000000000009E-002   -0.21201325580570390     
   7.6200000000000004E-002   -0.24379795284422778     
   7.6499999999999999E-002   -0.26821120941677618     
   7.6800000000000007E-002   -0.28258254386600240     
   7.7099999999999988E-002   -0.28464623478305273     
   7.7399999999999997E-002   -0.27281259660745344     
   7.7700000000000005E-002   -0.24629924397066011     
   7.8000000000000014E-002   -0.20528372423020669     
   7.8299999999999995E-002   -0.15084047072261220     
   7.8600000000000003E-002    -8.5013587385206577E-002
   7.8900000000000012E-002    -1.0520408902519419E-002
   7.9199999999999993E-002     6.9370267937528554E-002
   7.9500000000000001E-002    0.15110164419247821     
   7.9800000000000010E-002    0.23109308649503732     
   8.0100000000000018E-002    0.30590652462475432     
   8.0399999999999999E-002    0.37249307683321020     
   8.0700000000000008E-002    0.42821519304279304     
   8.1000000000000003E-002    0.47100927109894186     
   8.1299999999999997E-002    0.49925057783236826     
   8.1600000000000006E-002    0.51187752467704106     
   8.1900000000000014E-002    0.50827680959553145     
   8.2199999999999995E-002    0.48831736186782820     
   8.2500000000000004E-002    0.45237787944800167     
   8.2799999999999999E-002    0.40134149442970868     
   8.3100000000000007E-002    0.33677133846440949     
   8.3400000000000002E-002    0.26097288924541268     
   8.3700000000000011E-002    0.17701749947270606     
   8.4000000000000005E-002     8.8794193280940667E-002
   8.4300000000000000E-002     9.0249569428781334E-004
   8.4599999999999995E-002    -8.1535397004890861E-002
   8.4900000000000003E-002   -0.15323006111469237     
   8.5199999999999998E-002   -0.20906225350810620     
   8.5500000000000007E-002   -0.24462797326429020     
   8.5800000000000001E-002   -0.25671475352563233     
   8.6100000000000010E-002   -0.24370866438080269     
   8.6399999999999991E-002   -0.20596551564953960     
   8.6699999999999999E-002   -0.14585338489430608     
   8.7000000000000008E-002    -6.7946406863060527E-002
   8.7300000000000003E-002     2.1486958287298730E-002
   8.7599999999999997E-002    0.11485575002563958     
   8.7900000000000006E-002    0.20379720968040776     
   8.8200000000000014E-002    0.28009529533659039     
   8.8499999999999995E-002    0.33628465208134495     
   8.8800000000000004E-002    0.36644317115705771     
   8.9100000000000013E-002    0.36671568383370745     
   8.9399999999999993E-002    0.33570046768218914     
   8.9700000000000002E-002    0.27456550550803138     
   9.0000000000000011E-002    0.18698247312308014     
   9.0299999999999991E-002     7.8646825146265142E-002
   9.0600000000000000E-002    -4.3182129351577753E-002
   9.0900000000000009E-002   -0.17031672407606671     
   9.1200000000000017E-002   -0.29443877344787017     
   9.1499999999999998E-002   -0.40770035023743817     
   9.1800000000000007E-002   -0.50336818619200230     
   9.2100000000000001E-002   -0.57626984998909991     
   9.2399999999999996E-002   -0.62284265299135333     
   9.2700000000000005E-002   -0.64151064842523620     
   9.3000000000000013E-002   -0.63227151175771079     
   9.3300000000000008E-002   -0.59666918200679664     
   9.3600000000000003E-002   -0.53737227822520839     
   9.3899999999999997E-002   -0.45786558581609987     
   9.4200000000000006E-002   -0.36221721093515635     
   9.4500000000000001E-002   -0.25460335283287477     
   9.4800000000000009E-002   -0.13932590198015524     
   9.5100000000000004E-002    -2.0585933229152680E-002
   9.5399999999999999E-002     9.7509765674523810E-002
   9.5699999999999993E-002    0.21114540790885331     
   9.6000000000000002E-002    0.31652547973669454     
   9.6300000000000011E-002    0.41019769506641662     
   9.6600000000000005E-002    0.48902963605194061     
   9.6900000000000000E-002    0.55015718028142191     
   9.7200000000000009E-002    0.59145807441524234     
   9.7499999999999989E-002    0.61141400923874734     
   9.7799999999999998E-002    0.60940426182149732     
   9.8100000000000007E-002    0.58585285941007526     
   9.8400000000000015E-002    0.54206156735839162     
   9.8699999999999996E-002    0.48041251496006349     
   9.9000000000000005E-002    0.40411836265615575     
   9.9300000000000013E-002    0.31688660873597801     
   9.9599999999999994E-002    0.22285922464357630     
   9.9900000000000003E-002    0.12622999318769262     
  0.10020000000000001          3.0879832437597614E-002
  0.10049999999999999         -5.9780568025780752E-002
  0.10080000000000000        -0.14296800653722824     
  0.10110000000000001        -0.21671392785939433     
  0.10140000000000000        -0.27967789062457149     
  0.10170000000000000        -0.33143939887805907     
  0.10200000000000001        -0.37200158192134547     
  0.10230000000000002        -0.40189304354615396     
  0.10260000000000000        -0.42198034592242095     
  0.10290000000000001        -0.43340283186518885     
  0.10320000000000000        -0.43754109396526680     
  0.10350000000000001        -0.43584573050985537     
  0.10380000000000000        -0.42999014185076428     
  0.10410000000000001        -0.42175942748287160     
  0.10440000000000001        -0.41314152140705129     
  0.10470000000000000        -0.40602118206572685     
  0.10500000000000000        -0.40238413801570277     
  0.10530000000000000        -0.40375251301007598     
  0.10560000000000000        -0.41127250421983635     
  0.10590000000000001        -0.42526490373860382     
  0.10620000000000000        -0.44505990431593023     
  0.10650000000000001        -0.46898273458723605     
  0.10679999999999999        -0.49411196234387911     
  0.10710000000000000        -0.51653248631173687     
  0.10740000000000001        -0.53149456147177276     
  0.10770000000000000        -0.53383416077406276     
  0.10800000000000000        -0.51856428294628831     
  0.10830000000000001        -0.48136952205395178     
  0.10859999999999999        -0.41902425375512126     
  0.10890000000000000        -0.33017584015414170     
  0.10920000000000001        -0.21552214744224915     
  0.10950000000000001         -7.7972113324911316E-002
  0.10979999999999999          7.7451669337170057E-002
  0.11009999999999999         0.24376029526356802     
  0.11040000000000001         0.41267294335956606     
  0.11070000000000001         0.57504749807101208     
  0.11100000000000000         0.72181940437914982     
  0.11130000000000000         0.84461420985634172     
  0.11160000000000002         0.93640339455180854     
  0.11190000000000001         0.99219047997628684     
  0.11220000000000001          1.0090756407034152     
  0.11250000000000000         0.98678088059274671     
  0.11280000000000000         0.92713093626366649     
  0.11309999999999999         0.83415472394774415     
  0.11340000000000001         0.71351563844838051     
  0.11369999999999998         0.57205700807612592     
  0.11400000000000000         0.41718158059444921     
  0.11430000000000000         0.25665417208395558     
  0.11460000000000002          9.7859671310112098E-002
  0.11489999999999999         -5.2481959947020956E-002
  0.11520000000000001        -0.18837258711597302     
  0.11550000000000001        -0.30497831808689213     
  0.11580000000000000        -0.39851052502126738     
  0.11609999999999999        -0.46630473110021975     
  0.11640000000000002        -0.50691790765315192     
  0.11670000000000001        -0.52001740095725824     
  0.11700000000000001        -0.50645472276994896     
  0.11730000000000000        -0.46829481627036945     
  0.11760000000000000        -0.40864576560802074     
  0.11789999999999999        -0.33171813224067237     
  0.11820000000000001        -0.24268458612201205     
  0.11850000000000001        -0.14742712232909755     
  0.11880000000000000         -5.2167564432761805E-002
  0.11910000000000000          3.6757361244595707E-002
  0.11940000000000002         0.11379381281770967     
  0.11970000000000001         0.17407498156633161     
  0.12000000000000001         0.21445693835786406     
  0.12030000000000000         0.23368985561547120     
  0.12060000000000000         0.23257271871791985     
  0.12089999999999999         0.21450284317384516     
  0.12119999999999999         0.18443717488845196     
  0.12150000000000001         0.14931394765357081     
  0.12180000000000001         0.11681313799321943     
  0.12210000000000000          9.4786488040136563E-002
  0.12239999999999999          9.0323702019049851E-002
  0.12270000000000002         0.10883165126800674     
  0.12300000000000001         0.15322712628292981     
  0.12330000000000001         0.22347313494250118     
  0.12360000000000000         0.31641425194511458     
  0.12390000000000000         0.42548931742184076     
  0.12419999999999999         0.54196501407202957     
  0.12450000000000001         0.65479385969099801     
  0.12480000000000001         0.75232332520850320     
  0.12509999999999999         0.82312332614558270     
  0.12540000000000001         0.85696570581665099     
  0.12570000000000003         0.84623197756032154     
  0.12600000000000000         0.78631357012014547     
  0.12630000000000002         0.67632708323203183     
  0.12659999999999999         0.51912853324502484     
  0.12690000000000001         0.32129514374613749     
  0.12719999999999998          9.2508810123331328E-002
  0.12750000000000000        -0.15517493653137629     
  0.12780000000000002        -0.40807803734809928     
  0.12809999999999999        -0.65172411876224645     
  0.12840000000000001        -0.87230296347867331     
  0.12869999999999998         -1.0568779797556886     
  0.12900000000000000         -1.1947701015246299     
  0.12930000000000003         -1.2776885017741659     
  0.12959999999999999         -1.3005258971111453     
  0.12990000000000002         -1.2617077714459779     
  0.13019999999999998         -1.1632040584109593     
  0.13050000000000000         -1.0104602385069863     
  0.13080000000000003        -0.81256643740147771     
  0.13109999999999999        -0.58169958605180605     
  0.13140000000000002        -0.33228031311966927     
  0.13169999999999998         -8.0649626745914124E-002
  0.13200000000000001         0.15644351562318037     
  0.13229999999999997         0.36244275427693323     
  0.13260000000000000         0.52257349112211571     
  0.13290000000000002         0.62513561755611313     
  0.13319999999999999         0.66223288922923851     
  0.13350000000000001         0.63091433991758927     
  0.13380000000000003         0.53361243534191150     
  0.13410000000000000         0.37827292182860167     
  0.13440000000000002         0.17782783194105026     
  0.13469999999999999         -5.0493359115275985E-002
  0.13500000000000001        -0.28663031310462689     
  0.13529999999999998        -0.50919921530139489     
  0.13560000000000000        -0.69691963549908542     
  0.13590000000000002        -0.83127166522332097     
  0.13619999999999999        -0.89701052265091674     
  0.13650000000000001        -0.88438804682034999     
  0.13680000000000003        -0.78939964012582264     
  0.13710000000000000        -0.61441285879882990     
  0.13740000000000002        -0.36810902999570622     
  0.13769999999999999         -6.4374471568505953E-002
  0.13800000000000001         0.27839093705633405     
  0.13829999999999998         0.63907515586068497     
  0.13860000000000000         0.99485117046261751     
  0.13890000000000002          1.3235633380271921     
  0.13919999999999999          1.6046030544718020     
  0.13950000000000001          1.8203482661368768     
  0.13979999999999998          1.9574766194404596     
  0.14010000000000000          2.0068914921055341     
  0.14040000000000002          1.9649056215349774     
  0.14069999999999999          1.8325080874056714     
  0.14100000000000001          1.6154555065229697     
  0.14130000000000004          1.3238043746980959     
  0.14160000000000000         0.97081046726705100     
  0.14189999999999997         0.57295065387051858     
  0.14219999999999999         0.14814171856736982     
  0.14250000000000002        -0.28434992699752404     
  0.14279999999999998        -0.70537538161590307     
  0.14310000000000000         -1.0965466570816413     
  0.14339999999999997         -1.4411418492044472     
  0.14369999999999999         -1.7250422271297925     
  0.14400000000000002         -1.9374290711998865     
  0.14429999999999998         -2.0713238697142993     
  0.14460000000000001         -2.1238598779594593     
  0.14490000000000003         -2.0967461996016565     
  0.14520000000000000         -1.9957092914574217     
  0.14550000000000002         -1.8304654258380049     
  0.14579999999999999         -1.6135039216504869     
  0.14610000000000001         -1.3595734713319942     
  0.14640000000000003         -1.0844126812564188     
  0.14670000000000000        -0.80376123058994964     
  0.14699999999999996        -0.53198866672767120     
  0.14729999999999999        -0.28175233382952286     
  0.14760000000000001         -6.2639855102254074E-002
  0.14789999999999998         0.11864437941474415     
  0.14820000000000000         0.25845371279431323     