  -1.4999999999999999E-002     0.0000000000000000     
  -1.4700000000000000E-002     0.0000000000000000     
  -1.4400000000000000E-002     0.0000000000000000     
  -1.4100000000000000E-002     0.0000000000000000     
  -1.3800000000000000E-002     0.0000000000000000     
  -1.3500000000000000E-002     0.0000000000000000     
  -1.3200000000000000E-002     0.0000000000000000     
  -1.2899999999999998E-002     0.0000000000000000     
  -1.2600000000000000E-002     0.0000000000000000     
  -1.2299999999999998E-002     0.0000000000000000     
  -1.2000000000000000E-002     0.0000000000000000     
  -1.1699999999999999E-002     0.0000000000000000     
  -1.1399999999999999E-002     0.0000000000000000     
  -1.1099999999999999E-002     0.0000000000000000     
  -1.0799999999999999E-002     0.0000000000000000     
  -1.0499999999999999E-002     0.0000000000000000     
  -1.0199999999999999E-002     0.0000000000000000     
  -9.8999999999999991E-003     0.0000000000000000     
  -9.5999999999999992E-003     0.0000000000000000     
  -9.2999999999999992E-003     0.0000000000000000     
  -8.9999999999999993E-003     0.0000000000000000     
  -8.6999999999999994E-003     0.0000000000000000     
  -8.3999999999999995E-003     0.0000000000000000     
  -8.0999999999999996E-003     0.0000000000000000     
  -7.7999999999999988E-003     0.0000000000000000     
  -7.4999999999999997E-003     0.0000000000000000     
  -7.1999999999999998E-003     0.0000000000000000     
  -6.8999999999999981E-003     0.0000000000000000     
  -6.5999999999999982E-003     0.0000000000000000     
  -6.3000000000000000E-003     0.0000000000000000     
  -6.0000000000000001E-003     0.0000000000000000     
  -5.6999999999999985E-003     0.0000000000000000     
  -5.3999999999999986E-003     0.0000000000000000     
  -5.1000000000000004E-003     0.0000000000000000     
  -4.7999999999999987E-003     0.0000000000000000     
  -4.5000000000000005E-003     0.0000000000000000     
  -4.1999999999999989E-003     0.0000000000000000     
  -3.8999999999999990E-003     0.0000000000000000     
  -3.5999999999999990E-003     0.0000000000000000     
  -3.2999999999999991E-003     0.0000000000000000     
  -2.9999999999999992E-003     0.0000000000000000     
  -2.6999999999999993E-003     0.0000000000000000     
  -2.3999999999999994E-003     0.0000000000000000     
  -2.0999999999999977E-003     0.0000000000000000     
  -1.7999999999999995E-003     0.0000000000000000     
  -1.4999999999999979E-003     0.0000000000000000     
  -1.1999999999999997E-003     0.0000000000000000     
  -8.9999999999999976E-004     0.0000000000000000     
  -5.9999999999999810E-004     0.0000000000000000     
  -2.9999999999999992E-004     0.0000000000000000     
   0.0000000000000000          0.0000000000000000     
   3.0000000000000165E-004     0.0000000000000000     
   5.9999999999999984E-004     0.0000000000000000     
   9.0000000000000149E-004     0.0000000000000000     
   1.2000000000000031E-003     0.0000000000000000     
   1.5000000000000013E-003     0.0000000000000000     
   1.8000000000000030E-003     0.0000000000000000     
   2.1000000000000012E-003     0.0000000000000000     
   2.3999999999999994E-003     0.0000000000000000     
   2.7000000000000010E-003     0.0000000000000000     
   2.9999999999999992E-003     0.0000000000000000     
   3.3000000000000008E-003     0.0000000000000000     
   3.6000000000000025E-003     0.0000000000000000     
   3.9000000000000007E-003     0.0000000000000000     
   4.2000000000000023E-003     0.0000000000000000     
   4.5000000000000005E-003     0.0000000000000000     
   4.7999999999999987E-003     0.0000000000000000     
   5.1000000000000004E-003     0.0000000000000000     
   5.4000000000000020E-003     0.0000000000000000     
   5.7000000000000037E-003     0.0000000000000000     
   5.9999999999999984E-003     0.0000000000000000     
   6.3000000000000000E-003     0.0000000000000000     
   6.6000000000000017E-003     0.0000000000000000     
   6.9000000000000034E-003     0.0000000000000000     
   7.2000000000000015E-003     0.0000000000000000     
   7.5000000000000032E-003     0.0000000000000000     
   7.8000000000000014E-003     0.0000000000000000     
   8.0999999999999996E-003     0.0000000000000000     
   8.4000000000000012E-003     0.0000000000000000     
   8.7000000000000029E-003     0.0000000000000000     
   9.0000000000000011E-003     0.0000000000000000     
   9.2999999999999992E-003     0.0000000000000000     
   9.6000000000000009E-003     0.0000000000000000     
   9.8999999999999991E-003     0.0000000000000000     
   1.0200000000000001E-002     0.0000000000000000     
   1.0500000000000002E-002     0.0000000000000000     
   1.0800000000000004E-002     0.0000000000000000     
   1.1099999999999999E-002     0.0000000000000000     
   1.1400000000000000E-002     0.0000000000000000     
   1.1700000000000002E-002     0.0000000000000000     
   1.2000000000000004E-002     0.0000000000000000     
   1.2300000000000002E-002     0.0000000000000000     
   1.2600000000000000E-002     0.0000000000000000     
   1.2900000000000002E-002     0.0000000000000000     
   1.3200000000000000E-002     0.0000000000000000     
   1.3500000000000002E-002     0.0000000000000000     
   1.3800000000000003E-002     0.0000000000000000     
   1.4100000000000001E-002     0.0000000000000000     
   1.4400000000000000E-002     0.0000000000000000     
   1.4700000000000001E-002     0.0000000000000000     
   1.4999999999999999E-002     0.0000000000000000     
   1.5300000000000001E-002     0.0000000000000000     
   1.5600000000000003E-002     0.0000000000000000     
   1.5899999999999997E-002     0.0000000000000000     
   1.6199999999999999E-002     0.0000000000000000     
   1.6500000000000001E-002     0.0000000000000000     
   1.6800000000000002E-002     0.0000000000000000     
   1.7100000000000004E-002     0.0000000000000000     
   1.7400000000000006E-002     0.0000000000000000     
   1.7700000000000000E-002     0.0000000000000000     
   1.8000000000000002E-002     0.0000000000000000     
   1.8300000000000004E-002     0.0000000000000000     
   1.8600000000000005E-002     0.0000000000000000     
   1.8900000000000000E-002     0.0000000000000000     
   1.9200000000000002E-002     0.0000000000000000     
   1.9500000000000003E-002     0.0000000000000000     
   1.9799999999999998E-002     0.0000000000000000     
   2.0100000000000000E-002     0.0000000000000000     
   2.0400000000000001E-002     0.0000000000000000     
   2.0700000000000003E-002     5.0657229399012094E-044
   2.0999999999999998E-002     1.2380827092033220E-042
   2.1299999999999999E-002    -2.1424937248140036E-037
   2.1600000000000001E-002     3.3359033972378408E-037
   2.1900000000000003E-002    -3.0790550373322849E-037
   2.2200000000000004E-002    -2.0281547799833376E-036
   2.2500000000000006E-002     5.8014549270023031E-036
   2.2800000000000001E-002    -2.4654818594437741E-036
   2.3100000000000002E-002    -4.5898831444406609E-036
   2.3400000000000004E-002     3.6492356858543943E-035
   2.3699999999999999E-002    -3.6188527907055702E-034
   2.4000000000000000E-002     7.6578257306086005E-034
   2.4300000000000002E-002    -1.8747449177439467E-033
   2.4599999999999997E-002     3.7102701592378625E-033
   2.4900000000000005E-002    -1.2888737816976375E-032
   2.5200000000000000E-002     4.9122503881039556E-032
   2.5499999999999995E-002    -1.7703119517701256E-031
   2.5800000000000003E-002     5.7672708237022328E-031
   2.6099999999999998E-002    -1.6990985395549283E-030
   2.6400000000000007E-002     4.5176482035572510E-030
   2.6700000000000002E-002    -1.0717950321543537E-029
   2.6999999999999996E-002     2.1902477756504735E-029
   2.7300000000000005E-002    -3.4555256820890046E-029
   2.7600000000000000E-002     2.2170509217863853E-029
   2.7900000000000008E-002     1.1307793626467254E-028
   2.8200000000000003E-002    -6.4276201677238318E-028
   2.8499999999999998E-002     2.1640507293632788E-027
   2.8800000000000006E-002    -5.6454500309184802E-027
   2.9100000000000001E-002     1.1767879588219025E-026
   2.9400000000000003E-002    -1.8071718205154596E-026
   2.9700000000000004E-002     1.1438218046293885E-026
   3.0000000000000006E-002     4.5463953670636229E-026
   3.0300000000000001E-002    -2.2598392074097510E-025
   3.0600000000000002E-002     6.1495589393144612E-025
   3.0900000000000004E-002    -1.1666903919640373E-024
   3.1199999999999999E-002     1.3411103666735753E-024
   3.1500000000000007E-002     4.3041070942924768E-025
   3.1800000000000002E-002    -6.7678184450485665E-024
   3.2099999999999997E-002     1.8905673291652067E-023
   3.2400000000000005E-002    -2.8952533087679168E-023
   3.2700000000000000E-002     7.6001207369385180E-024
   3.3000000000000002E-002     9.5605545485576716E-023
   3.3300000000000003E-002    -2.8714307338417814E-022
   3.3599999999999998E-002     3.1442972755094132E-022
   3.3900000000000000E-002     7.1498834526408291E-022
   3.4200000000000001E-002    -4.4868806349456687E-021
   3.4500000000000003E-002     1.1913730887007028E-020
   3.4799999999999998E-002    -1.6482841446832693E-020
   3.5099999999999999E-002    -1.1803691695784923E-020
   3.5400000000000001E-002     1.4863079943537175E-019
   3.5699999999999996E-002    -5.0329938979445098E-019
   3.6000000000000004E-002     1.0314355075125319E-018
   3.6299999999999999E-002    -8.8283785041500894E-019
   3.6600000000000008E-002    -2.8942154774869896E-018
   3.6900000000000002E-002     1.6040230520516993E-017
   3.7199999999999997E-002    -4.1455117654862021E-017
   3.7500000000000006E-002     5.5239045172748063E-017
   3.7800000000000000E-002     4.1015935943075204E-017
   3.8100000000000009E-002    -4.3858446596087183E-016
   3.8400000000000004E-002     1.2161980374967013E-015
   3.8699999999999998E-002    -1.6209735794242644E-015
   3.9000000000000007E-002    -9.8933835141536745E-016
   3.9300000000000002E-002     1.0650936316681274E-014
   3.9600000000000003E-002    -2.6613975854146037E-014
   3.9900000000000005E-002     2.9316168989278153E-014
   4.0200000000000000E-002     3.0302564365628687E-014
   4.0500000000000001E-002    -2.0541116678096294E-013
   4.0800000000000003E-002     4.5603128402012090E-013
   4.1100000000000005E-002    -4.8151375751647318E-013
   4.1399999999999999E-002    -4.7574054652715951E-013
   4.1700000000000008E-002     3.6986477223886487E-012
   4.2000000000000003E-002    -9.7915426366397257E-012
   4.2299999999999997E-002     1.2127000773324653E-011
   4.2600000000000006E-002     1.8686242124785909E-011
   4.2900000000000001E-002    -1.3296522935410755E-010
   4.3200000000000002E-002     2.6816014711712965E-010
   4.3500000000000004E-002     1.2136923409359282E-010
   4.3799999999999999E-002    -1.9639675626194735E-009
   4.4100000000000000E-002     3.5039278540834379E-009
   4.4400000000000002E-002     5.2541006532425969E-009
   4.4700000000000004E-002    -3.0396812527516883E-008
   4.4999999999999998E-002     5.0749314394282178E-009
   4.5300000000000000E-002     1.5524465927138437E-007
   4.5600000000000002E-002    -1.7041226323693026E-007
   4.5899999999999996E-002    -5.9280588537025253E-007
   4.6200000000000005E-002     3.6146742063719662E-006
   4.6500000000000000E-002     1.8924535631611317E-005
   4.6799999999999994E-002     4.4146765352836616E-005
   4.7100000000000003E-002     6.9079154560336203E-005
   4.7399999999999998E-002     8.7798205340946383E-005
   4.7700000000000006E-002     1.1075676058957955E-004
   4.8000000000000001E-002     1.6105837644933828E-004
   4.8300000000000010E-002     2.5798269967700001E-004
   4.8600000000000004E-002     4.0550523432584704E-004
   4.8899999999999999E-002     6.0496584789155108E-004
   4.9200000000000008E-002     8.7772862857977030E-004
   4.9500000000000002E-002     1.2609810346452331E-003
   4.9800000000000011E-002     1.7883680599145206E-003
   5.0100000000000006E-002     2.4951434265072401E-003
   5.0400000000000000E-002     3.4283949967193099E-003
   5.0700000000000009E-002     4.6314346901603111E-003
   5.1000000000000004E-002     6.1329644617179688E-003
   5.1299999999999998E-002     7.9546823066948616E-003
   5.1600000000000007E-002     1.0101305508315025E-002
   5.1900000000000002E-002     1.2533879156689891E-002
   5.2200000000000010E-002     1.5156616794504991E-002
   5.2500000000000005E-002     1.7806250696390115E-002
   5.2800000000000000E-002     2.0230733594356703E-002
   5.3099999999999994E-002     2.2068167325989173E-002
   5.3400000000000003E-002     2.2831719779685709E-002
   5.3699999999999998E-002     2.1906403249858639E-002
   5.4000000000000006E-002     1.8578191507392833E-002
   5.4300000000000001E-002     1.2082099178322453E-002
   5.4599999999999996E-002     1.6328046179905562E-003
   5.4900000000000004E-002    -1.3510181656531790E-002
   5.5199999999999999E-002    -3.3911487892588514E-002
   5.5499999999999994E-002    -5.9820018355263488E-002
   5.5800000000000002E-002    -9.1045589256284698E-002
   5.6099999999999997E-002   -0.12681765836224845     
   5.6400000000000006E-002   -0.16565018682411498     
   5.6700000000000000E-002   -0.20527304977544233     
   5.6999999999999995E-002   -0.24265067857122269     
   5.7300000000000004E-002   -0.27403625356532862     
   5.7599999999999998E-002   -0.29509416918146719     
   5.7900000000000007E-002   -0.30117312375638333     
   5.8200000000000002E-002   -0.28775490799243342     
   5.8499999999999996E-002   -0.25089307122753812     
   5.8800000000000005E-002   -0.18768606466954768     
   5.9100000000000000E-002    -9.6754519783889839E-002
   5.9400000000000008E-002     2.1213939428895837E-002
   5.9700000000000003E-002    0.16318243726059303     
   6.0000000000000012E-002    0.32362279503638375     
   6.0300000000000006E-002    0.49453368314957602     
   6.0600000000000001E-002    0.66581017081600347     
   6.0900000000000010E-002    0.82576710080676541     
   6.1200000000000004E-002    0.96198511341867876     
   6.1500000000000013E-002     1.0622334694053710     
   6.1800000000000008E-002     1.1155787221474041     
   6.2100000000000002E-002     1.1134520044948470     
   6.2399999999999997E-002     1.0505034427742954     
   6.2700000000000006E-002    0.92542569640310401     
   6.3000000000000000E-002    0.74136954320646797     
   6.3300000000000009E-002    0.50592717055936798     
   6.3600000000000004E-002    0.23081085633481968     
   6.3899999999999998E-002    -6.8826526894598783E-002
   6.4199999999999993E-002   -0.37545182489007639     
   6.4500000000000002E-002   -0.67037869437821240     
   6.4800000000000010E-002   -0.93528011441310266     
   6.5100000000000005E-002    -1.1534866389516893     
   6.5400000000000000E-002    -1.3112054101206407     
   6.5700000000000008E-002    -1.3986929484166679     
   6.5999999999999989E-002    -1.4108951559763403     
   6.6299999999999998E-002    -1.3477749791370313     
   6.6600000000000006E-002    -1.2142975706248724     
   6.6900000000000001E-002    -1.0199643337073254     
   6.7199999999999996E-002   -0.77815500955775962     
   6.7500000000000004E-002   -0.50503001869050634     
   6.7800000000000013E-002   -0.21840406898241316     
   6.8099999999999994E-002     6.3422619449140877E-002
   6.8400000000000002E-002    0.32295716160388266     
   6.8700000000000011E-002    0.54450160642165069     
   6.8999999999999992E-002    0.71516776027302376     
   6.9300000000000000E-002    0.82545822529517388     
   6.9600000000000009E-002    0.86976054507888756     
   6.9900000000000004E-002    0.84663825707436335     
   7.0199999999999999E-002    0.75861020376679700     
   7.0500000000000007E-002    0.61192896985575385     
   7.0800000000000016E-002    0.41624650815504677     
   7.1099999999999997E-002    0.18380512589644851     
   7.1400000000000005E-002    -7.1175412365599558E-002
   7.1700000000000000E-002   -0.33337442339248374     
   7.1999999999999995E-002   -0.58723324598018345     
   7.2300000000000003E-002   -0.81770945615433377     
   7.2600000000000012E-002    -1.0113171512548254     
   7.2900000000000006E-002    -1.1567597351089685     
   7.3200000000000001E-002    -1.2455780442200879     
   7.3499999999999996E-002    -1.2728227864029664     
   7.3800000000000004E-002    -1.2371113574411166     
   7.4099999999999999E-002    -1.1408608939874849     
   7.4400000000000008E-002   -0.99005902310681049     
   7.4700000000000003E-002   -0.79379219794280265     
   7.5000000000000011E-002   -0.56367315096203763     
   7.5299999999999992E-002   -0.31253676124631691     
   7.5600000000000001E-002    -5.3944987163309199E-002
   7.5900000000000009E-002    0.19914254740553017     
   7.6200000000000004E-002    0.43568771342725898     
   7.6499999999999999E-002    0.64686812403990190     
   7.6800000000000007E-002    0.82699033853363346     
   7.7099999999999988E-002    0.97375469241507373     
   7.7399999999999997E-002     1.0877733998204224     
   7.7700000000000005E-002     1.1725428886097418     
   7.8000000000000014E-002     1.2331295619002003     
   7.8299999999999995E-002     1.2752845697695050     
   7.8600000000000003E-002     1.3045349849983858     
   7.8900000000000012E-002     1.3247239854824020     
   7.9199999999999993E-002     1.3376494785622706     
   7.9500000000000001E-002     1.3422755906253230     
   7.9800000000000010E-002     1.3347658187515630     
   8.0100000000000018E-002     1.3091997723523199     
   8.0399999999999999E-002     1.2579576012084754     
   8.0700000000000008E-002     1.1734182429276134     
   8.1000000000000003E-002     1.0488777768698536     
   8.1299999999999997E-002    0.87985173185716670     
   8.1600000000000006E-002    0.66573507329253601     
   8.1900000000000014E-002    0.40982874332912089     
   8.2199999999999995E-002    0.11998498421560383     
   8.2500000000000004E-002   -0.19170234063132433     
   8.2799999999999999E-002   -0.50991233438916206     
   8.3100000000000007E-002   -0.81707227533468274     
   8.3400000000000002E-002    -1.0953086252708713     
   8.3700000000000011E-002    -1.3278376422615117     
   8.4000000000000005E-002    -1.5007983119665174     
   8.4300000000000000E-002    -1.6043275958391123     
   8.4599999999999995E-002    -1.6336467414587204     
   8.4900000000000003E-002    -1.5895503522715650     
   8.5199999999999998E-002    -1.4777613485750680     
   8.5500000000000007E-002    -1.3087558272282933     
   8.5800000000000001E-002    -1.0960864996325321     
   8.6100000000000010E-002   -0.85524219497132781     
   8.6399999999999991E-002   -0.60226375646477281     
   8.6699999999999999E-002   -0.35176024683460722     
   8.7000000000000008E-002   -0.11628432719832046     
   8.7300000000000003E-002     9.4985838543667267E-002
   8.7599999999999997E-002    0.27642911384727326     
   8.7900000000000006E-002    0.42584166385736311     
   8.8200000000000014E-002    0.54447941526365407     
   8.8499999999999995E-002    0.63562462478937365     
   8.8800000000000004E-002    0.70405386705106410     
   8.9100000000000013E-002    0.75506108867521005     
   8.9399999999999993E-002    0.79304828060192423     
   8.9700000000000002E-002    0.82137964028659805     
   9.0000000000000011E-002    0.84114351686909017     
   9.0299999999999991E-002    0.85147544109857387     
   9.0600000000000000E-002    0.84963847053736585     
   9.0900000000000009E-002    0.83109588786077826     
   9.1200000000000017E-002    0.79072785463070616     
   9.1499999999999998E-002    0.72315473408383035     
   9.1800000000000007E-002    0.62381398304488345     
   9.2100000000000001E-002    0.48985532750374661     
   9.2399999999999996E-002    0.32040641424756594     
   9.2700000000000005E-002    0.11757838111193591     
   9.3000000000000013E-002   -0.11395176513338856     
   9.3300000000000008E-002   -0.36679703245980910     
   9.3600000000000003E-002   -0.63124847794785899     
   9.3899999999999997E-002   -0.89623620623209421     
   9.4200000000000006E-002    -1.1496416522874831     
   9.4500000000000001E-002    -1.3796996868956302     
   9.4800000000000009E-002    -1.5756254498685585     
   9.5100000000000004E-002    -1.7281364650076210     
   9.5399999999999999E-002    -1.8307305874598279     
   9.5699999999999993E-002    -1.8792778864756752     
   9.6000000000000002E-002    -1.8725458979582994     
   9.6300000000000011E-002    -1.8120735753609347     
   9.6600000000000005E-002    -1.7016497443181360     
   9.6900000000000000E-002    -1.5470448057078725     
   9.7200000000000009E-002    -1.3550641600647562     
   9.7499999999999989E-002    -1.1332912768378824     
   9.7799999999999998E-002   -0.88956324690021260     
   9.8100000000000007E-002   -0.63084500222117923     
   9.8400000000000015E-002   -0.36396918998704036     
   9.8699999999999996E-002    -9.4567233282758068E-002
   9.9000000000000005E-002    0.17281645641738808     
   9.9300000000000013E-002    0.43400845127534182     
   9.9599999999999994E-002    0.68609537783080499     
   9.9900000000000003E-002    0.92624007705851930     
  0.10020000000000001          1.1520611032047667     
  0.10049999999999999          1.3614471887986470     
  0.10080000000000000          1.5515411231219574     
  0.10110000000000001          1.7201789486482293     
  0.10140000000000000          1.8645001693742054     
  0.10170000000000000          1.9813390030777462     
  0.10200000000000001          2.0678261255696171     
  0.10230000000000002          2.1208838978671873     
  0.10260000000000000          2.1380270974657316     
  0.10290000000000001          2.1172417344765568     
  0.10320000000000000          2.0570849322347358     
  0.10350000000000001          1.9579108359669175     
  0.10380000000000000          1.8210250855123706     
  0.10410000000000001          1.6492486565342486     
  0.10440000000000001          1.4473934278378779     
  0.10470000000000000          1.2215658603597666     
  0.10500000000000000         0.97943592547332958     
  0.10530000000000000         0.72948248893338929     
  0.10560000000000000         0.48107037840443045     
  0.10590000000000001         0.24344365390001493     
  0.10620000000000000          2.4774500124673277E-002
  0.10650000000000001        -0.16742811016959522     
  0.10679999999999999        -0.32777161167568758     
  0.10710000000000000        -0.45332639894863114     
  0.10740000000000001        -0.54332061373724305     
  0.10770000000000000        -0.59982910723897120     
  0.10800000000000000        -0.62699038501658155     
  0.10830000000000001        -0.63108464237050188     
  0.10859999999999999        -0.62003151902931508     
  0.10890000000000000        -0.60184291330964590     
  0.10920000000000001        -0.58540514708571323     
  0.10950000000000001        -0.57859158175774805     
  0.10979999999999999        -0.58766377822700466     
  0.11009999999999999        -0.61826197942056882     
  0.11040000000000001        -0.67325943479612382     
  0.11070000000000001        -0.75349514232838000     
  0.11100000000000000        -0.85855955763511005     
  0.11130000000000000        -0.98495589641877390     
  0.11160000000000002         -1.1284116547396352     
  0.11190000000000001         -1.2830326471747431     
  0.11220000000000001         -1.4409881083157536     
  0.11250000000000000         -1.5945113568476139     
  0.11280000000000000         -1.7344527824627347     
  0.11309999999999999         -1.8513550251528770     
  0.11340000000000001         -1.9362250684718378     
  0.11369999999999998         -1.9797052534149318     
  0.11400000000000000         -1.9738242398912931     
  0.11430000000000000         -1.9123831536673164     
  0.11460000000000002         -1.7907361978072984     
  0.11489999999999999         -1.6076940927675101     
  0.11520000000000001         -1.3653173301778827     
  0.11550000000000001         -1.0691006093885420     
  0.11580000000000000        -0.72878161925635110     
  0.11609999999999999        -0.35734292251522881     
  0.11640000000000002          2.9309047436652885E-002
  0.11670000000000001         0.41299641852011570     
  0.11700000000000001         0.77534490512717102     
  0.11730000000000000          1.0982951227670734     
  0.11760000000000000          1.3657052958333815     
  0.11789999999999999          1.5652311572782642     
  0.11820000000000001          1.6881582576524823     
  0.11850000000000001          1.7310393697400803     
  0.11880000000000000          1.6956600933532253     
  0.11910000000000000          1.5879839930426529     
  0.11940000000000002          1.4189448922228416     
  0.11970000000000001          1.2020955990337741     
  0.12000000000000001         0.95321484327128969     
  0.12030000000000000         0.68951380050022437     
  0.12060000000000000         0.42735536546511488     
  0.12089999999999999         0.18250113174128024     
  0.12119999999999999         -3.1304344401665948E-002
  0.12150000000000001        -0.20283755159808375     
  0.12180000000000001        -0.32287877972911394     
  0.12210000000000000        -0.38560848207606790     
  0.12239999999999999        -0.38756813352374381     
  0.12270000000000002        -0.32763716000945509     
  0.12300000000000001        -0.20784954981254095     
  0.12330000000000001         -3.2221942516427418E-002
  0.12360000000000000         0.19246087386855676     
  0.12390000000000000         0.45700175926936648     
  0.12419999999999999         0.75010281335192330     
  0.12450000000000001          1.0575395877487392     
  0.12480000000000001          1.3635167834342456     
  0.12509999999999999          1.6507371625544205     
  0.12540000000000001          1.9005932803231955     
  0.12570000000000003          2.0948802485350795     
  0.12600000000000000          2.2162813265443138     
  0.12630000000000002          2.2497269578937305     
  0.12659999999999999          2.1837454402817134     
  0.12690000000000001          2.0113398717030337     
  0.12719999999999998          1.7312072538317946     
  0.12750000000000000          1.3483057816583985     
  0.12780000000000002         0.87386555770606678     
  0.12809999999999999         0.32563756652250059     
  0.12840000000000001        -0.27316699868998240     
  0.12869999999999998        -0.89521347614388869     
  0.12900000000000000         -1.5102384193979064     
  0.12930000000000003         -2.0873941684925383     
  0.12959999999999999         -2.5972492399572755     
  0.12990000000000002         -3.0137045505302980     
  0.13019999999999998         -3.3161938861167464     
  0.13050000000000000         -3.4907842070795119     
  0.13080000000000003         -3.5315495648792781     
  0.13109999999999999         -3.4405226772337616     
  0.13140000000000002         -3.2278701966030674     
  0.13169999999999998         -2.9106890222530035     
  0.13200000000000001         -2.5113307936067475     
  0.13229999999999997         -2.0560615809539438     
  0.13260000000000000         -1.5726904865701168     
  0.13290000000000002         -1.0886619139681699     
  0.13319999999999999        -0.62858246136413398     
  0.13350000000000001        -0.21337863788215961     
  0.13380000000000003         0.14145651474454407     
  0.13410000000000000         0.42689930648656449     
  0.13440000000000002         0.63936144511372894     
  0.13469999999999999         0.78202606811761011     
  0.13500000000000001         0.86313667596418620     
  0.13529999999999998         0.89508963882181702     
  0.13560000000000000         0.89396913042251580     
  0.13590000000000002         0.87698953782705025     
  0.13619999999999999         0.86229255438954344     
  0.13650000000000001         0.86720829594311910     
  0.13680000000000003         0.90635749111240171     
  0.13710000000000000         0.99196552072880206     
  0.13740000000000002          1.1312804963137659     
  0.13769999999999999          1.3267149076472577     
  0.13800000000000001          1.5755318914510967     
  0.13829999999999998          1.8683068075246507     
  0.13860000000000000          2.1907549015841061     
  0.13890000000000002          2.5226083225355032     
  0.13919999999999999          2.8390861650246149     
  0.13950000000000001          3.1129613406123395     
  0.13979999999999998          3.3149358171088461     
  0.14010000000000000          3.4167636201467761     
  0.14040000000000002          3.3935211765892346     
  0.14069999999999999          3.2258658675182232     
  0.14100000000000001          2.9021741250922086     
  0.14130000000000004          2.4204497537033891     
  0.14160000000000000          1.7900232036742048     
  0.14189999999999997          1.0311353058912249     
  0.14219999999999999         0.17446818350526633     
  0.14250000000000002        -0.73965368632426576     
  0.14279999999999998         -1.6651869107786259     
  0.14310000000000000         -2.5522928638541869     
  0.14339999999999997         -3.3521018969851428     
  0.14369999999999999         -4.0201463826006885     
  0.14400000000000002         -4.5193652680449734     
  0.14429999999999998         -4.8243180794959839     
  0.14460000000000001         -4.9219268091997579     
  0.14490000000000003         -4.8129390725003427     
  0.14520000000000000         -4.5115184902123682     
  0.14550000000000002         -4.0432779981006224     
  0.14579999999999999         -3.4435625630492108     
  0.14610000000000001         -2.7529705871378565     
  0.14640000000000003         -2.0149166273510568     
  0.14670000000000000         -1.2715980718217761     
  0.14699999999999996        -0.56042409916178171     
  0.14729999999999999          8.7759463975054547E-002
  0.14760000000000001         0.65103124747139074     
  0.14789999999999998          1.1165534552204264     
  0.14820000000000000          1.4804402926708049     