  -1.4999999999999999E-002     0.0000000000000000     
  -1.4700000000000000E-002     0.0000000000000000     
  -1.4400000000000000E-002     0.0000000000000000     
  -1.4100000000000000E-002     0.0000000000000000     
  -1.3800000000000000E-002     0.0000000000000000     
  -1.3500000000000000E-002     0.0000000000000000     
  -1.3200000000000000E-002     0.0000000000000000     
  -1.2899999999999998E-002     0.0000000000000000     
  -1.2600000000000000E-002     0.0000000000000000     
  -1.2299999999999998E-002     0.0000000000000000     
  -1.2000000000000000E-002     0.0000000000000000     
  -1.1699999999999999E-002     0.0000000000000000     
  -1.1399999999999999E-002     0.0000000000000000     
  -1.1099999999999999E-002     0.0000000000000000     
  -1.0799999999999999E-002     0.0000000000000000     
  -1.0499999999999999E-002     0.0000000000000000     
  -1.0199999999999999E-002     0.0000000000000000     
  -9.8999999999999991E-003     0.0000000000000000     
  -9.5999999999999992E-003     0.0000000000000000     
  -9.2999999999999992E-003     0.0000000000000000     
  -8.9999999999999993E-003     0.0000000000000000     
  -8.6999999999999994E-003     0.0000000000000000     
  -8.3999999999999995E-003     0.0000000000000000     
  -8.0999999999999996E-003     0.0000000000000000     
  -7.7999999999999988E-003     0.0000000000000000     
  -7.4999999999999997E-003     0.0000000000000000     
  -7.1999999999999998E-003     0.0000000000000000     
  -6.8999999999999981E-003     0.0000000000000000     
  -6.5999999999999982E-003     0.0000000000000000     
  -6.3000000000000000E-003     0.0000000000000000     
  -6.0000000000000001E-003     0.0000000000000000     
  -5.6999999999999985E-003     0.0000000000000000     
  -5.3999999999999986E-003     0.0000000000000000     
  -5.1000000000000004E-003     0.0000000000000000     
  -4.7999999999999987E-003     0.0000000000000000     
  -4.5000000000000005E-003     0.0000000000000000     
  -4.1999999999999989E-003     0.0000000000000000     
  -3.8999999999999990E-003     0.0000000000000000     
  -3.5999999999999990E-003     0.0000000000000000     
  -3.2999999999999991E-003     0.0000000000000000     
  -2.9999999999999992E-003     0.0000000000000000     
  -2.6999999999999993E-003     0.0000000000000000     
  -2.3999999999999994E-003     0.0000000000000000     
  -2.0999999999999977E-003     0.0000000000000000     
  -1.7999999999999995E-003     0.0000000000000000     
  -1.4999999999999979E-003     0.0000000000000000     
  -1.1999999999999997E-003     0.0000000000000000     
  -8.9999999999999976E-004     0.0000000000000000     
  -5.9999999999999810E-004     0.0000000000000000     
  -2.9999999999999992E-004     0.0000000000000000     
   0.0000000000000000          0.0000000000000000     
   3.0000000000000165E-004     0.0000000000000000     
   5.9999999999999984E-004     0.0000000000000000     
   9.0000000000000149E-004     0.0000000000000000     
   1.2000000000000031E-003     0.0000000000000000     
   1.5000000000000013E-003     0.0000000000000000     
   1.8000000000000030E-003     0.0000000000000000     
   2.1000000000000012E-003     0.0000000000000000     
   2.3999999999999994E-003     0.0000000000000000     
   2.7000000000000010E-003     0.0000000000000000     
   2.9999999999999992E-003     0.0000000000000000     
   3.3000000000000008E-003     0.0000000000000000     
   3.6000000000000025E-003     0.0000000000000000     
   3.9000000000000007E-003     0.0000000000000000     
   4.2000000000000023E-003     0.0000000000000000     
   4.5000000000000005E-003     0.0000000000000000     
   4.7999999999999987E-003     0.0000000000000000     
   5.1000000000000004E-003     0.0000000000000000     
   5.4000000000000020E-003     0.0000000000000000     
   5.7000000000000037E-003     0.0000000000000000     
   5.9999999999999984E-003     0.0000000000000000     
   6.3000000000000000E-003     0.0000000000000000     
   6.6000000000000017E-003     0.0000000000000000     
   6.9000000000000034E-003     0.0000000000000000     
   7.2000000000000015E-003     0.0000000000000000     
   7.5000000000000032E-003     0.0000000000000000     
   7.8000000000000014E-003     0.0000000000000000     
   8.0999999999999996E-003     0.0000000000000000     
   8.4000000000000012E-003     0.0000000000000000     
   8.7000000000000029E-003     0.0000000000000000     
   9.0000000000000011E-003     0.0000000000000000     
   9.2999999999999992E-003     0.0000000000000000     
   9.6000000000000009E-003     0.0000000000000000     
   9.8999999999999991E-003     0.0000000000000000     
   1.0200000000000001E-002     0.0000000000000000     
   1.0500000000000002E-002     0.0000000000000000     
   1.0800000000000004E-002     0.0000000000000000     
   1.1099999999999999E-002     0.0000000000000000     
   1.1400000000000000E-002     0.0000000000000000     
   1.1700000000000002E-002     0.0000000000000000     
   1.2000000000000004E-002     0.0000000000000000     
   1.2300000000000002E-002     0.0000000000000000     
   1.2600000000000000E-002     0.0000000000000000     
   1.2900000000000002E-002     0.0000000000000000     
   1.3200000000000000E-002     0.0000000000000000     
   1.3500000000000002E-002     0.0000000000000000     
   1.3800000000000003E-002     0.0000000000000000     
   1.4100000000000001E-002     0.0000000000000000     
   1.4400000000000000E-002     0.0000000000000000     
   1.4700000000000001E-002     0.0000000000000000     
   1.4999999999999999E-002     0.0000000000000000     
   1.5300000000000001E-002     0.0000000000000000     
   1.5600000000000003E-002     0.0000000000000000     
   1.5899999999999997E-002     0.0000000000000000     
   1.6199999999999999E-002     0.0000000000000000     
   1.6500000000000001E-002     0.0000000000000000     
   1.6800000000000002E-002     0.0000000000000000     
   1.7100000000000004E-002     0.0000000000000000     
   1.7400000000000006E-002     0.0000000000000000     
   1.7700000000000000E-002     0.0000000000000000     
   1.8000000000000002E-002     0.0000000000000000     
   1.8300000000000004E-002     0.0000000000000000     
   1.8600000000000005E-002     0.0000000000000000     
   1.8900000000000000E-002     0.0000000000000000     
   1.9200000000000002E-002     0.0000000000000000     
   1.9500000000000003E-002     0.0000000000000000     
   1.9799999999999998E-002     0.0000000000000000     
   2.0100000000000000E-002     0.0000000000000000     
   2.0400000000000001E-002     0.0000000000000000     
   2.0700000000000003E-002     0.0000000000000000     
   2.0999999999999998E-002     0.0000000000000000     
   2.1299999999999999E-002     0.0000000000000000     
   2.1600000000000001E-002     0.0000000000000000     
   2.1900000000000003E-002     0.0000000000000000     
   2.2200000000000004E-002     0.0000000000000000     
   2.2500000000000006E-002     0.0000000000000000     
   2.2800000000000001E-002     0.0000000000000000     
   2.3100000000000002E-002     0.0000000000000000     
   2.3400000000000004E-002     0.0000000000000000     
   2.3699999999999999E-002     0.0000000000000000     
   2.4000000000000000E-002     0.0000000000000000     
   2.4300000000000002E-002     0.0000000000000000     
   2.4599999999999997E-002     0.0000000000000000     
   2.4900000000000005E-002     0.0000000000000000     
   2.5200000000000000E-002     0.0000000000000000     
   2.5499999999999995E-002     0.0000000000000000     
   2.5800000000000003E-002     0.0000000000000000     
   2.6099999999999998E-002     0.0000000000000000     
   2.6400000000000007E-002     0.0000000000000000     
   2.6700000000000002E-002     0.0000000000000000     
   2.6999999999999996E-002     0.0000000000000000     
   2.7300000000000005E-002     0.0000000000000000     
   2.7600000000000000E-002     0.0000000000000000     
   2.7900000000000008E-002     0.0000000000000000     
   2.8200000000000003E-002     0.0000000000000000     
   2.8499999999999998E-002     0.0000000000000000     
   2.8800000000000006E-002     0.0000000000000000     
   2.9100000000000001E-002     0.0000000000000000     
   2.9400000000000003E-002     0.0000000000000000     
   2.9700000000000004E-002     0.0000000000000000     
   3.0000000000000006E-002     0.0000000000000000     
   3.0300000000000001E-002     0.0000000000000000     
   3.0600000000000002E-002     0.0000000000000000     
   3.0900000000000004E-002     0.0000000000000000     
   3.1199999999999999E-002     0.0000000000000000     
   3.1500000000000007E-002    -1.9010140338532867E-044
   3.1800000000000002E-002    -4.7022625768274896E-043
   3.2099999999999997E-002     4.7842890809063529E-042
   3.2400000000000005E-002     3.4600658841138730E-036
   3.2700000000000000E-002    -5.7539977324491782E-035
   3.3000000000000002E-002     2.5684539208456702E-034
   3.3300000000000003E-002    -4.9650325362726595E-034
   3.3599999999999998E-002     6.1964959356843017E-035
   3.3900000000000000E-002    -3.4218782688916832E-034
   3.4200000000000001E-002     1.1146951076850917E-032
   3.4500000000000003E-002    -6.6382865046617609E-032
   3.4799999999999998E-002     2.6450623649594840E-031
   3.5099999999999999E-002    -8.3299837344429461E-031
   3.5400000000000001E-002     2.1902143903254215E-030
   3.5699999999999996E-002    -4.8114644244043186E-030
   3.6000000000000004E-002     8.2534409494806595E-030
   3.6299999999999999E-002    -7.7930396869798145E-030
   3.6600000000000008E-002    -1.4042417642795306E-029
   3.6900000000000002E-002     1.0340040563983127E-028
   3.7199999999999997E-002    -3.5289294108973460E-028
   3.7500000000000006E-002     8.8670757895437430E-028
   3.7800000000000000E-002    -1.7099263458698404E-027
   3.8100000000000009E-002     2.2116882549738087E-027
   3.8400000000000004E-002    -6.4483915664277451E-029
   3.8699999999999998E-002    -1.0377028222048548E-026
   3.9000000000000007E-002     3.8566151672101690E-026
   3.9300000000000002E-002    -9.2013261896359249E-026
   3.9600000000000003E-002     1.5421391599203304E-025
   3.9900000000000005E-002    -1.3573552122345333E-025
   4.0200000000000000E-002    -1.9127964139358324E-025
   4.0500000000000001E-002     1.1962431615909493E-024
   4.0800000000000003E-002    -3.1257023513212693E-024
   4.1100000000000005E-002     5.2704811924203182E-024
   4.1399999999999999E-002    -4.5107441389692582E-024
   4.1700000000000008E-002    -5.6553852180541879E-024
   4.2000000000000003E-002     3.2037313122860031E-023
   4.2299999999999997E-002    -6.8492489230593972E-023
   4.2600000000000006E-002     6.8356535437364866E-023
   4.2900000000000001E-002     8.7270711521879030E-023
   4.3200000000000002E-002    -5.8842150650776233E-022
   4.3500000000000004E-002     1.6196195126878664E-021
   4.3799999999999999E-002    -3.2665839754837107E-021
   4.4100000000000000E-002     5.6981576159441057E-021
   4.4400000000000002E-002    -9.6239417300479707E-021
   4.4700000000000004E-002     1.3014819182053300E-020
   4.4999999999999998E-002     1.7198211868623921E-020
   4.5300000000000000E-002    -2.6910873283965161E-019
   4.5600000000000002E-002     1.4675964601084357E-018
   4.5899999999999996E-002    -5.6921683962497714E-018
   4.6200000000000005E-002     1.7081092124489972E-017
   4.6500000000000000E-002    -3.8182777723122667E-017
   4.6799999999999994E-002     4.6436041714402680E-017
   4.7100000000000003E-002     8.5478381115084626E-017
   4.7399999999999998E-002    -7.5909596784818209E-016
   4.7700000000000006E-002     2.7538645799609247E-015
   4.8000000000000001E-002    -6.3102879657295494E-015
   4.8300000000000010E-002     6.4596467218611262E-015
   4.8600000000000004E-002     1.8766183156379275E-014
   4.8899999999999999E-002    -1.1859693073975680E-013
   4.9200000000000008E-002     3.1892799398271966E-013
   4.9500000000000002E-002    -3.6185666762480549E-013
   4.9800000000000011E-002    -8.3155814800375124E-013
   5.0100000000000006E-002     5.0756358222008180E-012
   5.0400000000000000E-002    -1.0837938547963170E-011
   5.0700000000000009E-002     1.4712023982945895E-012
   5.1000000000000004E-002     6.0609512995022629E-011
   5.1299999999999998E-002    -1.7052602864725625E-010
   5.1600000000000007E-002     8.1333884785886462E-011
   5.1900000000000002E-002     7.5749898553930113E-010
   5.2200000000000010E-002    -2.0612730117716234E-009
   5.2500000000000005E-002     3.7515965782943944E-011
   5.2800000000000000E-002     1.0483643205145662E-008
   5.3099999999999994E-002    -1.6379452587536462E-008
   5.3400000000000003E-002    -2.9327287976253780E-008
   5.3699999999999998E-002     1.0631535371942577E-007
   5.4000000000000006E-002     3.9039049664360752E-008
   5.4300000000000001E-002    -5.0223866780638268E-007
   5.4599999999999996E-002     3.0955532008554383E-008
   5.4900000000000004E-002     3.1873660995686235E-006
   5.5199999999999999E-002     6.8435306249271147E-006
   5.5499999999999994E-002     8.2675104566537738E-006
   5.5800000000000002E-002     8.9339894203854276E-006
   5.6099999999999997E-002     1.1450223610217997E-005
   5.6400000000000006E-002     1.7012794277656337E-005
   5.6700000000000000E-002     2.7958713585467268E-005
   5.6999999999999995E-002     4.6148941192128831E-005
   5.7300000000000004E-002     7.1038522575989324E-005
   5.7599999999999998E-002     1.0308312685326800E-004
   5.7900000000000007E-002     1.4546366665874074E-004
   5.8200000000000002E-002     2.0382456076898107E-004
   5.8499999999999996E-002     2.8452615038121161E-004
   5.8800000000000005E-002     3.9103793154032584E-004
   5.9100000000000000E-002     5.2621419195071737E-004
   5.9400000000000008E-002     6.9444800894729794E-004
   5.9700000000000003E-002     8.9752324011881047E-004
   6.0000000000000012E-002     1.1351237602748845E-003
   6.0300000000000006E-002     1.4052758660056577E-003
   6.0600000000000001E-002     1.6993830971965382E-003
   6.0900000000000010E-002     2.0003422939098158E-003
   6.1200000000000004E-002     2.2803069129194243E-003
   6.1500000000000013E-002     2.4997600066592384E-003
   6.1800000000000008E-002     2.6126073926791538E-003
   6.2100000000000002E-002     2.5622674993993995E-003
   6.2399999999999997E-002     2.2748794644723578E-003
   6.2700000000000006E-002     1.6689791092831530E-003
   6.3000000000000000E-002     6.6590279975473868E-004
   6.3300000000000009E-002    -8.0676729537632671E-004
   6.3600000000000004E-002    -2.8136548820833400E-003
   6.3899999999999998E-002    -5.3998822414096630E-003
   6.4199999999999993E-002    -8.5702998089665777E-003
   6.4500000000000002E-002    -1.2284829499639712E-002
   6.4800000000000010E-002    -1.6459429684841938E-002
   6.5100000000000005E-002    -2.0949490178633252E-002
   6.5400000000000000E-002    -2.5546505549156089E-002
   6.5700000000000008E-002    -3.0002527927993839E-002
   6.5999999999999989E-002    -3.4038244367336379E-002
   6.6299999999999998E-002    -3.7359358812557364E-002
   6.6600000000000006E-002    -3.9661952792377789E-002
   6.6900000000000001E-002    -4.0667613042998624E-002
   6.7199999999999996E-002    -4.0156167490944812E-002
   6.7500000000000004E-002    -3.7988800686464132E-002
   6.7800000000000013E-002    -3.4101560604374331E-002
   6.8099999999999994E-002    -2.8540540303026437E-002
   6.8400000000000002E-002    -2.1436244169776800E-002
   6.8700000000000011E-002    -1.3043560317535183E-002
   6.8999999999999992E-002    -3.6790653042991458E-003
   6.9300000000000000E-002     6.2414034897189021E-003
   6.9600000000000009E-002     1.6259075673109386E-002
   6.9900000000000004E-002     2.5839165371966118E-002
   7.0199999999999999E-002     3.4425753645747327E-002
   7.0500000000000007E-002     4.1394083298285853E-002
   7.0800000000000016E-002     4.6091438843551984E-002
   7.1099999999999997E-002     4.7804024926950288E-002
   7.1400000000000005E-002     4.5803301500554228E-002
   7.1700000000000000E-002     3.9345328127359053E-002
   7.1999999999999995E-002     2.7770024391718193E-002
   7.2300000000000003E-002     1.0500761912332065E-002
   7.2600000000000012E-002    -1.2774916171318266E-002
   7.2900000000000006E-002    -4.2100135730680784E-002
   7.3200000000000001E-002    -7.7062024761884826E-002
   7.3499999999999996E-002   -0.11672291660370175     
   7.3800000000000004E-002   -0.15954790603615179     
   7.4099999999999999E-002   -0.20348336732278519     
   7.4400000000000008E-002   -0.24582345081281765     
   7.4700000000000003E-002   -0.28357025160040322     
   7.5000000000000011E-002   -0.31344120786482715     
   7.5299999999999992E-002   -0.33219732878906877     
   7.5600000000000001E-002   -0.33693667284712336     
   7.5900000000000009E-002   -0.32543109927563513     
   7.6200000000000004E-002   -0.29623901009990322     
   7.6499999999999999E-002   -0.24919705879989451     
   7.6800000000000007E-002   -0.18524443569810498     
   7.7099999999999988E-002   -0.10658948538082350     
   7.7399999999999997E-002    -1.6616607937442678E-002
   7.7700000000000005E-002     8.0443142392813777E-002
   7.8000000000000014E-002    0.17973450916728981     
   7.8299999999999995E-002    0.27617444935130331     
   7.8600000000000003E-002    0.36483805472802355     
   7.8900000000000012E-002    0.44132365650010841     
   7.9199999999999993E-002    0.50198607306213650     
   7.9500000000000001E-002    0.54425577803388847     
   7.9800000000000010E-002    0.56660245202507953     
   8.0100000000000018E-002    0.56859771650002844     
   8.0399999999999999E-002    0.55085955243224505     
   8.0700000000000008E-002    0.51491258707783794     
   8.1000000000000003E-002    0.46290920374476385     
   8.1299999999999997E-002    0.39768092113800135     
   8.1600000000000006E-002    0.32228283487397646     
   8.1900000000000014E-002    0.24020734500458751     
   8.2199999999999995E-002    0.15508336102712944     
   8.2500000000000004E-002     7.0746017126345415E-002
   8.2799999999999999E-002    -9.0443471890807106E-003
   8.3100000000000007E-002    -8.0307063691827385E-002
   8.3400000000000002E-002   -0.13949959200082437     
   8.3700000000000011E-002   -0.18321667600083200     
   8.4000000000000005E-002   -0.20883646403144257     
   8.4300000000000000E-002   -0.21449027598123308     
   8.4599999999999995E-002   -0.19963880921390967     
   8.4900000000000003E-002   -0.16490238409630631     
   8.5199999999999998E-002   -0.11272928383539306     
   8.5500000000000007E-002    -4.6719483513124785E-002
   8.5800000000000001E-002     2.7825152061109800E-002
   8.6100000000000010E-002    0.10481653580419584     
   8.6399999999999991E-002    0.17741288345712200     
   8.6699999999999999E-002    0.23891182248454898     
   8.7000000000000008E-002    0.28302940660175224     
   8.7300000000000003E-002    0.30493450075440143     
   8.7599999999999997E-002    0.30120405489802360     
   8.7900000000000006E-002    0.27064180387623188     
   8.8200000000000014E-002    0.21414652607404253     
   8.8499999999999995E-002    0.13478419493768451     
   8.8800000000000004E-002     3.7447379360822111E-002
   8.9100000000000013E-002    -7.1553506232402767E-002
   8.9399999999999993E-002   -0.18513441649442322     
   8.9700000000000002E-002   -0.29582815239458615     
   9.0000000000000011E-002   -0.39672045608038992     
   9.0299999999999991E-002   -0.48171718485904202     
   9.0600000000000000E-002   -0.54599486266968311     
   9.0900000000000009E-002   -0.58628414500498816     
   9.1200000000000017E-002   -0.60079930650862445     
   9.1499999999999998E-002   -0.58935998351097485     
   9.1800000000000007E-002   -0.55300770754073647     
   9.2100000000000001E-002   -0.49387525204608845     
   9.2399999999999996E-002   -0.41476892280776917     
   9.2700000000000005E-002   -0.31919958253383374     
   9.3000000000000013E-002   -0.21074453799919965     
   9.3300000000000008E-002    -9.3497406507812089E-002
   9.3600000000000003E-002     2.8620185914362085E-002
   9.3899999999999997E-002    0.15136423391735263     
   9.4200000000000006E-002    0.27057855605325831     
   9.4500000000000001E-002    0.38191573672819418     
   9.4800000000000009E-002    0.48120833863009926     
   9.5100000000000004E-002    0.56427178798287059     
   9.5399999999999999E-002    0.62749514632471071     
   9.5699999999999993E-002    0.66765758737883596     
   9.6000000000000002E-002    0.68255546813646917     
   9.6300000000000011E-002    0.67082706097762579     
   9.6600000000000005E-002    0.63267102837068578     
   9.6900000000000000E-002    0.56930896747746285     
   9.7200000000000009E-002    0.48357078770551287     
   9.7499999999999989E-002    0.37926176852202048     
   9.7799999999999998E-002    0.26142407544867663     
   9.8100000000000007E-002    0.13545121322388309     
   9.8400000000000015E-002     7.3221417065067549E-003
   9.8699999999999996E-002   -0.11722061414170294     
   9.9000000000000005E-002   -0.23285332181312146     
   9.9300000000000013E-002   -0.33501472452398345     
   9.9599999999999994E-002   -0.41999529749887826     
   9.9900000000000003E-002   -0.48538114219184986     
  0.10020000000000001        -0.52980325918149340     
  0.10049999999999999        -0.55309949400603087     
  0.10080000000000000        -0.55638382767679273     
  0.10110000000000001        -0.54145351888834214     
  0.10140000000000000        -0.51129172046282911     
  0.10170000000000000        -0.46947229689559278     
  0.10200000000000001        -0.42007381514203884     
  0.10230000000000002        -0.36754829492678276     
  0.10260000000000000        -0.31663263653855267     
  0.10290000000000001        -0.27162755332567640     
  0.10320000000000000        -0.23685050775568728     
  0.10350000000000001        -0.21548118396412944     
  0.10380000000000000        -0.21002066748592391     
  0.10410000000000001        -0.22153102357354787     
  0.10440000000000001        -0.24964201817258772     
  0.10470000000000000        -0.29220608112486141     
  0.10500000000000000        -0.34565287946663370     
  0.10530000000000000        -0.40461456801408302     
  0.10560000000000000        -0.46287304158782633     
  0.10590000000000001        -0.51312556895168515     
  0.10620000000000000        -0.54811522526783019     
  0.10650000000000001        -0.56100890437837836     
  0.10679999999999999        -0.54620436586895982     
  0.10710000000000000        -0.49962068825766970     
  0.10740000000000001        -0.41988422298671924     
  0.10770000000000000        -0.30778276435074098     
  0.10800000000000000        -0.16711168275972171     
  0.10830000000000001         -3.8612827953048113E-003
  0.10859999999999999         0.17368082256417416     
  0.10890000000000000         0.35579428301708149     
  0.10920000000000001         0.53216716110125273     
  0.10950000000000001         0.69241120205977458     
  0.10979999999999999         0.82719947136252658     
  0.11009999999999999         0.92897100088452522     
  0.11040000000000001         0.99217785014256465     
  0.11070000000000001          1.0139933285268903     
  0.11100000000000000         0.99436718939320123     
  0.11130000000000000         0.93558646295211423     
  0.11160000000000002         0.84222073916547802     
  0.11190000000000001         0.72065927820459574     
  0.11220000000000001         0.57827571081245088     
  0.11250000000000000         0.42307330137787713     
  0.11280000000000000         0.26285751624493142     
  0.11309999999999999         0.10493086279346166     
  0.11340000000000001         -4.4148181448294639E-002
  0.11369999999999998        -0.17915702822462262     
  0.11400000000000000        -0.29584935352320468     
  0.11430000000000000        -0.39142941690315664     
  0.11460000000000002        -0.46385486541957321     
  0.11489999999999999        -0.51238615495631368     
  0.11520000000000001        -0.53675724019348747     
  0.11550000000000001        -0.53789843070947063     
  0.11580000000000000        -0.51712806186640936     
  0.11609999999999999        -0.47677426129740258     
  0.11640000000000002        -0.41959740915864652     
  0.11670000000000001        -0.34927216128533706     
  0.11700000000000001        -0.26990679714141175     
  0.11730000000000000        -0.18615447213992270     
  0.11760000000000000        -0.10261205976899634     
  0.11789999999999999         -2.3727738851977542E-002
  0.11820000000000001          4.6844141429295917E-002
  0.11850000000000001         0.10634029879948705     
  0.11880000000000000         0.15365970533613435     
  0.11910000000000000         0.18905821384653917     
  0.11940000000000002         0.21491832632399510     
  0.11970000000000001         0.23474080209555293     
  0.12000000000000001         0.25326990250571935     
  0.12030000000000000         0.27574174622949554     
  0.12060000000000000         0.30709578491759354     
  0.12089999999999999         0.35104932171844161     
  0.12119999999999999         0.40968428710373589     
  0.12150000000000001         0.48265726898917388     
  0.12180000000000001         0.56681741700395571     
  0.12210000000000000         0.65645797408207895     
  0.12239999999999999         0.74354214824312936     
  0.12270000000000002         0.81833799148705377     
  0.12300000000000001         0.87064607652138626     
  0.12330000000000001         0.89062037197258903     
  0.12360000000000000         0.86980983341454676     
  0.12390000000000000         0.80263719480426221     
  0.12419999999999999         0.68668268611361316     
  0.12450000000000001         0.52357971286548799     
  0.12480000000000001         0.31875465172349304     
  0.12509999999999999          8.1345654148410843E-002
  0.12540000000000001        -0.17650463730029683     
  0.12570000000000003        -0.44026459571462651     
  0.12600000000000000        -0.69472998611015990     
  0.12630000000000002        -0.92428016020342774     
  0.12659999999999999         -1.1148045533650874     
  0.12690000000000001         -1.2541341029055844     
  0.12719999999999998         -1.3332198109111681     
  0.12750000000000000         -1.3464625362120330     
  0.12780000000000002         -1.2923350886373290     
  0.12809999999999999         -1.1733552873352262     
  0.12840000000000001        -0.99584599247685079     
  0.12869999999999998        -0.77016804053740218     
  0.12900000000000000        -0.50964646618237031     
  0.12930000000000003        -0.23014274999265649     
  0.12959999999999999          5.0763728613643574E-002
  0.12990000000000002         0.31471308231257872     
  0.13019999999999998         0.54409659876040717     
  0.13050000000000000         0.72273290291889014     
  0.13080000000000003         0.83753204067007836     
  0.13109999999999999         0.87914150716734263     
  0.13140000000000002         0.84332442570311150     
  0.13169999999999998         0.73129571741614330     
  0.13200000000000001         0.55022540346224924     
  0.13229999999999997         0.31252117308920913     
  0.13260000000000000          3.6066579429928872E-002
  0.13290000000000002        -0.25811163355849170     
  0.13319999999999999        -0.54611827799814794     
  0.13350000000000001        -0.80406969990043042     
  0.13380000000000003         -1.0090590009061744     
  0.13410000000000000         -1.1418846056321623     
  0.13440000000000002         -1.1878785269196979     
  0.13469999999999999         -1.1388494181582598     
  0.13500000000000001        -0.99328189083731500     
  0.13529999999999998        -0.75682563034952810     
  0.13560000000000000        -0.44183900338060428     
  0.13590000000000002         -6.6442118788083579E-002
  0.13619999999999999         0.34685187373988180     
  0.13650000000000001         0.77266254295968817     
  0.13680000000000003          1.1851121765131845     
  0.13710000000000000          1.5586294294420409     
  0.13740000000000002          1.8706027447226368     
  0.13769999999999999          2.1021238611851416     
  0.13800000000000001          2.2391499251417324     
  0.13829999999999998          2.2733739569987224     
  0.13860000000000000          2.2019411326617382     
  0.13890000000000002          2.0279649600904683     
  0.13919999999999999          1.7593714258296329     
  0.13950000000000001          1.4089185458683167     
  0.13979999999999998         0.99275619737427490     
  0.14010000000000000         0.53009483720714323     
  0.14040000000000002          4.1703635604859596E-002
  0.14069999999999999        -0.45095476715391819     
  0.14100000000000001        -0.92624569641939336     
  0.14130000000000004         -1.3643509591997587     
  0.14160000000000000         -1.7469967854022392     
  0.14189999999999997         -2.0590602257985502     
  0.14219999999999999         -2.2890039673437967     
  0.14250000000000002         -2.4295295408282911     
  0.14279999999999998         -2.4777637640884813     
  0.14310000000000000         -2.4354861931963891     
  0.14339999999999997         -2.3091014661932250     
  0.14369999999999999         -2.1087619223949501     
  0.14400000000000002         -1.8482173991084996     
  0.14429999999999998         -1.5434319266973537     
  0.14460000000000001         -1.2117636880720986     
  0.14490000000000003        -0.87093874618540634     
  0.14520000000000000        -0.53746544078301406     
  0.14550000000000002        -0.22651115651556947     
  0.14579999999999999          4.9839638369212964E-002
  0.14610000000000001         0.28230860222806375     
  0.14640000000000003         0.46498323792172974     
  0.14670000000000000         0.59529328924877822     
  0.14699999999999996         0.67361509994426361     
  0.14729999999999999         0.70316058555867600     
  0.14760000000000001         0.68902177059909353     
  0.14789999999999998         0.63828451460150815     
  0.14820000000000000         0.55869557298768202     