  -1.4999999999999999E-002     0.0000000000000000     
  -1.4700000000000000E-002     0.0000000000000000     
  -1.4400000000000000E-002     0.0000000000000000     
  -1.4100000000000000E-002     0.0000000000000000     
  -1.3800000000000000E-002     0.0000000000000000     
  -1.3500000000000000E-002     0.0000000000000000     
  -1.3200000000000000E-002     0.0000000000000000     
  -1.2899999999999998E-002     0.0000000000000000     
  -1.2600000000000000E-002     0.0000000000000000     
  -1.2299999999999998E-002     0.0000000000000000     
  -1.2000000000000000E-002     0.0000000000000000     
  -1.1699999999999999E-002     0.0000000000000000     
  -1.1399999999999999E-002     0.0000000000000000     
  -1.1099999999999999E-002     0.0000000000000000     
  -1.0799999999999999E-002     0.0000000000000000     
  -1.0499999999999999E-002     0.0000000000000000     
  -1.0199999999999999E-002     0.0000000000000000     
  -9.8999999999999991E-003     0.0000000000000000     
  -9.5999999999999992E-003     0.0000000000000000     
  -9.2999999999999992E-003     0.0000000000000000     
  -8.9999999999999993E-003     0.0000000000000000     
  -8.6999999999999994E-003     0.0000000000000000     
  -8.3999999999999995E-003     0.0000000000000000     
  -8.0999999999999996E-003     0.0000000000000000     
  -7.7999999999999988E-003     0.0000000000000000     
  -7.4999999999999997E-003     0.0000000000000000     
  -7.1999999999999998E-003     0.0000000000000000     
  -6.8999999999999981E-003     0.0000000000000000     
  -6.5999999999999982E-003     0.0000000000000000     
  -6.3000000000000000E-003     0.0000000000000000     
  -6.0000000000000001E-003     0.0000000000000000     
  -5.6999999999999985E-003     0.0000000000000000     
  -5.3999999999999986E-003     0.0000000000000000     
  -5.1000000000000004E-003     0.0000000000000000     
  -4.7999999999999987E-003     0.0000000000000000     
  -4.5000000000000005E-003     0.0000000000000000     
  -4.1999999999999989E-003     0.0000000000000000     
  -3.8999999999999990E-003     0.0000000000000000     
  -3.5999999999999990E-003     0.0000000000000000     
  -3.2999999999999991E-003     0.0000000000000000     
  -2.9999999999999992E-003     0.0000000000000000     
  -2.6999999999999993E-003     0.0000000000000000     
  -2.3999999999999994E-003     0.0000000000000000     
  -2.0999999999999977E-003     0.0000000000000000     
  -1.7999999999999995E-003     0.0000000000000000     
  -1.4999999999999979E-003     0.0000000000000000     
  -1.1999999999999997E-003     0.0000000000000000     
  -8.9999999999999976E-004     0.0000000000000000     
  -5.9999999999999810E-004     0.0000000000000000     
  -2.9999999999999992E-004     0.0000000000000000     
   0.0000000000000000          0.0000000000000000     
   3.0000000000000165E-004     0.0000000000000000     
   5.9999999999999984E-004     0.0000000000000000     
   9.0000000000000149E-004     0.0000000000000000     
   1.2000000000000031E-003     0.0000000000000000     
   1.5000000000000013E-003     0.0000000000000000     
   1.8000000000000030E-003     0.0000000000000000     
   2.1000000000000012E-003     0.0000000000000000     
   2.3999999999999994E-003     0.0000000000000000     
   2.7000000000000010E-003     0.0000000000000000     
   2.9999999999999992E-003     0.0000000000000000     
   3.3000000000000008E-003     0.0000000000000000     
   3.6000000000000025E-003     0.0000000000000000     
   3.9000000000000007E-003     0.0000000000000000     
   4.2000000000000023E-003     0.0000000000000000     
   4.5000000000000005E-003     0.0000000000000000     
   4.7999999999999987E-003     0.0000000000000000     
   5.1000000000000004E-003     0.0000000000000000     
   5.4000000000000020E-003     0.0000000000000000     
   5.7000000000000037E-003     0.0000000000000000     
   5.9999999999999984E-003     0.0000000000000000     
   6.3000000000000000E-003     0.0000000000000000     
   6.6000000000000017E-003     0.0000000000000000     
   6.9000000000000034E-003     0.0000000000000000     
   7.2000000000000015E-003     0.0000000000000000     
   7.5000000000000032E-003     0.0000000000000000     
   7.8000000000000014E-003     0.0000000000000000     
   8.0999999999999996E-003     0.0000000000000000     
   8.4000000000000012E-003     0.0000000000000000     
   8.7000000000000029E-003     0.0000000000000000     
   9.0000000000000011E-003     0.0000000000000000     
   9.2999999999999992E-003     0.0000000000000000     
   9.6000000000000009E-003     0.0000000000000000     
   9.8999999999999991E-003     0.0000000000000000     
   1.0200000000000001E-002     0.0000000000000000     
   1.0500000000000002E-002     0.0000000000000000     
   1.0800000000000004E-002     0.0000000000000000     
   1.1099999999999999E-002     0.0000000000000000     
   1.1400000000000000E-002     0.0000000000000000     
   1.1700000000000002E-002     0.0000000000000000     
   1.2000000000000004E-002     0.0000000000000000     
   1.2300000000000002E-002     0.0000000000000000     
   1.2600000000000000E-002     0.0000000000000000     
   1.2900000000000002E-002     0.0000000000000000     
   1.3200000000000000E-002     0.0000000000000000     
   1.3500000000000002E-002     0.0000000000000000     
   1.3800000000000003E-002     0.0000000000000000     
   1.4100000000000001E-002     0.0000000000000000     
   1.4400000000000000E-002     0.0000000000000000     
   1.4700000000000001E-002     0.0000000000000000     
   1.4999999999999999E-002     0.0000000000000000     
   1.5300000000000001E-002     0.0000000000000000     
   1.5600000000000003E-002     0.0000000000000000     
   1.5899999999999997E-002     0.0000000000000000     
   1.6199999999999999E-002     0.0000000000000000     
   1.6500000000000001E-002     0.0000000000000000     
   1.6800000000000002E-002     0.0000000000000000     
   1.7100000000000004E-002     0.0000000000000000     
   1.7400000000000006E-002     0.0000000000000000     
   1.7700000000000000E-002     0.0000000000000000     
   1.8000000000000002E-002     0.0000000000000000     
   1.8300000000000004E-002     0.0000000000000000     
   1.8600000000000005E-002     0.0000000000000000     
   1.8900000000000000E-002     0.0000000000000000     
   1.9200000000000002E-002     0.0000000000000000     
   1.9500000000000003E-002    -3.6993428127868259E-036
   1.9799999999999998E-002    -1.5920931777836355E-036
   2.0100000000000000E-002    -2.3554935613539966E-036
   2.0400000000000001E-002    -7.6863260718781723E-035
   2.0700000000000003E-002     2.1176738022592632E-034
   2.0999999999999998E-002    -1.8512354101655425E-034
   2.1299999999999999E-002     7.5583139042864781E-035
   2.1600000000000001E-002    -2.0448024298060576E-034
   2.1900000000000003E-002     2.0699747908055226E-033
   2.2200000000000004E-002    -4.0837627123672712E-033
   2.2500000000000006E-002     2.3408867208462085E-033
   2.2800000000000001E-002     3.6449953808643893E-033
   2.3100000000000002E-002    -5.1633344201620799E-033
   2.3400000000000004E-002    -1.3478451385434227E-032
   2.3699999999999999E-002     4.9550208762152832E-032
   2.4000000000000000E-002    -6.4107277162374591E-032
   2.4300000000000002E-002     5.8127815141183887E-033
   2.4599999999999997E-002     1.4320581889848088E-031
   2.4900000000000005E-002    -5.5767793172019761E-031
   2.5200000000000000E-002     2.3942615564899988E-030
   2.5499999999999995E-002    -9.4807835831360960E-030
   2.5800000000000003E-002     3.0747650317211816E-029
   2.6099999999999998E-002    -8.2906474833946753E-029
   2.6400000000000007E-002     1.9022208966379399E-028
   2.6700000000000002E-002    -3.6472472534922506E-028
   2.6999999999999996E-002     5.1287300033608696E-028
   2.7300000000000005E-002    -1.5282276350456953E-028
   2.7600000000000000E-002    -2.2040417086933224E-027
   2.7900000000000008E-002     9.9528509222036240E-027
   2.8200000000000003E-002    -2.8619685254182513E-026
   2.8499999999999998E-002     6.2122545399319519E-026
   2.8800000000000006E-002    -9.7879433781559107E-026
   2.9100000000000001E-002     7.1606987863226539E-026
   2.9400000000000003E-002     1.8437891642226744E-025
   2.9700000000000004E-002    -9.5197692994335204E-025
   3.0000000000000006E-002     2.4254758578270740E-024
   3.0300000000000001E-002    -4.0000276976746758E-024
   3.0600000000000002E-002     2.8332651038284697E-024
   3.0900000000000004E-002     7.8613024625649855E-024
   3.1199999999999999E-002    -3.8720613859130400E-023
   3.1500000000000007E-002     9.7632171757191243E-023
   3.1800000000000002E-002    -1.6724944984165026E-022
   3.2099999999999997E-002     1.4363260471607992E-022
   3.2400000000000005E-002     3.3120126228539921E-022
   3.2700000000000000E-002    -2.3056653266579051E-021
   3.3000000000000002E-002     8.3571046649333908E-021
   3.3300000000000003E-002    -2.2672290154932022E-020
   3.3599999999999998E-002     4.3248815182862993E-020
   3.3900000000000000E-002    -2.4450940574696846E-020
   3.4200000000000001E-002    -2.2338878042941772E-019
   3.4500000000000003E-002     1.1640619116770035E-018
   3.4799999999999998E-002    -3.3165174466889333E-018
   3.5099999999999999E-002     5.4339296964309840E-018
   3.5400000000000001E-002     1.1231489226825022E-018
   3.5699999999999996E-002    -4.1359754747442936E-017
   3.6000000000000004E-002     1.5106695879729898E-016
   3.6299999999999999E-002    -2.9281682307430807E-016
   3.6600000000000008E-002     9.1349280620050208E-017
   3.6900000000000002E-002     1.5161651495661283E-015
   3.7199999999999997E-002    -5.6973324428336572E-015
   3.7500000000000006E-002     9.6034717438507877E-015
   3.7800000000000000E-002     2.6831928502932228E-015
   3.8100000000000009E-002    -6.1926383917358656E-014
   3.8400000000000004E-002     1.6561759800855789E-013
   3.8699999999999998E-002    -1.3762474748240481E-013
   3.9000000000000007E-002    -4.7013469955586543E-013
   3.9300000000000002E-002     1.8757467282903864E-012
   3.9600000000000003E-002    -2.3922857532039505E-012
   3.9900000000000005E-002    -2.8245113583931913E-012
   4.0200000000000000E-002     1.6575003096902458E-011
   4.0500000000000001E-002    -2.3937854843873000E-011
   4.0800000000000003E-002    -1.4584153480275875E-011
   4.1100000000000005E-002     1.1493430948514006E-010
   4.1399999999999999E-002    -1.7655075446795767E-010
   4.1700000000000008E-002     1.6871800566317460E-012
   4.2000000000000003E-002     5.4012469873792250E-010
   4.2299999999999997E-002    -1.5754951200309919E-009
   4.2600000000000006E-002     2.4695993935112673E-009
   4.2900000000000001E-002     3.7848161702874364E-009
   4.3200000000000002E-002    -3.1567963536618679E-008
   4.3500000000000004E-002     1.9484053006476915E-008
   4.3799999999999999E-002     1.6030319316671405E-007
   4.4100000000000000E-002    -3.1242379230221620E-007
   4.4400000000000002E-002    -2.1976618963239481E-007
   4.4700000000000004E-002     7.9930885734209175E-006
   4.4999999999999998E-002     3.2568328847550214E-005
   4.5300000000000000E-002     6.7252616533438491E-005
   4.5600000000000002E-002     9.3941150427426768E-005
   4.5899999999999996E-002     1.1075582299412115E-004
   4.6200000000000005E-002     1.4553027285248911E-004
   4.6500000000000000E-002     2.3040916601697146E-004
   4.6799999999999994E-002     3.7424270125561765E-004
   4.7100000000000003E-002     5.7232602502041527E-004
   4.7399999999999998E-002     8.3754167080138137E-004
   4.7700000000000006E-002     1.2098590656133609E-003
   4.8000000000000001E-002     1.7368275842831280E-003
   4.8300000000000010E-002     2.4596613946974459E-003
   4.8600000000000004E-002     3.4214368435340789E-003
   4.8899999999999999E-002     4.6744156800846461E-003
   4.9200000000000008E-002     6.2740572342647322E-003
   4.9500000000000002E-002     8.2671653572210842E-003
   4.9800000000000011E-002     1.0676060126135339E-002
   5.0100000000000006E-002     1.3485927456345075E-002
   5.0400000000000000E-002     1.6637744778329640E-002
   5.0700000000000009E-002     2.0010384276777465E-002
   5.1000000000000004E-002     2.3387047090376829E-002
   5.1299999999999998E-002     2.6425956451290426E-002
   5.1600000000000007E-002     2.8644711467787635E-002
   5.1900000000000002E-002     2.9425686932771516E-002
   5.2200000000000010E-002     2.8019430790518742E-002
   5.2500000000000005E-002     2.3550153346916861E-002
   5.2800000000000000E-002     1.5059213516277861E-002
   5.3099999999999994E-002     1.5967584099739020E-003
   5.3400000000000003E-002    -1.7663479286043452E-002
   5.3699999999999998E-002    -4.3304552455142260E-002
   5.4000000000000006E-002    -7.5515950090176698E-002
   5.4300000000000001E-002   -0.11393346172522936     
   5.4599999999999996E-002   -0.15746066362025582     
   5.4900000000000004E-002   -0.20414563026889759     
   5.5199999999999999E-002   -0.25113735223218370     
   5.5499999999999994E-002   -0.29469046725935888     
   5.5800000000000002E-002   -0.33025349005060445     
   5.6099999999999997E-002   -0.35270477216432816     
   5.6400000000000006E-002   -0.35676021269888003     
   5.6700000000000000E-002   -0.33741305116350084     
   5.6999999999999995E-002   -0.29043162589571586     
   5.7300000000000004E-002   -0.21299021471283233     
   5.7599999999999998E-002   -0.10419026268161756     
   5.7900000000000007E-002     3.4442056976577283E-002
   5.8200000000000002E-002    0.19871658603732509     
   5.8499999999999996E-002    0.38158918410253390     
   5.8800000000000005E-002    0.57348205131359253     
   5.9100000000000000E-002    0.76265503931234313     
   5.9400000000000008E-002    0.93594392552978012     
   5.9700000000000003E-002     1.0798158922190111     
   6.0000000000000012E-002     1.1813608710504522     
   6.0300000000000006E-002     1.2295599298379847     
   6.0600000000000001E-002     1.2162816835131540     
   6.0900000000000010E-002     1.1372046760451124     
   6.1200000000000004E-002    0.99261286389489123     
   6.1500000000000013E-002    0.78733607122966631     
   6.1800000000000008E-002    0.53088576904894758     
   6.2100000000000002E-002    0.23676576249452758     
   6.2399999999999997E-002    -7.8449259667793494E-002
   6.2700000000000006E-002   -0.39610199269622670     
   6.3000000000000000E-002   -0.69722904690520204     
   6.3300000000000009E-002   -0.96360328422439412     
   6.3600000000000004E-002    -1.1792229730820645     
   6.3899999999999998E-002    -1.3315284607699203     
   6.4199999999999993E-002    -1.4121493476331521     
   6.4500000000000002E-002    -1.4175790923045226     
   6.4800000000000010E-002    -1.3492473718397489     
   6.5100000000000005E-002    -1.2133173066867557     
   6.5400000000000000E-002    -1.0201401973535371     
   6.5700000000000008E-002   -0.78350247933856931     
   6.5999999999999989E-002   -0.51964868377955564     
   6.6299999999999998E-002   -0.24610661491584288     
   6.6600000000000006E-002     1.9482245777832991E-002
   6.6900000000000001E-002    0.26048041233745556     
   6.7199999999999996E-002    0.46211130811570456     
   6.7500000000000004E-002    0.61249400968269940     
   6.7800000000000013E-002    0.70318057171510173     
   6.8099999999999994E-002    0.72961064274595910     
   6.8400000000000002E-002    0.69135751306314763     
   6.8700000000000011E-002    0.59190686245874702     
   6.8999999999999992E-002    0.43863601757706000     
   6.9300000000000000E-002    0.24206437894384608     
   6.9600000000000009E-002     1.5209144112275565E-002
   6.9900000000000004E-002   -0.22707500119678048     
   7.0199999999999999E-002   -0.46930624267410859     
   7.0500000000000007E-002   -0.69607951084354391     
   7.0800000000000016E-002   -0.89315702892626214     
   7.1099999999999997E-002    -1.0483727732848223     
   7.1400000000000005E-002    -1.1522050209466401     
   7.1700000000000000E-002    -1.1985630114653991     
   7.1999999999999995E-002    -1.1849071100816519     
   7.2300000000000003E-002    -1.1122448737878414     
   7.2600000000000012E-002   -0.98511245452686080     
   7.2900000000000006E-002   -0.81095006198000319     
   7.3200000000000001E-002   -0.59955515025854200     
   7.3499999999999996E-002   -0.36221061068954824     
   7.3800000000000004E-002   -0.11063981306111455     
   7.4099999999999999E-002    0.14361113730825117     
   7.4400000000000008E-002    0.39036695229230928     
   7.4700000000000003E-002    0.62102236009407452     
   7.5000000000000011E-002    0.82920845536385801     
   7.5299999999999992E-002     1.0111487173398486     
   7.5600000000000001E-002     1.1648847162829401     
   7.5900000000000009E-002     1.2903153031732351     
   7.6200000000000004E-002     1.3887603631387708     
   7.6499999999999999E-002     1.4615344173181752     
   7.6800000000000007E-002     1.5101405755337465     
   7.7099999999999988E-002     1.5349616188797415     
   7.7399999999999997E-002     1.5349800962001410     
   7.7700000000000005E-002     1.5083940395973006     
   7.8000000000000014E-002     1.4516566152558195     
   7.8299999999999995E-002     1.3608416649567676     
   7.8600000000000003E-002     1.2322867215802356     
   7.8900000000000012E-002     1.0630768796807439     
   7.9199999999999993E-002    0.85258354837617878     
   7.9500000000000001E-002    0.60263653087611713     
   7.9800000000000010E-002    0.31854761440765766     
   8.0100000000000018E-002     9.2565979223179235E-003
   8.0399999999999999E-002   -0.31336642063077352     
   8.0700000000000008E-002   -0.63438506479150203     
   8.1000000000000003E-002   -0.93772836833368101     
   8.1299999999999997E-002    -1.2067628202397336     
   8.1600000000000006E-002    -1.4260082595239045     
   8.1900000000000014E-002    -1.5828793437618023     
   8.2199999999999995E-002    -1.6680261306622093     
   8.2500000000000004E-002    -1.6770905668200951     
   8.2799999999999999E-002    -1.6107213891754879     
   8.3100000000000007E-002    -1.4741729858558634     
   8.3400000000000002E-002    -1.2775037599166261     
   8.3700000000000011E-002    -1.0338605891786350     
   8.4000000000000005E-002   -0.75870712416828978     
   8.4300000000000000E-002   -0.46834186791756055     
   8.4599999999999995E-002   -0.17830299193124352     
   8.4900000000000003E-002     9.7416344696174953E-002
   8.5199999999999998E-002    0.34779850611619650     
   8.5500000000000007E-002    0.56496746845296109     
   8.5800000000000001E-002    0.74431963719789862     
   8.6100000000000010E-002    0.88470663924425952     
   8.6399999999999991E-002    0.98736169486680014     
   8.6699999999999999E-002     1.0554180414791403     
   8.7000000000000008E-002     1.0929974594647558     
   8.7300000000000003E-002     1.1040717642239817     
   8.7599999999999997E-002     1.0921289002772445     
   8.7900000000000006E-002     1.0591417814673156     
   8.8200000000000014E-002     1.0056076298336936     
   8.8499999999999995E-002    0.93056973104279805     
   8.8800000000000004E-002    0.83166410537728930     
   8.9100000000000013E-002    0.70623661748235378     
   8.9399999999999993E-002    0.55147309356922014     
   8.9700000000000002E-002    0.36541593838403386     
   9.0000000000000011E-002    0.14831742842277695     
   9.0299999999999991E-002    -9.7716007944630007E-002
   9.0600000000000000E-002   -0.36758111034350471     
   9.0900000000000009E-002   -0.65313919225913186     
   9.1200000000000017E-002   -0.94390055097088854     
   9.1499999999999998E-002    -1.2267840232434151     
   9.1800000000000007E-002    -1.4878566652263221     
   9.2100000000000001E-002    -1.7128379785647536     
   9.2399999999999996E-002    -1.8881507402695950     
   9.2700000000000005E-002    -2.0028420003011793     
   9.3000000000000013E-002    -2.0486908476904606     
   9.3300000000000008E-002    -2.0217364343915922     
   9.3600000000000003E-002    -1.9224533325316882     
   9.3899999999999997E-002    -1.7555261099269439     
   9.4200000000000006E-002    -1.5303042318722886     
   9.4500000000000001E-002    -1.2591452914647399     
   9.4800000000000009E-002   -0.95706524878769073     
   9.5100000000000004E-002   -0.64050664137801028     
   9.5399999999999999E-002   -0.32545358785046108     
   9.5699999999999993E-002    -2.6896691879257664E-002
   9.6000000000000002E-002    0.24279210561890849     
   9.6300000000000011E-002    0.47450647932032647     
   9.6600000000000005E-002    0.66277541400993734     
   9.6900000000000000E-002    0.80654807952508534     
   9.7200000000000009E-002    0.90817906809301108     
   9.7499999999999989E-002    0.97341492333365343     
   9.7799999999999998E-002     1.0106971530475757     
   9.8100000000000007E-002     1.0294872797508057     
   9.8400000000000015E-002     1.0398893637509490     
   9.8699999999999996E-002     1.0510276842190676     
   9.9000000000000005E-002     1.0702691371502955     
   9.9300000000000013E-002     1.1027181450686074     
   9.9599999999999994E-002     1.1500082330111132     
   9.9900000000000003E-002     1.2109325260707193     
  0.10020000000000001          1.2814793930987534     
  0.10049999999999999          1.3549987438313535     
  0.10080000000000000          1.4235206024966474     
  0.10110000000000001          1.4784800199244654     
  0.10140000000000000          1.5118118914625172     
  0.10170000000000000          1.5167603880455902     
  0.10200000000000001          1.4887825627836195     
  0.10230000000000002          1.4260233999018452     
  0.10260000000000000          1.3293458554408666     
  0.10290000000000001          1.2021529970979981     
  0.10320000000000000          1.0499556320757015     
  0.10350000000000001         0.87972869600726711     
  0.10380000000000000         0.69884570096492860     
  0.10410000000000001         0.51458801006426824     
  0.10440000000000001         0.33310724006452586     
  0.10470000000000000         0.15921940168736501     
  0.10500000000000000         -3.9966876397334291E-003
  0.10530000000000000        -0.15546230017715662     
  0.10560000000000000        -0.29521910245766747     
  0.10590000000000001        -0.42479403037056490     
  0.10620000000000000        -0.54635103068748236     
  0.10650000000000001        -0.66198124302767425     
  0.10679999999999999        -0.77361967248379859     
  0.10710000000000000        -0.88249542669073311     
  0.10740000000000001        -0.98925843450861528     
  0.10770000000000000         -1.0933332727787790     
  0.10800000000000000         -1.1935633729825139     
  0.10830000000000001         -1.2883804174932663     
  0.10859999999999999         -1.3754629248061585     
  0.10890000000000000         -1.4526715647798283     
  0.10920000000000001         -1.5178864385664599     
  0.10950000000000001         -1.5689033665852428     
  0.10979999999999999         -1.6041489050957030     
  0.11009999999999999         -1.6218896320476841     
  0.11040000000000001         -1.6208151988382486     
  0.11070000000000001         -1.5999157834282201     
  0.11100000000000000         -1.5578951042696392     
  0.11130000000000000         -1.4941895395030635     
  0.11160000000000002         -1.4081422460755628     
  0.11190000000000001         -1.2995692840765365     
  0.11220000000000001         -1.1690806471089630     
  0.11250000000000000         -1.0173987438122905     
  0.11280000000000000        -0.84674480054639278     
  0.11309999999999999        -0.65979297979651241     
  0.11340000000000001        -0.46007756895482166     
  0.11369999999999998        -0.25238803942875121     
  0.11400000000000000         -4.1682656071751568E-002
  0.11430000000000000         0.16646583725084091     
  0.11460000000000002         0.36595825379234015     
  0.11489999999999999         0.55164475900296273     
  0.11520000000000001         0.71794309502304299     
  0.11550000000000001         0.86065801823541288     
  0.11580000000000000         0.97640857405873149     
  0.11609999999999999          1.0625994572028732     
  0.11640000000000002          1.1186581048457098     
  0.11670000000000001          1.1447201176977155     
  0.11700000000000001          1.1425927086182772     
  0.11730000000000000          1.1156721499598719     
  0.11760000000000000          1.0678711295660077     
  0.11789999999999999          1.0050094448200220     
  0.11820000000000001         0.93332639110269222     
  0.11850000000000001         0.85970976242322217     
  0.11880000000000000         0.79176022395914980     
  0.11910000000000000         0.73628784546130555     
  0.11940000000000002         0.70020211678926525     
  0.11970000000000001         0.68924016413741718     
  0.12000000000000001         0.70715112010042602     
  0.12030000000000000         0.75641125954166788     
  0.12060000000000000         0.83665842501085563     
  0.12089999999999999         0.94489700602488114     
  0.12119999999999999          1.0752790118647746     
  0.12150000000000001          1.2192002734887903     
  0.12180000000000001          1.3657019399222141     
  0.12210000000000000          1.5012593592510233     
  0.12239999999999999          1.6113292359609133     
  0.12270000000000002          1.6805847119227433     
  0.12300000000000001          1.6938568813889539     
  0.12330000000000001          1.6378401988279792     
  0.12360000000000000          1.5011347989772301     
  0.12390000000000000          1.2762593446898387     
  0.12419999999999999         0.95981595395728925     
  0.12450000000000001         0.55344977468033163     
  0.12480000000000001          6.4713512558318462E-002
  0.12509999999999999        -0.49366602567849288     
  0.12540000000000001         -1.1030527546312308     
  0.12570000000000003         -1.7400962485155513     
  0.12600000000000000         -2.3775621010867996     
  0.12630000000000002         -2.9851401578521228     
  0.12659999999999999         -3.5320380620111189     
  0.12690000000000001         -3.9875842163702573     
  0.12719999999999998         -4.3239990409712723     
  0.12750000000000000         -4.5180884602322866     
  0.12780000000000002         -4.5524579312183491     
  0.12809999999999999         -4.4175297022682667     
  0.12840000000000001         -4.1119199918058298     
  0.12869999999999998         -3.6429687546001106     
  0.12900000000000000         -3.0268956067185631     
  0.12930000000000003         -2.2872703713381144     
  0.12959999999999999         -1.4544817620916592     
  0.12990000000000002        -0.56359239109993509     
  0.13019999999999998         0.34756252996075954     
  0.13050000000000000          1.2405313582191115     
  0.13080000000000003          2.0783050619809287     
  0.13109999999999999          2.8272522260375865     
  0.13140000000000002          3.4588397485817941     
  0.13169999999999998          3.9510220165018928     
  0.13200000000000001          4.2886406145653888     
  0.13229999999999997          4.4642454388700665     
  0.13260000000000000          4.4781600233100329     
  0.13290000000000002          4.3373295014978392     
  0.13319999999999999          4.0553833102753094     
  0.13350000000000001          3.6515150994728378     
  0.13380000000000003          3.1485319913863274     
  0.13410000000000000          2.5727677953382666     
  0.13440000000000002          1.9513978197967845     
  0.13469999999999999          1.3122760312748170     
  0.13500000000000001         0.68208486688760939     
  0.13529999999999998          8.4276661829905272E-002
  0.13560000000000000        -0.45978092207724808     
  0.13590000000000002        -0.93376842298756058     
  0.13619999999999999         -1.3257813849007527     
  0.13650000000000001         -1.6283773633878500     
  0.13680000000000003         -1.8396318434631729     
  0.13710000000000000         -1.9612621546483349     
  0.13740000000000002         -1.9994129400020511     
  0.13769999999999999         -1.9632059755223727     
  0.13800000000000001         -1.8637024535273172     
  0.13829999999999998         -1.7143520429849364     
  0.13860000000000000         -1.5285818831300026     
  0.13890000000000002         -1.3207556205931827     
  0.13919999999999999         -1.1045565749108375     
  0.13950000000000001        -0.89317829423942663     
  0.13979999999999998        -0.69936752978606498     
  0.14010000000000000        -0.53388667559461922     
  0.14040000000000002        -0.40714642759169828     
  0.14069999999999999        -0.32688174048069318     
  0.14100000000000001        -0.29879686809028122     
  0.14130000000000004        -0.32602206723156829     
  0.14160000000000000        -0.40684564191406614     
  0.14189999999999997        -0.53660674646234985     
  0.14219999999999999        -0.70460965545567267     
  0.14250000000000002        -0.89568266163923216     
  0.14279999999999998         -1.0900789838548111     
  0.14310000000000000         -1.2629490285586442     
  0.14339999999999997         -1.3885041891482843     
  0.14369999999999999         -1.4389921853045546     
  0.14400000000000002         -1.3891288452685890     
  0.14429999999999998         -1.2187118889767645     
  0.14460000000000001        -0.91335990829323066     
  0.14490000000000003        -0.47025103959930142     
  0.14520000000000000         0.10348008515512250     
  0.14550000000000002         0.78786660966431965     
  0.14579999999999999          1.5502449648530749     
  0.14610000000000001          2.3487678154705716     
  0.14640000000000003          3.1320000478909513     
  0.14670000000000000          3.8452838435561811     
  0.14699999999999996          4.4340401811907082     
  0.14729999999999999          4.8477994232416854     
  0.14760000000000001          5.0468632055216034     
  0.14789999999999998          5.0040150934352292     
  0.14820000000000000          4.7094546525208116     