  -1.4999999999999999E-002     0.0000000000000000     
  -1.4700000000000000E-002     0.0000000000000000     
  -1.4400000000000000E-002     0.0000000000000000     
  -1.4100000000000000E-002     0.0000000000000000     
  -1.3800000000000000E-002     0.0000000000000000     
  -1.3500000000000000E-002     0.0000000000000000     
  -1.3200000000000000E-002     0.0000000000000000     
  -1.2899999999999998E-002     0.0000000000000000     
  -1.2600000000000000E-002     0.0000000000000000     
  -1.2299999999999998E-002     0.0000000000000000     
  -1.2000000000000000E-002     0.0000000000000000     
  -1.1699999999999999E-002     0.0000000000000000     
  -1.1399999999999999E-002     0.0000000000000000     
  -1.1099999999999999E-002     0.0000000000000000     
  -1.0799999999999999E-002     0.0000000000000000     
  -1.0499999999999999E-002     0.0000000000000000     
  -1.0199999999999999E-002     0.0000000000000000     
  -9.8999999999999991E-003     0.0000000000000000     
  -9.5999999999999992E-003     0.0000000000000000     
  -9.2999999999999992E-003     0.0000000000000000     
  -8.9999999999999993E-003     0.0000000000000000     
  -8.6999999999999994E-003     0.0000000000000000     
  -8.3999999999999995E-003     0.0000000000000000     
  -8.0999999999999996E-003     0.0000000000000000     
  -7.7999999999999988E-003     0.0000000000000000     
  -7.4999999999999997E-003     0.0000000000000000     
  -7.1999999999999998E-003     0.0000000000000000     
  -6.8999999999999981E-003     0.0000000000000000     
  -6.5999999999999982E-003     0.0000000000000000     
  -6.3000000000000000E-003     0.0000000000000000     
  -6.0000000000000001E-003     0.0000000000000000     
  -5.6999999999999985E-003     0.0000000000000000     
  -5.3999999999999986E-003     0.0000000000000000     
  -5.1000000000000004E-003     0.0000000000000000     
  -4.7999999999999987E-003     0.0000000000000000     
  -4.5000000000000005E-003     0.0000000000000000     
  -4.1999999999999989E-003     0.0000000000000000     
  -3.8999999999999990E-003     0.0000000000000000     
  -3.5999999999999990E-003     0.0000000000000000     
  -3.2999999999999991E-003     0.0000000000000000     
  -2.9999999999999992E-003     0.0000000000000000     
  -2.6999999999999993E-003     0.0000000000000000     
  -2.3999999999999994E-003     0.0000000000000000     
  -2.0999999999999977E-003     0.0000000000000000     
  -1.7999999999999995E-003     0.0000000000000000     
  -1.4999999999999979E-003     0.0000000000000000     
  -1.1999999999999997E-003     0.0000000000000000     
  -8.9999999999999976E-004     0.0000000000000000     
  -5.9999999999999810E-004     0.0000000000000000     
  -2.9999999999999992E-004     0.0000000000000000     
   0.0000000000000000          0.0000000000000000     
   3.0000000000000165E-004     0.0000000000000000     
   5.9999999999999984E-004     0.0000000000000000     
   9.0000000000000149E-004     0.0000000000000000     
   1.2000000000000031E-003     0.0000000000000000     
   1.5000000000000013E-003     0.0000000000000000     
   1.8000000000000030E-003     0.0000000000000000     
   2.1000000000000012E-003     0.0000000000000000     
   2.3999999999999994E-003     0.0000000000000000     
   2.7000000000000010E-003     0.0000000000000000     
   2.9999999999999992E-003     0.0000000000000000     
   3.3000000000000008E-003     0.0000000000000000     
   3.6000000000000025E-003     0.0000000000000000     
   3.9000000000000007E-003     0.0000000000000000     
   4.2000000000000023E-003     0.0000000000000000     
   4.5000000000000005E-003     0.0000000000000000     
   4.7999999999999987E-003     0.0000000000000000     
   5.1000000000000004E-003     0.0000000000000000     
   5.4000000000000020E-003     0.0000000000000000     
   5.7000000000000037E-003     0.0000000000000000     
   5.9999999999999984E-003     0.0000000000000000     
   6.3000000000000000E-003     0.0000000000000000     
   6.6000000000000017E-003     0.0000000000000000     
   6.9000000000000034E-003     0.0000000000000000     
   7.2000000000000015E-003     0.0000000000000000     
   7.5000000000000032E-003     0.0000000000000000     
   7.8000000000000014E-003     0.0000000000000000     
   8.0999999999999996E-003     0.0000000000000000     
   8.4000000000000012E-003     0.0000000000000000     
   8.7000000000000029E-003     0.0000000000000000     
   9.0000000000000011E-003     0.0000000000000000     
   9.2999999999999992E-003     0.0000000000000000     
   9.6000000000000009E-003     0.0000000000000000     
   9.8999999999999991E-003     0.0000000000000000     
   1.0200000000000001E-002     0.0000000000000000     
   1.0500000000000002E-002     0.0000000000000000     
   1.0800000000000004E-002     0.0000000000000000     
   1.1099999999999999E-002     0.0000000000000000     
   1.1400000000000000E-002     0.0000000000000000     
   1.1700000000000002E-002     0.0000000000000000     
   1.2000000000000004E-002     0.0000000000000000     
   1.2300000000000002E-002     0.0000000000000000     
   1.2600000000000000E-002     0.0000000000000000     
   1.2900000000000002E-002     0.0000000000000000     
   1.3200000000000000E-002     0.0000000000000000     
   1.3500000000000002E-002     0.0000000000000000     
   1.3800000000000003E-002     0.0000000000000000     
   1.4100000000000001E-002     0.0000000000000000     
   1.4400000000000000E-002     0.0000000000000000     
   1.4700000000000001E-002     0.0000000000000000     
   1.4999999999999999E-002     0.0000000000000000     
   1.5300000000000001E-002     0.0000000000000000     
   1.5600000000000003E-002     0.0000000000000000     
   1.5899999999999997E-002     0.0000000000000000     
   1.6199999999999999E-002     0.0000000000000000     
   1.6500000000000001E-002     0.0000000000000000     
   1.6800000000000002E-002     0.0000000000000000     
   1.7100000000000004E-002     0.0000000000000000     
   1.7400000000000006E-002     0.0000000000000000     
   1.7700000000000000E-002     0.0000000000000000     
   1.8000000000000002E-002     0.0000000000000000     
   1.8300000000000004E-002     0.0000000000000000     
   1.8600000000000005E-002     0.0000000000000000     
   1.8900000000000000E-002     0.0000000000000000     
   1.9200000000000002E-002     0.0000000000000000     
   1.9500000000000003E-002     0.0000000000000000     
   1.9799999999999998E-002     0.0000000000000000     
   2.0100000000000000E-002     0.0000000000000000     
   2.0400000000000001E-002     0.0000000000000000     
   2.0700000000000003E-002     0.0000000000000000     
   2.0999999999999998E-002     0.0000000000000000     
   2.1299999999999999E-002     0.0000000000000000     
   2.1600000000000001E-002     0.0000000000000000     
   2.1900000000000003E-002     0.0000000000000000     
   2.2200000000000004E-002     0.0000000000000000     
   2.2500000000000006E-002     0.0000000000000000     
   2.2800000000000001E-002     0.0000000000000000     
   2.3100000000000002E-002     0.0000000000000000     
   2.3400000000000004E-002    -1.0469030361717428E-042
   2.3699999999999999E-002    -6.9924251697284055E-043
   2.4000000000000000E-002     1.9618274833068742E-040
   2.4300000000000002E-002    -5.8670259280544952E-038
   2.4599999999999997E-002    -4.8718349114703856E-037
   2.4900000000000005E-002     8.6089568608914169E-036
   2.5200000000000000E-002    -2.8883860690178049E-035
   2.5499999999999995E-002    -1.7272025001184939E-034
   2.5800000000000003E-002     8.5540962098475806E-034
   2.6099999999999998E-002    -3.6336023790118631E-033
   2.6400000000000007E-002     8.8706061342378493E-033
   2.6700000000000002E-002    -2.4217727309994196E-032
   2.6999999999999996E-002     7.0076991901515183E-032
   2.7300000000000005E-002    -2.0268901225793667E-031
   2.7600000000000000E-002     5.4118873334055238E-031
   2.7900000000000008E-002    -1.2935810013952126E-030
   2.8200000000000003E-002     2.6584572567711322E-030
   2.8499999999999998E-002    -4.1696419950659483E-030
   2.8800000000000006E-002     2.2914674721679150E-030
   2.9100000000000001E-002     1.6421018412302542E-029
   2.9400000000000003E-002    -9.0850987980869125E-029
   2.9700000000000004E-002     3.1152324844795362E-028
   3.0000000000000006E-002    -8.3990470668639273E-028
   3.0300000000000001E-002     1.8352934062793971E-027
   3.0600000000000002E-002    -3.0409325662063183E-027
   3.0900000000000004E-002     2.5202055986980867E-027
   3.1199999999999999E-002     6.0700300438119685E-027
   3.1500000000000007E-002    -3.7242531230718623E-026
   3.1800000000000002E-002     1.1360527817402427E-025
   3.2099999999999997E-002    -2.4630392321046222E-025
   3.2400000000000005E-002     3.6484520341554801E-025
   3.2700000000000000E-002    -1.6560383896402780E-025
   3.3000000000000002E-002    -1.0736213341128526E-024
   3.3300000000000003E-002     4.4090170138636706E-024
   3.3599999999999998E-002    -1.0113291424611970E-023
   3.3900000000000000E-002     1.4511423857991723E-023
   3.4200000000000001E-002    -5.0813062366244028E-024
   3.4500000000000003E-002    -4.0782140675583013E-023
   3.4799999999999998E-002     1.3903217195162073E-022
   3.5099999999999999E-002    -2.4710727408892601E-022
   3.5400000000000001E-002     1.9125451011960239E-022
   3.5699999999999996E-002     3.1316514960732923E-022
   3.6000000000000004E-002    -1.3036229844888328E-021
   3.6299999999999999E-002     1.7233612802133884E-021
   3.6600000000000008E-002     1.2083166063322736E-021
   3.6900000000000002E-002    -9.7537349732329544E-021
   3.7199999999999997E-002     1.6343895586911837E-020
   3.7500000000000006E-002     1.2716634011030657E-020
   3.7800000000000000E-002    -1.4209306550581530E-019
   3.8100000000000009E-002     4.0957624557349602E-019
   3.8400000000000004E-002    -6.3353716009463096E-019
   3.8699999999999998E-002     6.1165365276097254E-020
   3.9000000000000007E-002     3.0079355945224519E-018
   3.9300000000000002E-002    -1.1175032941400141E-017
   3.9600000000000003E-002     2.6052209395873576E-017
   3.9900000000000005E-002    -3.9515161331513375E-017
   4.0200000000000000E-002     5.1328322635019455E-018
   4.0500000000000001E-002     2.2216980929114655E-016
   4.0800000000000003E-002    -9.1563142793667079E-016
   4.1100000000000005E-002     2.1405224459332148E-015
   4.1399999999999999E-002    -2.2840519462740957E-015
   4.1700000000000008E-002    -4.9645451180019816E-015
   4.2000000000000003E-002     3.1582788587845262E-014
   4.2299999999999997E-002    -7.9217020560506154E-014
   4.2600000000000006E-002     7.8464802143745232E-014
   4.2900000000000001E-002     2.1416387889509474E-013
   4.3200000000000002E-002    -1.1638907844160740E-012
   4.3500000000000004E-002     2.3837612048533338E-012
   4.3799999999999999E-002    -2.4897209498653636E-013
   4.4100000000000000E-002    -1.3728806669197843E-011
   4.4400000000000002E-002     4.0068114719622060E-011
   4.4700000000000004E-002    -2.3776718200946682E-011
   4.4999999999999998E-002    -1.7978260430362807E-010
   4.5300000000000000E-002     5.5715044345534485E-010
   4.5600000000000002E-002    -1.4820868156152505E-010
   4.5899999999999996E-002    -2.8871836650092417E-009
   4.6200000000000005E-002     5.9137373746354643E-009
   4.6500000000000000E-002     6.6630231192892023E-009
   4.6799999999999994E-002    -4.1472144855555186E-008
   4.7100000000000003E-002     8.5108908755781832E-009
   4.7399999999999998E-002     1.9998934973886917E-007
   4.7700000000000006E-002    -1.9416463400168047E-007
   4.8000000000000001E-002    -8.6242620637666896E-007
   4.8300000000000010E-002     2.5512034729099011E-006
   4.8600000000000004E-002     1.4236671453011560E-005
   4.8899999999999999E-002     2.9943453612019306E-005
   4.9200000000000008E-002     4.2390019697510345E-005
   4.9500000000000002E-002     5.5730133095505276E-005
   4.9800000000000011E-002     8.2314445108440636E-005
   5.0100000000000006E-002     1.2752121931790202E-004
   5.0400000000000000E-002     1.9180325263136840E-004
   5.0700000000000009E-002     2.8274459507608989E-004
   5.1000000000000004E-002     4.1589138596795420E-004
   5.1299999999999998E-002     6.1159969278278003E-004
   5.1600000000000007E-002     8.9191334819234338E-004
   5.1900000000000002E-002     1.2741473543918412E-003
   5.2200000000000010E-002     1.7777499666825711E-003
   5.2500000000000005E-002     2.4398008397291037E-003
   5.2800000000000000E-002     3.3045079900113510E-003
   5.3099999999999994E-002     4.3958644007668392E-003
   5.3400000000000003E-002     5.7175593756627133E-003
   5.3699999999999998E-002     7.2708284773306559E-003
   5.4000000000000006E-002     9.0430242144886198E-003
   5.4300000000000001E-002     1.0968996991841090E-002
   5.4599999999999996E-002     1.2915770247724560E-002
   5.4900000000000004E-002     1.4687825376894736E-002
   5.5199999999999999E-002     1.6010906478051475E-002
   5.5499999999999994E-002     1.6515378505534143E-002
   5.5800000000000002E-002     1.5741692098403679E-002
   5.6099999999999997E-002     1.3143021123757755E-002
   5.6400000000000006E-002     8.0855152742145431E-003
   5.6700000000000000E-002    -8.7157513974475860E-005
   5.6999999999999995E-002    -1.1970423913933817E-002
   5.7300000000000004E-002    -2.8044891538449159E-002
   5.7599999999999998E-002    -4.8577452882909954E-002
   5.7900000000000007E-002    -7.3477645198459812E-002
   5.8200000000000002E-002   -0.10220481629862808     
   5.8499999999999996E-002   -0.13368603015386255     
   5.8800000000000005E-002   -0.16618416281470075     
   5.9100000000000000E-002   -0.19723584552942269     
   5.9400000000000008E-002   -0.22375844713023987     
   5.9700000000000003E-002   -0.24220387304999086     
   6.0000000000000012E-002   -0.24868448578954400     
   6.0300000000000006E-002   -0.23923455008330874     
   6.0600000000000001E-002   -0.21024744700957779     
   6.0900000000000010E-002   -0.15894288247250238     
   6.1200000000000004E-002    -8.3775013427582035E-002
   6.1500000000000013E-002     1.5153661859223082E-002
   6.1800000000000008E-002    0.13575010950741462     
   6.2100000000000002E-002    0.27369593955137539     
   6.2399999999999997E-002    0.42247190226522618     
   6.2700000000000006E-002    0.57350412471718037     
   6.3000000000000000E-002    0.71663848826010657     
   6.3300000000000009E-002    0.84083910424399810     
   6.3600000000000004E-002    0.93494656290432587     
   6.3899999999999998E-002    0.98864989318177066     
   6.4199999999999993E-002    0.99352214175436271     
   6.4500000000000002E-002    0.94391509322963318     
   6.4800000000000010E-002    0.83770538055599053     
   6.5100000000000005E-002    0.67681168250748724     
   6.5400000000000000E-002    0.46727450243941604     
   6.5700000000000008E-002    0.21924542595903229     
   6.5999999999999989E-002    -5.3849864722824867E-002
   6.6299999999999998E-002   -0.33608118570847295     
   6.6600000000000006E-002   -0.61011243830851469     
   6.6900000000000001E-002   -0.85865700004382517     
   6.7199999999999996E-002    -1.0658075774332632     
   6.7500000000000004E-002    -1.2181722856326480     
   6.7800000000000013E-002    -1.3060016921169413     
   6.8099999999999994E-002    -1.3239394646965321     
   6.8400000000000002E-002    -1.2713421319772462     
   6.8700000000000011E-002    -1.1523585688930622     
   6.8999999999999992E-002   -0.97530660476198561     
   6.9300000000000000E-002   -0.75223627478817545     
   6.9600000000000009E-002   -0.49788979088617713     
   6.9900000000000004E-002   -0.22843287381850375     
   7.0199999999999999E-002     3.9398313857407316E-002
   7.0500000000000007E-002    0.28956267663082841     
   7.0800000000000016E-002    0.50771652974785453     
   7.1099999999999997E-002    0.68182334501687814     
   7.1400000000000005E-002    0.80297206664122844     
   7.1700000000000000E-002    0.86539776131138069     
   7.1999999999999995E-002    0.86689099798812830     
   7.2300000000000003E-002    0.80869673535423181     
   7.2600000000000012E-002    0.69500242125111233     
   7.2900000000000006E-002    0.53307877772568235     
   7.3200000000000001E-002    0.33249009903322096     
   7.3499999999999996E-002    0.10458354871329645     
   7.3800000000000004E-002   -0.13771114597918152     
   7.4099999999999999E-002   -0.38108457967003362     
   7.4400000000000008E-002   -0.61201422375716619     
   7.4700000000000003E-002   -0.81759999152284557     
   7.5000000000000011E-002   -0.98645998242398258     
   7.5299999999999992E-002    -1.1089282680945907     
   7.5600000000000001E-002    -1.1781199904803730     
   7.5900000000000009E-002    -1.1901892655618764     
   7.6200000000000004E-002    -1.1443534649246652     
   7.6499999999999999E-002    -1.0435413817544981     
   7.6800000000000007E-002   -0.89384190060464452     
   7.7099999999999988E-002   -0.70410329952303108     
   7.7399999999999997E-002   -0.48548678890662300     
   7.7700000000000005E-002   -0.25032357715206560     
   7.8000000000000014E-002    -1.1519355717922779E-002
   7.8299999999999995E-002    0.21878756222243556     
   7.8600000000000003E-002    0.43016831522046428     
   7.8900000000000012E-002    0.61436818748572963     
   7.9199999999999993E-002    0.76625216051648559     
   7.9500000000000001E-002    0.88383053949554236     
   7.9800000000000010E-002    0.96821210049074269     
   8.0100000000000018E-002     1.0231436068036468     
   8.0399999999999999E-002     1.0541821133880114     
   8.0700000000000008E-002     1.0680946531660571     
   8.1000000000000003E-002     1.0715260188713658     
   8.1299999999999997E-002     1.0700157621884701     
   8.1600000000000006E-002     1.0674361670520303     
   8.1900000000000014E-002     1.0652394408118377     
   8.2199999999999995E-002     1.0621155905906219     
   8.2500000000000004E-002     1.0543901367790098     
   8.2799999999999999E-002     1.0363533729059713     
   8.3100000000000007E-002     1.0010186984403939     
   8.3400000000000002E-002    0.94130789330871223     
   8.3700000000000011E-002    0.85088503513207447     
   8.4000000000000005E-002    0.72547147832166525     
   8.4300000000000000E-002    0.56368146386907414     
   8.4599999999999995E-002    0.36730375415834543     
   8.4900000000000003E-002    0.14190404746613347     
   8.5199999999999998E-002   -0.10357878498382703     
   8.5500000000000007E-002   -0.35758807544383886     
   8.5800000000000001E-002   -0.60641054419682350     
   8.6100000000000010E-002   -0.83610540609197503     
   8.6399999999999991E-002    -1.0331277572871087     
   8.6699999999999999E-002    -1.1858898401696567     
   8.7000000000000008E-002    -1.2860819514275907     
   8.7300000000000003E-002    -1.3288781327494046     
   8.7599999999999997E-002    -1.3138540046489693     
   8.7900000000000006E-002    -1.2448051892990519     
   8.8200000000000014E-002    -1.1291356876933092     
   8.8499999999999995E-002   -0.97738466713512473     
   8.8800000000000004E-002   -0.80165589247036351     
   8.9100000000000013E-002   -0.61496587262243840     
   8.9399999999999993E-002   -0.42965402773640543     
   8.9700000000000002E-002   -0.25611775372993179     
   9.0000000000000011E-002   -0.10265519870670511     
   9.0299999999999991E-002     2.5834874708620149E-002
   9.0600000000000000E-002    0.12768866772045659     
   9.0900000000000009E-002    0.20393645012816444     
   9.1200000000000017E-002    0.25844870363965200     
   9.1499999999999998E-002    0.29656591046675018     
   9.1800000000000007E-002    0.32453970025351331     
   9.2100000000000001E-002    0.34860476627006221     
   9.2399999999999996E-002    0.37379020207227126     
   9.2700000000000005E-002    0.40359020136378887     
   9.3000000000000013E-002    0.43941100299698888     
   9.3300000000000008E-002    0.48036103863587432     
   9.3600000000000003E-002    0.52344805693237129     
   9.3899999999999997E-002    0.56370688347392195     
   9.4200000000000006E-002    0.59509239180311879     
   9.4500000000000001E-002    0.61081482091615502     
   9.4800000000000009E-002    0.60434812716657738     
   9.5100000000000004E-002    0.56996906946498749     
   9.5399999999999999E-002    0.50322620341875179     
   9.5699999999999993E-002    0.40188459030400303     
   9.6000000000000002E-002    0.26570536504840458     
   9.6300000000000011E-002     9.6734984190161410E-002
   9.6600000000000005E-002   -0.10064731275144675     
   9.6900000000000000E-002   -0.32025550288627608     
   9.7200000000000009E-002   -0.55418646533190885     
   9.7499999999999989E-002   -0.79350164271405621     
   9.7799999999999998E-002    -1.0285130045269091     
   9.8100000000000007E-002    -1.2494599270212257     
   9.8400000000000015E-002    -1.4468811956596044     
   9.8699999999999996E-002    -1.6118149999598679     
   9.9000000000000005E-002    -1.7365711914806905     
   9.9300000000000013E-002    -1.8145156483057807     
   9.9599999999999994E-002    -1.8404849846579179     
   9.9900000000000003E-002    -1.8110942465751414     
  0.10020000000000001         -1.7242968413061859     
  0.10049999999999999         -1.5802047307572904     
  0.10080000000000000         -1.3805388322283529     
  0.10110000000000001         -1.1286593786987886     
  0.10140000000000000        -0.83014768802728178     
  0.10170000000000000        -0.49209332480658441     
  0.10200000000000001        -0.12323227609197016     
  0.10230000000000002         0.26593133064282415     
  0.10260000000000000         0.66413940087264245     
  0.10290000000000001          1.0588031075469888     
  0.10320000000000000          1.4371675471221366     
  0.10350000000000001          1.7866162585388603     
  0.10380000000000000          2.0947967962657250     
  0.10410000000000001          2.3509193082189110     
  0.10440000000000001          2.5458496482936295     
  0.10470000000000000          2.6726441854915395     
  0.10500000000000000          2.7272368824015105     
  0.10530000000000000          2.7082001476734066     
  0.10560000000000000          2.6173882728426778     
  0.10590000000000001          2.4597003536429889     
  0.10620000000000000          2.2425891263174402     
  0.10650000000000001          1.9759466243940196     
  0.10679999999999999          1.6713805196083382     
  0.10710000000000000          1.3417917284685863     
  0.10740000000000001          1.0004465179860134     
  0.10770000000000000         0.66021470503805690     
  0.10800000000000000         0.33325036495607591     
  0.10830000000000001          2.9888637204782749E-002
  0.10859999999999999        -0.24130759315778355     
  0.10890000000000000        -0.47392630063642671     
  0.10920000000000001        -0.66435382478292393     
  0.10950000000000001        -0.81094691316104539     
  0.10979999999999999        -0.91444744589722848     
  0.11009999999999999        -0.97749584379751209     
  0.11040000000000001         -1.0038631422525994     
  0.11070000000000001        -0.99887102456469812     
  0.11100000000000000        -0.96830683209829327     
  0.11130000000000000        -0.91795507938356713     
  0.11160000000000002        -0.85375955482805521     
  0.11190000000000001        -0.78150452969766859     
  0.11220000000000001        -0.70618671043415004     
  0.11250000000000000        -0.63257122173831459     
  0.11280000000000000        -0.56501429896493116     
  0.11309999999999999        -0.50719460962289298     
  0.11340000000000001        -0.46294975664514126     
  0.11369999999999998        -0.43552304937184910     
  0.11400000000000000        -0.42770864075856774     
  0.11430000000000000        -0.44228948396656997     
  0.11460000000000002        -0.48114433747845875     
  0.11489999999999999        -0.54516263828556477     
  0.11520000000000001        -0.63405529637925984     
  0.11550000000000001        -0.74568982725687194     
  0.11580000000000000        -0.87600448494678940     
  0.11609999999999999         -1.0184399895566871     
  0.11640000000000002         -1.1643987715221020     
  0.11670000000000001         -1.3030241040956212     
  0.11700000000000001         -1.4218216941930262     
  0.11730000000000000         -1.5077764703460668     
  0.11760000000000000         -1.5478389042814320     
  0.11789999999999999         -1.5307515086972194     
  0.11820000000000001         -1.4478521769313897     
  0.11850000000000001         -1.2945445410903416     
  0.11880000000000000         -1.0714284737603610     
  0.11910000000000000        -0.78412166372904701     
  0.11940000000000002        -0.44435338669355007     
  0.11970000000000001         -6.8937627501508586E-002
  0.12000000000000001         0.32184620721845070     
  0.12030000000000000         0.70432058819275245     
  0.12060000000000000          1.0550448102411329     
  0.12089999999999999          1.3517117970081789     
  0.12119999999999999          1.5752068286552834     
  0.12150000000000001          1.7125561093128021     
  0.12180000000000001          1.7563992425083721     
  0.12210000000000000          1.7068161622840772     
  0.12239999999999999          1.5713815299960174     
  0.12270000000000002          1.3630812773960743     
  0.12300000000000001          1.1004697064348237     
  0.12330000000000001         0.80504408171487574     
  0.12360000000000000         0.49892722724986460     
  0.12390000000000000         0.20392124048950916     
  0.12419999999999999         -6.1394077636929195E-002
  0.12450000000000001        -0.28227972869296397     
  0.12480000000000001        -0.44886520599385921     
  0.12509999999999999        -0.55670457996623557     
  0.12540000000000001        -0.60541563941025700     
  0.12570000000000003        -0.59912212501254358     
  0.12600000000000000        -0.54494048854893584     
  0.12630000000000002        -0.45107342982307452     
  0.12659999999999999        -0.32687856605225435     
  0.12690000000000001        -0.18119172682271831     
  0.12719999999999998         -2.1968897565517946E-002
  0.12750000000000000         0.14375107221673616     
  0.12780000000000002         0.31033520992347030     
  0.12809999999999999         0.47237930525788929     
  0.12840000000000001         0.62493645519845331     
  0.12869999999999998         0.76313387271494260     
  0.12900000000000000         0.88098453456421733     
  0.12930000000000003         0.97244436808712376     
  0.12959999999999999          1.0311051333254517     
  0.12990000000000002          1.0504978331474479     
  0.13019999999999998          1.0253718462156904     
  0.13050000000000000         0.95212824427378084     
  0.13080000000000003         0.82959601482811740     
  0.13109999999999999         0.66014289666032777     
  0.13140000000000002         0.44961709467938449     
  0.13169999999999998         0.20736926722758914     
  0.13200000000000001         -5.3546404661484415E-002
  0.13229999999999997        -0.31788041232370967     
  0.13260000000000000        -0.56922804378936676     
  0.13290000000000002        -0.79069891435411033     
  0.13319999999999999        -0.96716671781932062     
  0.13350000000000001         -1.0863677090472086     
  0.13380000000000003         -1.1395854858517889     
  0.13410000000000000         -1.1235791938329180     
  0.13440000000000002         -1.0396041692118450     
  0.13469999999999999        -0.89409119066133380     
  0.13500000000000001        -0.69881886531678905     
  0.13529999999999998        -0.46840699036967848     
  0.13560000000000000        -0.22062873606604516     
  0.13590000000000002          2.5373105551131092E-002
  0.13619999999999999         0.25108037417305634     
  0.13650000000000001         0.43849484941399391     
  0.13680000000000003         0.57264232932980663     
  0.13710000000000000         0.64193195072213727     
  0.13740000000000002         0.63795523024621925     
  0.13769999999999999         0.55776790811746979     
  0.13800000000000001         0.40213883069768491     
  0.13829999999999998         0.17616734968207537     
  0.13860000000000000        -0.11025452518755796     
  0.13890000000000002        -0.44419135573399632     
  0.13919999999999999        -0.80889564877849063     
  0.13950000000000001         -1.1849204715593662     
  0.13979999999999998         -1.5510388750619482     
  0.14010000000000000         -1.8840144255283455     
  0.14040000000000002         -2.1606768237564817     
  0.14069999999999999         -2.3581947546906488     
  0.14100000000000001         -2.4552654232781337     
  0.14130000000000004         -2.4340787193163136     
  0.14160000000000000         -2.2808560745427600     
  0.14189999999999997         -1.9879219819013345     
  0.14219999999999999         -1.5544612813972876     
  0.14250000000000002        -0.98774287456874155     
  0.14279999999999998        -0.30361339714358143     
  0.14310000000000000         0.47358166829860537     
  0.14339999999999997          1.3113388821997440     
  0.14369999999999999          2.1705575016804239     
  0.14400000000000002          3.0070436025578959     
  0.14429999999999998          3.7745892831226691     
  0.14460000000000001          4.4271439782510216     
  0.14490000000000003          4.9222190475194800     
  0.14520000000000000          5.2241416481296685     
  0.14550000000000002          5.3062741979709314     
  0.14579999999999999          5.1536283236970339     
  0.14610000000000001          4.7643411001486093     
  0.14640000000000003          4.1497932345450232     
  0.14670000000000000          3.3350028366928681     
  0.14699999999999996          2.3567671695538528     
  0.14729999999999999          1.2615882910158305     
  0.14760000000000001         0.10340082019081620     
  0.14789999999999998         -1.0606077721900444     
  0.14820000000000000         -2.1726345423798201     