  -1.4999999999999999E-002     0.0000000000000000     
  -1.4700000000000000E-002     0.0000000000000000     
  -1.4400000000000000E-002     0.0000000000000000     
  -1.4100000000000000E-002     0.0000000000000000     
  -1.3800000000000000E-002     0.0000000000000000     
  -1.3500000000000000E-002     0.0000000000000000     
  -1.3200000000000000E-002     0.0000000000000000     
  -1.2899999999999998E-002     0.0000000000000000     
  -1.2600000000000000E-002     0.0000000000000000     
  -1.2299999999999998E-002     0.0000000000000000     
  -1.2000000000000000E-002     0.0000000000000000     
  -1.1699999999999999E-002     0.0000000000000000     
  -1.1399999999999999E-002     0.0000000000000000     
  -1.1099999999999999E-002     0.0000000000000000     
  -1.0799999999999999E-002     0.0000000000000000     
  -1.0499999999999999E-002     0.0000000000000000     
  -1.0199999999999999E-002     0.0000000000000000     
  -9.8999999999999991E-003     0.0000000000000000     
  -9.5999999999999992E-003     0.0000000000000000     
  -9.2999999999999992E-003     0.0000000000000000     
  -8.9999999999999993E-003     0.0000000000000000     
  -8.6999999999999994E-003     0.0000000000000000     
  -8.3999999999999995E-003     0.0000000000000000     
  -8.0999999999999996E-003     0.0000000000000000     
  -7.7999999999999988E-003     0.0000000000000000     
  -7.4999999999999997E-003     0.0000000000000000     
  -7.1999999999999998E-003     0.0000000000000000     
  -6.8999999999999981E-003     0.0000000000000000     
  -6.5999999999999982E-003     0.0000000000000000     
  -6.3000000000000000E-003     0.0000000000000000     
  -6.0000000000000001E-003     0.0000000000000000     
  -5.6999999999999985E-003     0.0000000000000000     
  -5.3999999999999986E-003     0.0000000000000000     
  -5.1000000000000004E-003     0.0000000000000000     
  -4.7999999999999987E-003     0.0000000000000000     
  -4.5000000000000005E-003     0.0000000000000000     
  -4.1999999999999989E-003     0.0000000000000000     
  -3.8999999999999990E-003     0.0000000000000000     
  -3.5999999999999990E-003     0.0000000000000000     
  -3.2999999999999991E-003     0.0000000000000000     
  -2.9999999999999992E-003     0.0000000000000000     
  -2.6999999999999993E-003     0.0000000000000000     
  -2.3999999999999994E-003     0.0000000000000000     
  -2.0999999999999977E-003     0.0000000000000000     
  -1.7999999999999995E-003     0.0000000000000000     
  -1.4999999999999979E-003     0.0000000000000000     
  -1.1999999999999997E-003     0.0000000000000000     
  -8.9999999999999976E-004     0.0000000000000000     
  -5.9999999999999810E-004     0.0000000000000000     
  -2.9999999999999992E-004     0.0000000000000000     
   0.0000000000000000          0.0000000000000000     
   3.0000000000000165E-004     0.0000000000000000     
   5.9999999999999984E-004     0.0000000000000000     
   9.0000000000000149E-004     0.0000000000000000     
   1.2000000000000031E-003     0.0000000000000000     
   1.5000000000000013E-003     0.0000000000000000     
   1.8000000000000030E-003     0.0000000000000000     
   2.1000000000000012E-003     0.0000000000000000     
   2.3999999999999994E-003     0.0000000000000000     
   2.7000000000000010E-003     0.0000000000000000     
   2.9999999999999992E-003     0.0000000000000000     
   3.3000000000000008E-003     0.0000000000000000     
   3.6000000000000025E-003     0.0000000000000000     
   3.9000000000000007E-003     0.0000000000000000     
   4.2000000000000023E-003     0.0000000000000000     
   4.5000000000000005E-003     0.0000000000000000     
   4.7999999999999987E-003     0.0000000000000000     
   5.1000000000000004E-003     0.0000000000000000     
   5.4000000000000020E-003     0.0000000000000000     
   5.7000000000000037E-003     0.0000000000000000     
   5.9999999999999984E-003     0.0000000000000000     
   6.3000000000000000E-003     0.0000000000000000     
   6.6000000000000017E-003     0.0000000000000000     
   6.9000000000000034E-003     0.0000000000000000     
   7.2000000000000015E-003     0.0000000000000000     
   7.5000000000000032E-003     0.0000000000000000     
   7.8000000000000014E-003     0.0000000000000000     
   8.0999999999999996E-003     0.0000000000000000     
   8.4000000000000012E-003     0.0000000000000000     
   8.7000000000000029E-003     0.0000000000000000     
   9.0000000000000011E-003     0.0000000000000000     
   9.2999999999999992E-003     0.0000000000000000     
   9.6000000000000009E-003     0.0000000000000000     
   9.8999999999999991E-003     0.0000000000000000     
   1.0200000000000001E-002     0.0000000000000000     
   1.0500000000000002E-002     0.0000000000000000     
   1.0800000000000004E-002     0.0000000000000000     
   1.1099999999999999E-002     0.0000000000000000     
   1.1400000000000000E-002     0.0000000000000000     
   1.1700000000000002E-002     0.0000000000000000     
   1.2000000000000004E-002     0.0000000000000000     
   1.2300000000000002E-002     0.0000000000000000     
   1.2600000000000000E-002     0.0000000000000000     
   1.2900000000000002E-002     0.0000000000000000     
   1.3200000000000000E-002     0.0000000000000000     
   1.3500000000000002E-002     0.0000000000000000     
   1.3800000000000003E-002     0.0000000000000000     
   1.4100000000000001E-002     0.0000000000000000     
   1.4400000000000000E-002     0.0000000000000000     
   1.4700000000000001E-002     0.0000000000000000     
   1.4999999999999999E-002     0.0000000000000000     
   1.5300000000000001E-002     0.0000000000000000     
   1.5600000000000003E-002     0.0000000000000000     
   1.5899999999999997E-002     0.0000000000000000     
   1.6199999999999999E-002     0.0000000000000000     
   1.6500000000000001E-002     0.0000000000000000     
   1.6800000000000002E-002     0.0000000000000000     
   1.7100000000000004E-002     0.0000000000000000     
   1.7400000000000006E-002     0.0000000000000000     
   1.7700000000000000E-002     0.0000000000000000     
   1.8000000000000002E-002     0.0000000000000000     
   1.8300000000000004E-002     0.0000000000000000     
   1.8600000000000005E-002     0.0000000000000000     
   1.8900000000000000E-002     0.0000000000000000     
   1.9200000000000002E-002     0.0000000000000000     
   1.9500000000000003E-002     0.0000000000000000     
   1.9799999999999998E-002     0.0000000000000000     
   2.0100000000000000E-002     0.0000000000000000     
   2.0400000000000001E-002     0.0000000000000000     
   2.0700000000000003E-002     2.1777908948430705E-045
   2.0999999999999998E-002     3.0163935694278529E-044
   2.1299999999999999E-002     3.3059638323839347E-036
   2.1600000000000001E-002     1.3014217459739313E-035
   2.1900000000000003E-002    -3.3150235304876154E-035
   2.2200000000000004E-002    -6.4235356650747442E-035
   2.2500000000000006E-002     2.5090829998907685E-034
   2.2800000000000001E-002    -2.2452114133733445E-034
   2.3100000000000002E-002     7.9425622799560319E-034
   2.3400000000000004E-002    -1.7981447588558681E-034
   2.3699999999999999E-002    -4.0920691014334357E-033
   2.4000000000000000E-002     9.4876330729830558E-033
   2.4300000000000002E-002    -1.3274171610963251E-032
   2.4599999999999997E-002     1.8942501587825730E-032
   2.4900000000000005E-002    -3.6326584752283662E-032
   2.5200000000000000E-002     4.3414462214816234E-032
   2.5499999999999995E-002     1.4732260709236263E-031
   2.5800000000000003E-002    -1.2141139379231503E-030
   2.6099999999999998E-002     5.1060115461346276E-030
   2.6400000000000007E-002    -1.6873785854817783E-029
   2.6700000000000002E-002     4.8328093688798174E-029
   2.6999999999999996E-002    -1.2260319791786919E-028
   2.7300000000000005E-002     2.7087400167611211E-028
   2.7600000000000000E-002    -4.8968896432198049E-028
   2.7900000000000008E-002     5.7638604296185090E-028
   2.8200000000000003E-002     3.2258755062563841E-028
   2.8499999999999998E-002    -4.6627320642267247E-027
   2.8800000000000006E-002     1.7879147554430799E-026
   2.9100000000000001E-002    -4.8719662771997411E-026
   2.9400000000000003E-002     1.0320965327598921E-025
   2.9700000000000004E-002    -1.5982437664789134E-025
   3.0000000000000006E-002     1.0732889076918940E-025
   3.0300000000000001E-002     3.5866132534124218E-025
   3.0600000000000002E-002    -1.7999393871783227E-024
   3.0900000000000004E-002     4.7544690503960278E-024
   3.1199999999999999E-002    -8.4416424193613762E-024
   3.1500000000000007E-002     7.6806082850434862E-024
   3.1800000000000002E-002     1.1287815439264360E-023
   3.2099999999999997E-002    -6.9831447736177295E-023
   3.2400000000000005E-002     1.7259055073769648E-022
   3.2700000000000000E-002    -2.2692090328704270E-022
   3.3000000000000002E-002    -1.1775072926691561E-022
   3.3300000000000003E-002     1.6137273484049275E-021
   3.3599999999999998E-002    -5.0038075838433782E-021
   3.3900000000000000E-002     8.5046128037480797E-021
   3.4200000000000001E-002    -5.7361632186532553E-022
   3.4500000000000003E-002    -5.1909861402053253E-020
   3.4799999999999998E-002     2.0238136052379786E-019
   3.5099999999999999E-002    -4.4455295473264258E-019
   3.5400000000000001E-002     4.2095608016690801E-019
   3.5699999999999996E-002     1.1590103739225977E-018
   3.6000000000000004E-002    -6.8614993896041104E-018
   3.6299999999999999E-002     1.8242319182359927E-017
   3.6600000000000008E-002    -2.5686205577710658E-017
   3.6900000000000002E-002    -1.3630593772294054E-017
   3.7199999999999997E-002     1.9254338351437405E-016
   3.7500000000000006E-002    -5.8464834442801949E-016
   3.7800000000000000E-002     9.1869342030660471E-016
   3.8100000000000009E-002     9.8399120261848589E-017
   3.8400000000000004E-002    -5.1410456341364058E-015
   3.8699999999999998E-002     1.5669739101830177E-014
   3.9000000000000007E-002    -2.2145017803300812E-014
   3.9300000000000002E-002    -1.0834230147931812E-014
   3.9600000000000003E-002     1.3634891797544116E-013
   3.9900000000000005E-002    -3.3101883693742224E-013
   4.0200000000000000E-002     2.9310146445330272E-013
   4.0500000000000001E-002     6.3705058212279836E-013
   4.0800000000000003E-002    -2.8379631022133911E-012
   4.1100000000000005E-002     4.6850940349516206E-012
   4.1399999999999999E-002    -9.9191127178838210E-013
   4.1700000000000008E-002    -1.5315753220992632E-011
   4.2000000000000003E-002     4.5502661007871679E-011
   4.2299999999999997E-002    -6.5238662008464606E-011
   4.2600000000000006E-002    -2.6260641841570385E-011
   4.2900000000000001E-002     4.4299208517315818E-010
   4.3200000000000002E-002    -1.1039336546322094E-009
   4.3500000000000004E-002     1.3195960390099370E-010
   4.3799999999999999E-002     6.3584604280776435E-009
   4.4100000000000000E-002    -1.3122701892489407E-008
   4.4400000000000002E-002    -1.8902524728810019E-008
   4.4700000000000004E-002     8.6054840772212595E-008
   4.4999999999999998E-002    -5.1242735110591498E-010
   4.5300000000000000E-002    -4.2566700463431180E-007
   4.5600000000000002E-002     1.0802483450891258E-006
   4.5899999999999996E-002     8.7764113714570033E-006
   4.6200000000000005E-002     2.3583057176130923E-005
   4.6500000000000000E-002     4.0429966209126707E-005
   4.6799999999999994E-002     5.4169573166555561E-005
   4.7100000000000003E-002     6.8111171171137932E-005
   4.7399999999999998E-002     9.5396533749702306E-005
   4.7700000000000006E-002     1.4995231674986420E-004
   4.8000000000000001E-002     2.3783345975700180E-004
   4.8300000000000010E-002     3.6350319053083915E-004
   4.8600000000000004E-002     5.4118627309345348E-004
   4.8899999999999999E-002     7.9233679875743534E-004
   4.9200000000000008E-002     1.1396883479185764E-003
   4.9500000000000002E-002     1.6113847343169011E-003
   4.9800000000000011E-002     2.2442544131621336E-003
   5.0100000000000006E-002     3.0804531146774081E-003
   5.0400000000000000E-002     4.1622422756510099E-003
   5.0700000000000009E-002     5.5257357935618034E-003
   5.1000000000000004E-002     7.2016423978349554E-003
   5.1299999999999998E-002     9.2201662691020463E-003
   5.1600000000000007E-002     1.1596457226176800E-002
   5.1900000000000002E-002     1.4306132772526743E-002
   5.2200000000000010E-002     1.7280057098784805E-002
   5.2500000000000005E-002     2.0407663579960919E-002
   5.2800000000000000E-002     2.3526713020788979E-002
   5.3099999999999994E-002     2.6405812726338865E-002
   5.3400000000000003E-002     2.8754704835359624E-002
   5.3699999999999998E-002     3.0237258270384818E-002
   5.4000000000000006E-002     3.0477473895962382E-002
   5.4300000000000001E-002     2.9080923568199388E-002
   5.4599999999999996E-002     2.5686768247100308E-002
   5.4900000000000004E-002     2.0014486164262619E-002
   5.5199999999999999E-002     1.1899931752815351E-002
   5.5499999999999994E-002     1.3535753493397419E-003
   5.5800000000000002E-002    -1.1408734179946286E-002
   5.6099999999999997E-002    -2.5960475131742555E-002
   5.6400000000000006E-002    -4.1652895010679043E-002
   5.6700000000000000E-002    -5.7651395549746992E-002
   5.6999999999999995E-002    -7.3011570909617463E-002
   5.7300000000000004E-002    -8.6786619932931769E-002
   5.7599999999999998E-002    -9.8181468855105009E-002
   5.7900000000000007E-002   -0.10666406432012891     
   5.8200000000000002E-002   -0.11207922573253470     
   5.8499999999999996E-002   -0.11476253484581880     
   5.8800000000000005E-002   -0.11560775604944924     
   5.9100000000000000E-002   -0.11601540495837183     
   5.9400000000000008E-002   -0.11781772109820565     
   5.9700000000000003E-002   -0.12303758198956917     
   6.0000000000000012E-002   -0.13359449575572380     
   6.0300000000000006E-002   -0.15097555366330997     
   6.0600000000000001E-002   -0.17594337484223407     
   6.0900000000000010E-002   -0.20816085026522876     
   6.1200000000000004E-002   -0.24600823848334585     
   6.1500000000000013E-002   -0.28647666705693248     
   6.1800000000000008E-002   -0.32517525528841756     
   6.2100000000000002E-002   -0.35664916462706520     
   6.2399999999999997E-002   -0.37480912467948901     
   6.2700000000000006E-002   -0.37348828962352892     
   6.3000000000000000E-002   -0.34716193452440813     
   6.3300000000000009E-002   -0.29161049738087302     
   6.3600000000000004E-002   -0.20458327688888547     
   6.3899999999999998E-002    -8.6386000173539895E-002
   6.4199999999999993E-002     5.9881153598860808E-002
   6.4500000000000002E-002    0.22832242817629578     
   6.4800000000000010E-002    0.41031761335053674     
   6.5100000000000005E-002    0.59525202330489868     
   6.5400000000000000E-002    0.77099894376210354     
   6.5700000000000008E-002    0.92518537423405067     
   6.5999999999999989E-002     1.0458084291371210     
   6.6299999999999998E-002     1.1226052018144324     
   6.6600000000000006E-002     1.1476571554616986     
   6.6900000000000001E-002     1.1162283433733866     
   6.7199999999999996E-002     1.0271716145025480     
   6.7500000000000004E-002    0.88319909940869068     
   6.7800000000000013E-002    0.69057345807984394     
   6.8099999999999994E-002    0.45899084643354432     
   6.8400000000000002E-002    0.20063068383310284     
   6.8700000000000011E-002    -7.0336286087328212E-002
   6.8999999999999992E-002   -0.33888923830914469     
   6.9300000000000000E-002   -0.58992093594989514     
   6.9600000000000009E-002   -0.80934417135284320     
   6.9900000000000004E-002   -0.98484855870894050     
   7.0199999999999999E-002    -1.1067498929410611     
   7.0500000000000007E-002    -1.1684032693266020     
   7.0800000000000016E-002    -1.1668721458294817     
   7.1099999999999997E-002    -1.1029406810800033     
   7.1400000000000005E-002   -0.98122632765969409     
   7.1700000000000000E-002   -0.80981725701829732     
   7.1999999999999995E-002   -0.60004198759064331     
   7.2300000000000003E-002   -0.36558470267022353     
   7.2600000000000012E-002   -0.12188747566806828     
   7.2900000000000006E-002    0.11503202544894141     
   7.3200000000000001E-002    0.32953155252075556     
   7.3499999999999996E-002    0.50755197172463029     
   7.3800000000000004E-002    0.63740182441868676     
   7.4099999999999999E-002    0.71098828996381236     
   7.4400000000000008E-002    0.72418505793486632     
   7.4700000000000003E-002    0.67748637009923063     
   7.5000000000000011E-002    0.57577277387697867     
   7.5299999999999992E-002    0.42823411344778439     
   7.5600000000000001E-002    0.24758100480861964     
   7.5900000000000009E-002     4.9244367786973567E-002
   7.6200000000000004E-002   -0.15014449996361731     
   7.6499999999999999E-002   -0.33364228518398620     
   7.6800000000000007E-002   -0.48581180976817034     
   7.7099999999999988E-002   -0.59351030922133086     
   7.7399999999999997E-002   -0.64731697165192315     
   7.7700000000000005E-002   -0.64200333734207216     
   7.8000000000000014E-002   -0.57716260490538451     
   7.8299999999999995E-002   -0.45682619421910614     
   7.8600000000000003E-002   -0.28947566757363702     
   7.8900000000000012E-002    -8.6904638476234558E-002
   7.9199999999999993E-002    0.13668236117480725     
   7.9500000000000001E-002    0.36588977973145209     
   7.9800000000000010E-002    0.58518771657760815     
   8.0100000000000018E-002    0.78064802709854064     
   8.0399999999999999E-002    0.94047787317971820     
   8.0700000000000008E-002     1.0561825802735674     
   8.1000000000000003E-002     1.1228149634106666     
   8.1299999999999997E-002     1.1393730095685091     
   8.1600000000000006E-002     1.1081767702437217     
   8.1900000000000014E-002     1.0350915813352615     
   8.2199999999999995E-002    0.92819363378763264     
   8.2500000000000004E-002    0.79716152976471844     
   8.2799999999999999E-002    0.65222271072391413     
   8.3100000000000007E-002    0.50349124995502093     
   8.3400000000000002E-002    0.35979131642740464     
   8.3700000000000011E-002    0.22839019093495402     
   8.4000000000000005E-002    0.11417555786937943     
   8.4300000000000000E-002     1.9771447808139435E-002
   8.4599999999999995E-002    -5.4645009701103898E-002
   8.4900000000000003E-002   -0.11118448259621951     
   8.5199999999999998E-002   -0.15363676839592363     
   8.5500000000000007E-002   -0.18724122347369371     
   8.5800000000000001E-002   -0.21799461132297582     
   8.6100000000000010E-002   -0.25198411556771738     
   8.6399999999999991E-002   -0.29480120280915750     
   8.6699999999999999E-002   -0.35097908895683744     
   8.7000000000000008E-002   -0.42355442162384649     
   8.7300000000000003E-002   -0.51352396886769291     
   8.7599999999999997E-002   -0.61989370383990605     
   8.7900000000000006E-002   -0.73930433844599130     
   8.8200000000000014E-002   -0.86638173907856841     
   8.8499999999999995E-002   -0.99399498509229722     
   8.8800000000000004E-002    -1.1135024760922547     
   8.9100000000000013E-002    -1.2158453197790051     
   8.9399999999999993E-002    -1.2919746373773571     
   8.9700000000000002E-002    -1.3335747467833263     
   9.0000000000000011E-002    -1.3342795146735473     
   9.0299999999999991E-002    -1.2898241096395617     
   9.0600000000000000E-002    -1.1988774407688041     
   9.0900000000000009E-002    -1.0634152828073733     
   9.1200000000000017E-002   -0.88822734536487258     
   9.1499999999999998E-002   -0.68123043634253422     
   9.1800000000000007E-002   -0.45224272156245682     
   9.2100000000000001E-002   -0.21287280117630200     
   9.2399999999999996E-002     2.4849990567795553E-002
   9.2700000000000005E-002    0.24942358195686845     
   9.3000000000000013E-002    0.45085231922378649     
   9.3300000000000008E-002    0.62117935514085043     
   9.3600000000000003E-002    0.75535471612360139     
   9.3899999999999997E-002    0.85145653974860636     
   9.4200000000000006E-002    0.91050650908386765     
   9.4500000000000001E-002    0.93630745960800532     
   9.4800000000000009E-002    0.93490473240286587     
   9.5100000000000004E-002    0.91340272364274566     
   9.5399999999999999E-002    0.87972157880096380     
   9.5699999999999993E-002    0.84128130061473205     
   9.6000000000000002E-002    0.80418689433015511     
   9.6300000000000011E-002    0.77268137576571472     
   9.6600000000000005E-002    0.74900981330697725     
   9.6900000000000000E-002    0.73253759593358692     
   9.7200000000000009E-002    0.72083929169900240     
   9.7499999999999989E-002    0.70919421268306315     
   9.7799999999999998E-002    0.69159552236212185     
   9.8100000000000007E-002    0.66151162493277549     
   9.8400000000000015E-002    0.61244370702112338     
   9.8699999999999996E-002    0.53885133861255785     
   9.9000000000000005E-002    0.43680880908697817     
   9.9300000000000013E-002    0.30478708090429207     
   9.9599999999999994E-002    0.14345174437943217     
   9.9900000000000003E-002    -4.3554730592094845E-002
  0.10020000000000001        -0.25050660267689895     
  0.10049999999999999        -0.46932037936281418     
  0.10080000000000000        -0.69018381003914864     
  0.10110000000000001        -0.90283935294831597     
  0.10140000000000000         -1.0966647751242879     
  0.10170000000000000         -1.2615318171371450     
  0.10200000000000001         -1.3892024619368653     
  0.10230000000000002         -1.4727606634028809     
  0.10260000000000000         -1.5080175266000102     
  0.10290000000000001         -1.4934596895998820     
  0.10320000000000000         -1.4301996134399253     
  0.10350000000000001         -1.3218396835944304     
  0.10380000000000000         -1.1744140355548147     
  0.10410000000000001        -0.99614721602957546     
  0.10440000000000001        -0.79629248813949172     
  0.10470000000000000        -0.58511961270789470     
  0.10500000000000000        -0.37344000782194064     
  0.10530000000000000        -0.17133290809800575     
  0.10560000000000000          1.1873624769556279E-002
  0.10590000000000001         0.16810412811801054     
  0.10620000000000000         0.29179032301920083     
  0.10650000000000001         0.37914924562075897     
  0.10679999999999999         0.42903514569635132     
  0.10710000000000000         0.44282354908406668     
  0.10740000000000001         0.42452271885260945     
  0.10770000000000000         0.37985139267795293     
  0.10800000000000000         0.31648530757928861     
  0.10830000000000001         0.24306840356592085     
  0.10859999999999999         0.16823676772021171     
  0.10890000000000000         0.10070815322094383     
  0.10920000000000001          4.7558592613744982E-002
  0.10950000000000001          1.4187840195161231E-002
  0.10979999999999999          4.4615402560771672E-003
  0.11009999999999999          1.8933881430412625E-002
  0.11040000000000001          5.6775812395288262E-002
  0.11070000000000001         0.11492011582367322     
  0.11100000000000000         0.18889491833501976     
  0.11130000000000000         0.27344248295269041     
  0.11160000000000002         0.36384702457854134     
  0.11190000000000001         0.45527637974517099     
  0.11220000000000001         0.54460058932493161     
  0.11250000000000000         0.63024698475480045     
  0.11280000000000000         0.71172087709965037     
  0.11309999999999999         0.79020559701508541     
  0.11340000000000001         0.86806738915701742     
  0.11369999999999998         0.94726170242533569     
  0.11400000000000000          1.0303274560175166     
  0.11430000000000000          1.1183473082317366     
  0.11460000000000002          1.2107552528793324     
  0.11489999999999999          1.3055117378460579     
  0.11520000000000001          1.3983625411787908     
  0.11550000000000001          1.4826963154265100     
  0.11580000000000000          1.5510947859940760     
  0.11609999999999999          1.5941978779742019     
  0.11640000000000002          1.6029175527250203     
  0.11670000000000001          1.5680227199242645     
  0.11700000000000001          1.4819254709082683     
  0.11730000000000000          1.3383679144114604     
  0.11760000000000000          1.1343998598446332     
  0.11789999999999999         0.86959847231865384     
  0.11820000000000001         0.54736068061564225     
  0.11850000000000001         0.17465058742718589     
  0.11880000000000000        -0.23774576540804884     
  0.11910000000000000        -0.67574867333089306     
  0.11940000000000002         -1.1218849601774101     
  0.11970000000000001         -1.5570815873541202     
  0.12000000000000001         -1.9599889461998761     
  0.12030000000000000         -2.3098175335590176     
  0.12060000000000000         -2.5861174730609084     
  0.12089999999999999         -2.7712487710142053     
  0.12119999999999999         -2.8509783155176445     
  0.12150000000000001         -2.8167404430935772     
  0.12180000000000001         -2.6654068640216901     
  0.12210000000000000         -2.4009682289863257     
  0.12239999999999999         -2.0343545996108792     
  0.12270000000000002         -1.5833629695578757     
  0.12300000000000001         -1.0712391502438308     
  0.12330000000000001        -0.52617995343449264     
  0.12360000000000000          2.1198155114764704E-002
  0.12390000000000000         0.53973447451374590     
  0.12419999999999999          1.0002152081142826     
  0.12450000000000001          1.3764084747790883     
  0.12480000000000001          1.6490573858068056     
  0.12509999999999999          1.8049539098576133     
  0.12540000000000001          1.8393445774763160     
  0.12570000000000003          1.7556377021311833     
  0.12600000000000000          1.5651687769191824     
  0.12630000000000002          1.2851834526661066     
  0.12659999999999999         0.93924386360675582     
  0.12690000000000001         0.55351591273439205     
  0.12719999999999998         0.15588275785028954     
  0.12750000000000000        -0.22593902394596035     
  0.12780000000000002        -0.56638467248361335     
  0.12809999999999999        -0.84393035469733280     
  0.12840000000000001         -1.0405499722145470     
  0.12869999999999998         -1.1445970168145101     
  0.12900000000000000         -1.1493986296334209     
  0.12930000000000003         -1.0541824549308079     
  0.12959999999999999        -0.86378457594013824     
  0.12990000000000002        -0.58861297810220603     
  0.13019999999999998        -0.24312275707394126     
  0.13050000000000000         0.15312688152812393     
  0.13080000000000003         0.57833407831161343     
  0.13109999999999999          1.0073673089280104     
  0.13140000000000002          1.4143192209438278     
  0.13169999999999998          1.7735783543275556     
  0.13200000000000001          2.0606115566246159     
  0.13229999999999997          2.2545333610784768     
  0.13260000000000000          2.3390243741841585     
  0.13290000000000002          2.3033059308607271     
  0.13319999999999999          2.1444986509000525     
  0.13350000000000001          1.8666245366037653     
  0.13380000000000003          1.4819825302942697     
  0.13410000000000000          1.0101719505024964     
  0.13440000000000002         0.47683352321460110     
  0.13469999999999999         -8.7417392101147379E-002
  0.13500000000000001        -0.64900117810634961     
  0.13529999999999998         -1.1740214188698563     
  0.13560000000000000         -1.6300688343528742     
  0.13590000000000002         -1.9886895983542976     
  0.13619999999999999         -2.2275630830096116     
  0.13650000000000001         -2.3320691042524193     
  0.13680000000000003         -2.2956504360282590     
  0.13710000000000000         -2.1220261702197982     
  0.13740000000000002         -1.8238402402901013     
  0.13769999999999999         -1.4221634838587740     
  0.13800000000000001        -0.94648374936806601     
  0.13829999999999998        -0.43091223770043058     
  0.13860000000000000          8.5920022424075010E-002
  0.13890000000000002         0.56509074453484598     
  0.13919999999999999         0.96946514113136117     
  0.13950000000000001          1.2659728354705435     
  0.13979999999999998          1.4297740110741224     
  0.14010000000000000          1.4440880542277978     
  0.14040000000000002          1.3036452008284360     
  0.14069999999999999          1.0147777301312626     
  0.14100000000000001         0.59450157664595826     
  0.14130000000000004          7.0522037396214335E-002
  0.14160000000000000        -0.52163105138400601     
  0.14189999999999997         -1.1410465973873034     
  0.14219999999999999         -1.7448845243079396     
  0.14250000000000002         -2.2913308052541033     
  0.14279999999999998         -2.7437743627504347     
  0.14310000000000000         -3.0726388980182406     
  0.14339999999999997         -3.2588359069997854     
  0.14369999999999999         -3.2940638952610191     
  0.14400000000000002         -3.1815350779397051     
  0.14429999999999998         -2.9349270526519415     
  0.14460000000000001         -2.5774884919297016     
  0.14490000000000003         -2.1382175310135234     
  0.14520000000000000         -1.6507655202299876     
  0.14550000000000002         -1.1490122140308048     
  0.14579999999999999        -0.66530207034588962     
  0.14610000000000001        -0.22655775926040836     
  0.14640000000000003         0.14573649546842865     
  0.14670000000000000         0.43807675716331246     
  0.14699999999999996         0.64533383893366791     
  0.14729999999999999         0.76884121600528965     
  0.14760000000000001         0.81695218150942128     
  0.14789999999999998         0.80354138418166043     
  0.14820000000000000         0.74441424521728450     