  -1.4999999999999999E-002     0.0000000000000000     
  -1.4700000000000000E-002     0.0000000000000000     
  -1.4400000000000000E-002     0.0000000000000000     
  -1.4100000000000000E-002     0.0000000000000000     
  -1.3800000000000000E-002     0.0000000000000000     
  -1.3500000000000000E-002     0.0000000000000000     
  -1.3200000000000000E-002     0.0000000000000000     
  -1.2899999999999998E-002     0.0000000000000000     
  -1.2600000000000000E-002     0.0000000000000000     
  -1.2299999999999998E-002     0.0000000000000000     
  -1.2000000000000000E-002     0.0000000000000000     
  -1.1699999999999999E-002     0.0000000000000000     
  -1.1399999999999999E-002     0.0000000000000000     
  -1.1099999999999999E-002     0.0000000000000000     
  -1.0799999999999999E-002     0.0000000000000000     
  -1.0499999999999999E-002     0.0000000000000000     
  -1.0199999999999999E-002     0.0000000000000000     
  -9.8999999999999991E-003     0.0000000000000000     
  -9.5999999999999992E-003     0.0000000000000000     
  -9.2999999999999992E-003     0.0000000000000000     
  -8.9999999999999993E-003     0.0000000000000000     
  -8.6999999999999994E-003     0.0000000000000000     
  -8.3999999999999995E-003     0.0000000000000000     
  -8.0999999999999996E-003     0.0000000000000000     
  -7.7999999999999988E-003     0.0000000000000000     
  -7.4999999999999997E-003     0.0000000000000000     
  -7.1999999999999998E-003     0.0000000000000000     
  -6.8999999999999981E-003     0.0000000000000000     
  -6.5999999999999982E-003     0.0000000000000000     
  -6.3000000000000000E-003     0.0000000000000000     
  -6.0000000000000001E-003     0.0000000000000000     
  -5.6999999999999985E-003     0.0000000000000000     
  -5.3999999999999986E-003     0.0000000000000000     
  -5.1000000000000004E-003     0.0000000000000000     
  -4.7999999999999987E-003     0.0000000000000000     
  -4.5000000000000005E-003     0.0000000000000000     
  -4.1999999999999989E-003     0.0000000000000000     
  -3.8999999999999990E-003     0.0000000000000000     
  -3.5999999999999990E-003     0.0000000000000000     
  -3.2999999999999991E-003     0.0000000000000000     
  -2.9999999999999992E-003     0.0000000000000000     
  -2.6999999999999993E-003     0.0000000000000000     
  -2.3999999999999994E-003     0.0000000000000000     
  -2.0999999999999977E-003     0.0000000000000000     
  -1.7999999999999995E-003     0.0000000000000000     
  -1.4999999999999979E-003     0.0000000000000000     
  -1.1999999999999997E-003     0.0000000000000000     
  -8.9999999999999976E-004     0.0000000000000000     
  -5.9999999999999810E-004     0.0000000000000000     
  -2.9999999999999992E-004     0.0000000000000000     
   0.0000000000000000          0.0000000000000000     
   3.0000000000000165E-004     0.0000000000000000     
   5.9999999999999984E-004     0.0000000000000000     
   9.0000000000000149E-004     0.0000000000000000     
   1.2000000000000031E-003     0.0000000000000000     
   1.5000000000000013E-003     0.0000000000000000     
   1.8000000000000030E-003     0.0000000000000000     
   2.1000000000000012E-003     0.0000000000000000     
   2.3999999999999994E-003     0.0000000000000000     
   2.7000000000000010E-003     0.0000000000000000     
   2.9999999999999992E-003     0.0000000000000000     
   3.3000000000000008E-003     0.0000000000000000     
   3.6000000000000025E-003     0.0000000000000000     
   3.9000000000000007E-003     0.0000000000000000     
   4.2000000000000023E-003     0.0000000000000000     
   4.5000000000000005E-003     0.0000000000000000     
   4.7999999999999987E-003     0.0000000000000000     
   5.1000000000000004E-003     0.0000000000000000     
   5.4000000000000020E-003     0.0000000000000000     
   5.7000000000000037E-003     0.0000000000000000     
   5.9999999999999984E-003     0.0000000000000000     
   6.3000000000000000E-003     0.0000000000000000     
   6.6000000000000017E-003     0.0000000000000000     
   6.9000000000000034E-003     0.0000000000000000     
   7.2000000000000015E-003     0.0000000000000000     
   7.5000000000000032E-003     0.0000000000000000     
   7.8000000000000014E-003     0.0000000000000000     
   8.0999999999999996E-003     0.0000000000000000     
   8.4000000000000012E-003     0.0000000000000000     
   8.7000000000000029E-003     0.0000000000000000     
   9.0000000000000011E-003     0.0000000000000000     
   9.2999999999999992E-003     0.0000000000000000     
   9.6000000000000009E-003     0.0000000000000000     
   9.8999999999999991E-003     0.0000000000000000     
   1.0200000000000001E-002     0.0000000000000000     
   1.0500000000000002E-002     0.0000000000000000     
   1.0800000000000004E-002     0.0000000000000000     
   1.1099999999999999E-002     0.0000000000000000     
   1.1400000000000000E-002     0.0000000000000000     
   1.1700000000000002E-002     0.0000000000000000     
   1.2000000000000004E-002     0.0000000000000000     
   1.2300000000000002E-002     0.0000000000000000     
   1.2600000000000000E-002     0.0000000000000000     
   1.2900000000000002E-002     0.0000000000000000     
   1.3200000000000000E-002     0.0000000000000000     
   1.3500000000000002E-002     0.0000000000000000     
   1.3800000000000003E-002     0.0000000000000000     
   1.4100000000000001E-002     0.0000000000000000     
   1.4400000000000000E-002     0.0000000000000000     
   1.4700000000000001E-002     0.0000000000000000     
   1.4999999999999999E-002     0.0000000000000000     
   1.5300000000000001E-002     0.0000000000000000     
   1.5600000000000003E-002     0.0000000000000000     
   1.5899999999999997E-002     0.0000000000000000     
   1.6199999999999999E-002     0.0000000000000000     
   1.6500000000000001E-002     0.0000000000000000     
   1.6800000000000002E-002     0.0000000000000000     
   1.7100000000000004E-002     0.0000000000000000     
   1.7400000000000006E-002     0.0000000000000000     
   1.7700000000000000E-002     0.0000000000000000     
   1.8000000000000002E-002     0.0000000000000000     
   1.8300000000000004E-002     0.0000000000000000     
   1.8600000000000005E-002     0.0000000000000000     
   1.8900000000000000E-002     0.0000000000000000     
   1.9200000000000002E-002     0.0000000000000000     
   1.9500000000000003E-002     0.0000000000000000     
   1.9799999999999998E-002     0.0000000000000000     
   2.0100000000000000E-002     0.0000000000000000     
   2.0400000000000001E-002     0.0000000000000000     
   2.0700000000000003E-002     0.0000000000000000     
   2.0999999999999998E-002     0.0000000000000000     
   2.1299999999999999E-002     0.0000000000000000     
   2.1600000000000001E-002     0.0000000000000000     
   2.1900000000000003E-002     0.0000000000000000     
   2.2200000000000004E-002     0.0000000000000000     
   2.2500000000000006E-002     0.0000000000000000     
   2.2800000000000001E-002     0.0000000000000000     
   2.3100000000000002E-002     0.0000000000000000     
   2.3400000000000004E-002     0.0000000000000000     
   2.3699999999999999E-002     0.0000000000000000     
   2.4000000000000000E-002     0.0000000000000000     
   2.4300000000000002E-002     0.0000000000000000     
   2.4599999999999997E-002     2.1021899067153870E-043
   2.4900000000000005E-002    -2.2058652753108279E-041
   2.5200000000000000E-002    -8.2080526587522181E-040
   2.5499999999999995E-002     1.0644301603336236E-037
   2.5800000000000003E-002    -1.1366665429485863E-037
   2.6099999999999998E-002    -3.4035761147787344E-035
   2.6400000000000007E-002     6.3769210544386289E-035
   2.6700000000000002E-002    -1.7402755950430364E-034
   2.6999999999999996E-002    -3.0660576384132634E-033
   2.7300000000000005E-002     1.0207480857817595E-032
   2.7600000000000000E-002    -2.5347924638290146E-032
   2.7900000000000008E-002     5.7407922381428180E-032
   2.8200000000000003E-002    -1.2647125268590866E-031
   2.8499999999999998E-002     2.4669957204749582E-031
   2.8800000000000006E-002    -3.4228522888307260E-031
   2.9100000000000001E-002    -4.7118021271874348E-032
   2.9400000000000003E-002     2.6430984479736328E-030
   2.9700000000000004E-002    -1.2570901962030899E-029
   3.0000000000000006E-002     4.2533534842002457E-029
   3.0300000000000001E-002    -1.1798876402075837E-028
   3.0600000000000002E-002     2.7393356073560307E-028
   3.0900000000000004E-002    -5.0895593354247221E-028
   3.1199999999999999E-002     6.0801146011731276E-028
   3.1500000000000007E-002     3.2975041018583054E-028
   3.1800000000000002E-002    -4.8083735919238818E-027
   3.2099999999999997E-002     1.7964004810804902E-026
   3.2400000000000005E-002    -4.6570354811545091E-026
   3.2700000000000000E-002     8.9713728946729107E-026
   3.3000000000000002E-002    -1.0905413654133950E-025
   3.3300000000000003E-002    -3.2380022447118409E-026
   3.3599999999999998E-002     6.4052656838379357E-025
   3.3900000000000000E-002    -2.1372720869394616E-024
   3.4200000000000001E-002     4.5449699166362183E-024
   3.4500000000000003E-002    -6.0211623325032916E-024
   3.4799999999999998E-002     4.5577686671493228E-025
   3.5099999999999999E-002     2.3616982989903879E-023
   3.5400000000000001E-002    -7.6004869291618739E-023
   3.5699999999999996E-002     1.3950836819564661E-022
   3.6000000000000004E-002    -1.2584518455989504E-022
   3.6299999999999999E-002    -1.4543292771138971E-022
   3.6600000000000008E-002     8.3141044723227870E-022
   3.6900000000000002E-002    -1.6890708388522531E-021
   3.7199999999999997E-002     1.5904251642556385E-021
   3.7500000000000006E-002     1.1639072187131057E-021
   3.7800000000000000E-002    -6.1345358635626903E-021
   3.8100000000000009E-002     5.6288276043841402E-021
   3.8400000000000004E-002     1.5681956103324580E-020
   3.8699999999999998E-002    -5.8054109923021553E-020
   3.9000000000000007E-002     4.4911739511134204E-020
   3.9300000000000002E-002     2.4098889891707945E-019
   3.9600000000000003E-002    -1.0664678150563087E-018
   3.9900000000000005E-002     2.2570793601335199E-018
   4.0200000000000000E-002    -2.2518803075781643E-018
   4.0500000000000001E-002    -2.8259542299092487E-018
   4.0800000000000003E-002     1.9585237137697620E-017
   4.1100000000000005E-002    -5.8287745453381035E-017
   4.1399999999999999E-002     1.3315633381756140E-016
   4.1700000000000008E-002    -2.3050728105441976E-016
   4.2000000000000003E-002     1.1726968573725697E-016
   4.2299999999999997E-002     1.2228396328527640E-015
   4.2600000000000006E-002    -6.2289261390003302E-015
   4.2900000000000001E-002     1.6542724141034234E-014
   4.3200000000000002E-002    -1.9365597742091631E-014
   4.3500000000000004E-002    -4.5228172678101288E-014
   4.3799999999999999E-002     2.9523472031622498E-013
   4.4100000000000000E-002    -6.9829588435186511E-013
   4.4400000000000002E-002     3.1448454512007149E-013
   4.4700000000000004E-002     3.5391597479672096E-012
   4.4999999999999998E-002    -1.2360974983736258E-011
   4.5300000000000000E-002     1.2431013052403226E-011
   4.5600000000000002E-002     4.2182738911732249E-011
   4.5899999999999996E-002    -1.7710353019667860E-010
   4.6200000000000005E-002     1.6180730270889478E-010
   4.6500000000000000E-002     6.6002318439783328E-010
   4.6799999999999994E-002    -2.1851640754958100E-009
   4.7100000000000003E-002     2.8227735561451712E-010
   4.7399999999999998E-002     1.1229989493501742E-008
   4.7700000000000006E-002    -1.7156609965968738E-008
   4.8000000000000001E-002    -3.8955417097872994E-008
   4.8300000000000010E-002     1.1943329085167318E-007
   4.8600000000000004E-002     9.5414660599798504E-008
   4.8899999999999999E-002    -6.5713668310634160E-007
   4.9200000000000008E-002     1.5913183470625052E-008
   4.9500000000000002E-002     6.8608268132021353E-006
   4.9800000000000011E-002     2.0025809129090818E-005
   5.0100000000000006E-002     3.2628326315383223E-005
   5.0400000000000000E-002     4.2591996071669969E-005
   5.0700000000000009E-002     6.0516352219767243E-005
   5.1000000000000004E-002     9.6424478868974216E-005
   5.1299999999999998E-002     1.4744719029983089E-004
   5.1600000000000007E-002     2.1163487100251505E-004
   5.1900000000000002E-002     3.0544830194492961E-004
   5.2200000000000010E-002     4.5361454914201422E-004
   5.2500000000000005E-002     6.7108353250778293E-004
   5.2800000000000000E-002     9.6849539998584153E-004
   5.3099999999999994E-002     1.3656829350022163E-003
   5.3400000000000003E-002     1.8909207101343423E-003
   5.3699999999999998E-002     2.5760544697342480E-003
   5.4000000000000006E-002     3.4517373111711226E-003
   5.4300000000000001E-002     4.5358900386705276E-003
   5.4599999999999996E-002     5.8287405006643310E-003
   5.4900000000000004E-002     7.3181856462838256E-003
   5.5199999999999999E-002     8.9688587849496154E-003
   5.5499999999999994E-002     1.0691940898287152E-002
   5.5800000000000002E-002     1.2325831044762665E-002
   5.6099999999999997E-002     1.3642183457602671E-002
   5.6400000000000006E-002     1.4351137828168664E-002
   5.6700000000000000E-002     1.4075073680295685E-002
   5.6999999999999995E-002     1.2329673391160385E-002
   5.7300000000000004E-002     8.5481285886989250E-003
   5.7599999999999998E-002     2.1349804609579921E-003
   5.7900000000000007E-002    -7.4854529102498643E-003
   5.8200000000000002E-002    -2.0817486453744517E-002
   5.8499999999999996E-002    -3.8204937162283709E-002
   5.8800000000000005E-002    -5.9720360586909618E-002
   5.9100000000000000E-002    -8.5050031590700501E-002
   5.9400000000000008E-002   -0.11340086991019850     
   5.9700000000000003E-002   -0.14341297089015856     
   6.0000000000000012E-002   -0.17308308695363675     
   6.0300000000000006E-002   -0.19977459670895870     
   6.0600000000000001E-002   -0.22030899406352539     
   6.0900000000000010E-002   -0.23110645748152450     
   6.1200000000000004E-002   -0.22843746044707214     
   6.1500000000000013E-002   -0.20875102572030102     
   6.1800000000000008E-002   -0.16904553386432392     
   6.2100000000000002E-002   -0.10732353746471608     
   6.2399999999999997E-002    -2.2965995436764058E-002
   6.2700000000000006E-002     8.2851090589635232E-002
   6.3000000000000000E-002    0.20691953986859071     
   6.3300000000000009E-002    0.34396151282539267     
   6.3600000000000004E-002    0.48662417862719776     
   6.3899999999999998E-002    0.62588395521001894     
   6.4199999999999993E-002    0.75157400342875580     
   6.4500000000000002E-002    0.85307182724141550     
   6.4800000000000010E-002    0.92025212391520339     
   6.5100000000000005E-002    0.94433084035372272     
   6.5400000000000000E-002    0.91884107049743335     
   6.5700000000000008E-002    0.84042707078036116     
   6.5999999999999989E-002    0.70932045820739842     
   6.6299999999999998E-002    0.52968783616145065     
   6.6600000000000006E-002    0.30961321836794992     
   6.6900000000000001E-002     6.0544128171166542E-002
   6.7199999999999996E-002   -0.20337824826957113     
   6.7500000000000004E-002   -0.46628356649300678     
   6.7800000000000013E-002   -0.71196268038541988     
   6.8099999999999994E-002   -0.92487719207258301     
   6.8400000000000002E-002    -1.0915883016406851     
   6.8700000000000011E-002    -1.2017059173048463     
   6.8999999999999992E-002    -1.2485548784318166     
   6.9300000000000000E-002    -1.2299032549523119     
   6.9600000000000009E-002    -1.1477752158564629     
   6.9900000000000004E-002    -1.0083151040371860     
   7.0199999999999999E-002   -0.82130212860225005     
   7.0500000000000007E-002   -0.59912670765192977     
   7.0800000000000016E-002   -0.35602040613001140     
   7.1099999999999997E-002   -0.10699401522512222     
   7.1400000000000005E-002    0.13326056227695759     
   7.1700000000000000E-002    0.35110969984289880     
   7.1999999999999995E-002    0.53486733392537467     
   7.2300000000000003E-002    0.67524775948455729     
   7.2600000000000012E-002    0.76567160728780970     
   7.2900000000000006E-002    0.80261070354349040     
   7.3200000000000001E-002    0.78541942082398153     
   7.3499999999999996E-002    0.71623904353907353     
   7.3800000000000004E-002    0.59987300134582622     
   7.4099999999999999E-002    0.44328871487913496     
   7.4400000000000008E-002    0.25534352128708382     
   7.4700000000000003E-002     4.6352755330219361E-002
   7.5000000000000011E-002   -0.17243712062579952     
   7.5299999999999992E-002   -0.38928088755682644     
   7.5600000000000001E-002   -0.59256952130975504     
   7.5900000000000009E-002   -0.77134837122752054     
   7.6200000000000004E-002   -0.91587285639680893     
   7.6499999999999999E-002    -1.0182782065573974     
   7.6800000000000007E-002    -1.0728560797770519     
   7.7099999999999988E-002    -1.0765207452094705     
   7.7399999999999997E-002    -1.0291809638884386     
   7.7700000000000005E-002   -0.93351461649911549     
   7.8000000000000014E-002   -0.79497429912149586     
   7.8299999999999995E-002   -0.62141304913395601     
   7.8600000000000003E-002   -0.42241370788150456     
   7.8900000000000012E-002   -0.20875340601537118     
   7.9199999999999993E-002     8.5044063494075159E-003
   7.9500000000000001E-002    0.21896335005938611     
   7.9800000000000010E-002    0.41329061526876443     
   8.0100000000000018E-002    0.58419746210271395     
   8.0399999999999999E-002    0.72684903333867523     
   8.0700000000000008E-002    0.83875348758691248     
   8.1000000000000003E-002    0.92014559391456419     
   8.1299999999999997E-002    0.97332641868663261     
   8.1600000000000006E-002     1.0023420908016645     
   8.1900000000000014E-002     1.0124035088874399     
   8.2199999999999995E-002     1.0087151491910598     
   8.2500000000000004E-002    0.99626374808815976     
   8.2799999999999999E-002    0.97894690162689568     
   8.3100000000000007E-002    0.95890714111393316     
   8.3400000000000002E-002    0.93672181851784408     
   8.3700000000000011E-002    0.91088856597073298     
   8.4000000000000005E-002    0.87835033809585017     
   8.4300000000000000E-002    0.83514524714047988     
   8.4599999999999995E-002    0.77655202826716074     
   8.4900000000000003E-002    0.69823862699795558     
   8.5199999999999998E-002    0.59687772829441843     
   8.5500000000000007E-002    0.47067116297734179     
   8.5800000000000001E-002    0.32015337632657859     
   8.6100000000000010E-002    0.14823251487065484     
   8.6399999999999991E-002    -3.9871008341211808E-002
   8.6699999999999999E-002   -0.23651444773703417     
   8.7000000000000008E-002   -0.43260752029314908     
   8.7300000000000003E-002   -0.61817802410528067     
   8.7599999999999997E-002   -0.78321304840751504     
   8.7900000000000006E-002   -0.91871084620200005     
   8.8200000000000014E-002    -1.0173975370049373     
   8.8499999999999995E-002    -1.0744237057372144     
   8.8800000000000004E-002    -1.0880696066858011     
   8.9100000000000013E-002    -1.0596478020402031     
   8.9399999999999993E-002   -0.99329234583100234     
   8.9700000000000002E-002   -0.89587692931027463     
   9.0000000000000011E-002   -0.77593604694878859     
   9.0299999999999991E-002   -0.64291641906316244     
   9.0600000000000000E-002   -0.50645112652802360     
   9.0900000000000009E-002   -0.37508988595587578     
   9.1200000000000017E-002   -0.25586536885287087     
   9.1499999999999998E-002   -0.15361590845720074     
   9.1800000000000007E-002    -7.0483069099087942E-002
   9.2100000000000001E-002    -6.4319304298831106E-003
   9.2399999999999996E-002     4.0943041498276801E-002
   9.2700000000000005E-002     7.5946530854821365E-002
   9.3000000000000013E-002    0.10358345948383267     
   9.3300000000000008E-002    0.12936012358868529     
   9.3600000000000003E-002    0.15834190217083000     
   9.3899999999999997E-002    0.19437541680613732     
   9.4200000000000006E-002    0.23978486774658964     
   9.4500000000000001E-002    0.29482026021884455     
   9.4800000000000009E-002    0.35781293550551546     
   9.5100000000000004E-002    0.42513675456824440     
   9.5399999999999999E-002    0.49140773678924909     
   9.5699999999999993E-002    0.55031358214635073     
   9.6000000000000002E-002    0.59486197916426442     
   9.6300000000000011E-002    0.61808865915610578     
   9.6600000000000005E-002    0.61380083628917614     
   9.6900000000000000E-002    0.57689747781684275     
   9.7200000000000009E-002    0.50414567556575407     
   9.7499999999999989E-002    0.39431935673174168     
   9.7799999999999998E-002    0.24819564754089007     
   9.8100000000000007E-002     6.9004038851967736E-002
   9.8400000000000015E-002   -0.13806227404022375     
   9.8699999999999996E-002   -0.36599219531916849     
   9.9000000000000005E-002   -0.60608265883859147     
   9.9300000000000013E-002   -0.84878233138354453     
   9.9599999999999994E-002    -1.0838887058773103     
   9.9900000000000003E-002    -1.3008986900316928     
  0.10020000000000001         -1.4897648810447641     
  0.10049999999999999         -1.6411626878002732     
  0.10080000000000000         -1.7467723442599203     
  0.10110000000000001         -1.7997280165886649     
  0.10140000000000000         -1.7947654687645058     
  0.10170000000000000         -1.7285813208170369     
  0.10200000000000001         -1.5998732990722955     
  0.10230000000000002         -1.4093876076476060     
  0.10260000000000000         -1.1601695392171418     
  0.10290000000000001        -0.85752449019866872     
  0.10320000000000000        -0.50883232016622681     
  0.10350000000000001        -0.12364142772824582     
  0.10380000000000000         0.28666106263252406     
  0.10410000000000001         0.70919427178585437     
  0.10440000000000001          1.1298839755785466     
  0.10470000000000000          1.5341464553991127     
  0.10500000000000000          1.9071638504158184     
  0.10530000000000000          2.2347991256391357     
  0.10560000000000000          2.5044169822689724     
  0.10590000000000001          2.7051218890451811     
  0.10620000000000000          2.8289039047306357     
  0.10650000000000001          2.8707757707309649     
  0.10679999999999999          2.8291157634299995     
  0.10710000000000000          2.7064196956800970     
  0.10740000000000001          2.5083384769166428     
  0.10770000000000000          2.2441137190419482     
  0.10800000000000000          1.9261656041277151     
  0.10830000000000001          1.5685790023632353     
  0.10859999999999999          1.1872502751106326     
  0.10890000000000000         0.79839003237618633     
  0.10920000000000001         0.41768215913954970     
  0.10950000000000001          5.9504392283133672E-002
  0.10979999999999999        -0.26411765944696408     
  0.11009999999999999        -0.54393929535622787     
  0.11040000000000001        -0.77372277145157453     
  0.11070000000000001        -0.95089132540856625     
  0.11100000000000000         -1.0760182591224556     
  0.11130000000000000         -1.1523165174532390     
  0.11160000000000002         -1.1853328339173985     
  0.11190000000000001         -1.1824165725450133     
  0.11220000000000001         -1.1511304487466065     
  0.11250000000000000         -1.0994571592755471     
  0.11280000000000000         -1.0346824331169355     
  0.11309999999999999        -0.96250397462894899     
  0.11340000000000001        -0.88793820649793376     
  0.11369999999999998        -0.81409072879095301     
  0.11400000000000000        -0.74275722784598208     
  0.11430000000000000        -0.67554797837845482     
  0.11460000000000002        -0.61275219825966332     
  0.11489999999999999        -0.55535410655108830     
  0.11520000000000001        -0.50489608415163323     
  0.11550000000000001        -0.46275611140946893     
  0.11580000000000000        -0.43205663218287976     
  0.11609999999999999        -0.41594892045589060     
  0.11640000000000002        -0.41724444569065139     
  0.11670000000000001        -0.43929584614127803     
  0.11700000000000001        -0.48351126912454334     
  0.11730000000000000        -0.54955365339081952     
  0.11760000000000000        -0.63535039002857685     
  0.11789999999999999        -0.73548130756209118     
  0.11820000000000001        -0.84236409787958277     
  0.11850000000000001        -0.94625591597896752     
  0.11880000000000000         -1.0350856353106210     
  0.11910000000000000         -1.0968743284345337     
  0.11940000000000002         -1.1198341822434517     
  0.11970000000000001         -1.0937431357112450     
  0.12000000000000001         -1.0118881063411298     
  0.12030000000000000        -0.87113156422716476     
  0.12060000000000000        -0.67317486677999505     
  0.12089999999999999        -0.42482206187412402     
  0.12119999999999999        -0.13748842149100587     
  0.12150000000000001         0.17300128540342447     
  0.12180000000000001         0.48839452794545618     
  0.12210000000000000         0.78871419225132045     
  0.12239999999999999          1.0540963566980781     
  0.12270000000000002          1.2672762586996877     
  0.12300000000000001          1.4142015777092367     
  0.12330000000000001          1.4858909620463834     
  0.12360000000000000          1.4793379630528039     
  0.12390000000000000          1.3970294423078213     
  0.12419999999999999          1.2478108604166387     
  0.12450000000000001          1.0450784225240803     
  0.12480000000000001         0.80539688853904268     
  0.12509999999999999         0.54791813360028818     
  0.12540000000000001         0.29149353055774374     
  0.12570000000000003          5.3313947054401803E-002
  0.12600000000000000        -0.15195791185059498     
  0.12630000000000002        -0.31398619687945856     
  0.12659999999999999        -0.42686708846858340     
  0.12690000000000001        -0.48922573168576033     
  0.12719999999999998        -0.50386386746814593     
  0.12750000000000000        -0.47675606950491434     
  0.12780000000000002        -0.41626812162258459     
  0.12809999999999999        -0.33169384195264862     
  0.12840000000000001        -0.23233715151562034     
  0.12869999999999998        -0.12649436162288907     
  0.12900000000000000         -2.0973942909491186E-002
  0.12930000000000003          7.9152767291149867E-002
  0.12959999999999999         0.17075462887867798     
  0.12990000000000002         0.25195047842568719     
  0.13019999999999998         0.32181202942061521     
  0.13050000000000000         0.38012750755005165     
  0.13080000000000003         0.42622796928336382     
  0.13109999999999999         0.45920274091150975     
  0.13140000000000002         0.47773237078033415     
  0.13169999999999998         0.47976417444362129     
  0.13200000000000001         0.46359903135286434     
  0.13229999999999997         0.42741306268096468     
  0.13260000000000000         0.37011172825340788     
  0.13290000000000002         0.29254329693263681     
  0.13319999999999999         0.19638914035459332     
  0.13350000000000001          8.5520783217917590E-002
  0.13380000000000003         -3.4126605260611176E-002
  0.13410000000000000        -0.15582739737750428     
  0.13440000000000002        -0.27139072213520254     
  0.13469999999999999        -0.37228210121078720     
  0.13500000000000001        -0.45086377177988118     
  0.13529999999999998        -0.50026793430472372     
  0.13560000000000000        -0.51544648444944585     
  0.13590000000000002        -0.49400722403964537     
  0.13619999999999999        -0.43602466918759031     
  0.13650000000000001        -0.34420294899095505     
  0.13680000000000003        -0.22401177185050725     
  0.13710000000000000         -8.2798071422437003E-002
  0.13740000000000002          7.0328384782581202E-002
  0.13769999999999999         0.22517341425869053     
  0.13800000000000001         0.37155265712831753     
  0.13829999999999998         0.49974646255576161     
  0.13860000000000000         0.60058256893004291     
  0.13890000000000002         0.66664690416522676     
  0.13919999999999999         0.69221748360809632     
  0.13950000000000001         0.67327021008904753     
  0.13979999999999998         0.60796611685825108     
  0.14010000000000000         0.49606484854887811     
  0.14040000000000002         0.33917490282709728     
  0.14069999999999999         0.14086711236100158     
  0.14100000000000001         -9.4023965744385901E-002
  0.14130000000000004        -0.35871620506538715     
  0.14160000000000000        -0.64478540341636714     
  0.14189999999999997        -0.94235542811752260     
  0.14219999999999999         -1.2394423073004974     
  0.14250000000000002         -1.5227173123207485     
  0.14279999999999998         -1.7774746997715176     
  0.14310000000000000         -1.9878496060986461     
  0.14339999999999997         -2.1381240570605238     
  0.14369999999999999         -2.2129505246644134     
  0.14400000000000002         -2.1987494325498100     
  0.14429999999999998         -2.0849744529689884     
  0.14460000000000001         -1.8649023935098912     
  0.14490000000000003         -1.5372889016398656     
  0.14520000000000000         -1.1068181535070563     
  0.14550000000000002        -0.58415925592327755     
  0.14579999999999999          1.2653031613785864E-002
  0.14610000000000001         0.66041707208159595     
  0.14640000000000003          1.3306850488287698     
  0.14670000000000000          1.9911748388708981     
  0.14699999999999996          2.6086503903744167     
  0.14729999999999999          3.1497917201196937     
  0.14760000000000001          3.5839602325532698     
  0.14789999999999998          3.8855734989167594     
  0.14820000000000000          4.0347563848234316     