  -1.4999999999999999E-002     0.0000000000000000     
  -1.4700000000000000E-002     0.0000000000000000     
  -1.4400000000000000E-002     0.0000000000000000     
  -1.4100000000000000E-002     0.0000000000000000     
  -1.3800000000000000E-002     0.0000000000000000     
  -1.3500000000000000E-002     0.0000000000000000     
  -1.3200000000000000E-002     0.0000000000000000     
  -1.2899999999999998E-002     0.0000000000000000     
  -1.2600000000000000E-002     0.0000000000000000     
  -1.2299999999999998E-002     0.0000000000000000     
  -1.2000000000000000E-002     0.0000000000000000     
  -1.1699999999999999E-002     0.0000000000000000     
  -1.1399999999999999E-002     0.0000000000000000     
  -1.1099999999999999E-002     0.0000000000000000     
  -1.0799999999999999E-002     0.0000000000000000     
  -1.0499999999999999E-002     0.0000000000000000     
  -1.0199999999999999E-002     0.0000000000000000     
  -9.8999999999999991E-003     0.0000000000000000     
  -9.5999999999999992E-003     0.0000000000000000     
  -9.2999999999999992E-003     0.0000000000000000     
  -8.9999999999999993E-003     0.0000000000000000     
  -8.6999999999999994E-003     0.0000000000000000     
  -8.3999999999999995E-003     0.0000000000000000     
  -8.0999999999999996E-003     0.0000000000000000     
  -7.7999999999999988E-003     0.0000000000000000     
  -7.4999999999999997E-003     0.0000000000000000     
  -7.1999999999999998E-003     0.0000000000000000     
  -6.8999999999999981E-003     0.0000000000000000     
  -6.5999999999999982E-003     0.0000000000000000     
  -6.3000000000000000E-003     0.0000000000000000     
  -6.0000000000000001E-003     0.0000000000000000     
  -5.6999999999999985E-003     0.0000000000000000     
  -5.3999999999999986E-003     0.0000000000000000     
  -5.1000000000000004E-003     8.9087429307044232E-036
  -4.7999999999999987E-003     9.7802222695270848E-035
  -4.5000000000000005E-003     4.1212062939381491E-035
  -4.1999999999999989E-003    -4.6681612563647563E-034
  -3.8999999999999990E-003     1.8740197657084416E-034
  -3.5999999999999990E-003     3.4358842714944471E-033
  -3.2999999999999991E-003    -6.1051168414957684E-033
  -2.9999999999999992E-003    -1.3074732336383503E-032
  -2.6999999999999993E-003     1.9570639730968560E-032
  -2.3999999999999994E-003     1.1061638057551691E-031
  -2.0999999999999977E-003    -2.1108288347841484E-031
  -1.7999999999999995E-003    -4.0209693846272529E-031
  -1.4999999999999979E-003     2.2842079848501964E-030
  -1.1999999999999997E-003    -5.8110012996986750E-030
  -8.9999999999999976E-004     8.0210644603836307E-030
  -5.9999999999999810E-004     6.1773342382809366E-030
  -2.9999999999999992E-004    -4.1803314926084575E-029
   0.0000000000000000          4.2710805568248792E-029
   3.0000000000000165E-004     1.8604035600583146E-029
   5.9999999999999984E-004     6.1312271744620986E-029
   9.0000000000000149E-004    -5.4901484957792288E-028
   1.2000000000000031E-003     1.1627513049968068E-027
   1.5000000000000013E-003    -6.0032046506028718E-029
   1.8000000000000030E-003    -6.6775928213721459E-027
   2.1000000000000012E-003     1.7119747615528685E-026
   2.3999999999999994E-003    -6.3562871487382471E-027
   2.7000000000000010E-003    -5.8352501872910916E-026
   2.9999999999999992E-003     1.3420967651104292E-025
   3.3000000000000008E-003    -3.0750127257383024E-026
   3.6000000000000025E-003    -4.6611146777987982E-025
   3.9000000000000007E-003     1.0572469269797636E-024
   4.2000000000000023E-003    -2.4520689852776374E-025
   4.5000000000000005E-003    -3.6115948413560942E-024
   4.7999999999999987E-003     7.7905353033157965E-024
   5.1000000000000004E-003    -1.8585523797267344E-024
   5.4000000000000020E-003    -2.3499860550095774E-023
   5.7000000000000037E-003     5.0914736354462708E-023
   5.9999999999999984E-003    -1.6437773670773654E-023
   6.3000000000000000E-003    -1.4011084772813917E-022
   6.6000000000000017E-003     3.1382430481902021E-022
   6.9000000000000034E-003    -1.2686761848896892E-022
   7.2000000000000015E-003    -7.5518236445463011E-022
   7.5000000000000032E-003     1.7741454955025154E-021
   7.8000000000000014E-003    -8.8937676618859247E-022
   8.0999999999999996E-003    -3.8857060581971452E-021
   8.4000000000000012E-003     9.6268876930497699E-021
   8.7000000000000029E-003    -4.6875251703674380E-021
   9.0000000000000011E-003    -2.2056453270287465E-020
   9.2999999999999992E-003     5.2452005906288836E-020
   9.6000000000000009E-003    -1.8579781533984025E-020
   9.8999999999999991E-003    -1.3773363012747197E-019
   1.0200000000000001E-002     2.9297538452891510E-019
   1.0500000000000002E-002    -5.0916615953173147E-020
   1.0800000000000004E-002    -8.4591933332162592E-019
   1.1099999999999999E-002     1.5746762506329794E-018
   1.1400000000000000E-002    -2.6813999575357669E-020
   1.1700000000000002E-002    -4.6746445005988513E-018
   1.2000000000000004E-002     7.7174335360494705E-018
   1.2300000000000002E-002     8.4689393130880745E-019
   1.2600000000000000E-002    -2.2724037190570619E-017
   1.2900000000000002E-002     3.3459431937047931E-017
   1.3200000000000000E-002     7.5669019498370037E-018
   1.3500000000000002E-002    -9.6724305047910701E-017
   1.3800000000000003E-002     1.2722122490406359E-016
   1.4100000000000001E-002     4.3551043917163783E-017
   1.4400000000000000E-002    -3.6192399843478311E-016
   1.4700000000000001E-002     4.2506636593159970E-016
   1.4999999999999999E-002     1.9503705003210272E-016
   1.5300000000000001E-002    -1.1953867433525274E-015
   1.5600000000000003E-002     1.2634004045903413E-015
   1.5899999999999997E-002     7.0662606960153060E-016
   1.6199999999999999E-002    -3.5163910303406725E-015
   1.6500000000000001E-002     3.4301001302273776E-015
   1.6800000000000002E-002     2.1044665553265694E-015
   1.7100000000000004E-002    -9.3845913197330939E-015
   1.7400000000000006E-002     8.8580779963185409E-015
   1.7700000000000000E-002     5.3044964775605659E-015
   1.8000000000000002E-002    -2.3506786639928621E-014
   1.8300000000000004E-002     2.2239810324362383E-014
   1.8600000000000005E-002     1.2535415871268138E-014
   1.8900000000000000E-002    -5.6102324314194179E-014
   1.9200000000000002E-002     5.0854805333657920E-014
   1.9500000000000003E-002     2.8189175037073984E-014
   1.9799999999999998E-002    -1.1115870094944039E-013
   2.0100000000000000E-002     1.0113481056382709E-013
   2.0400000000000001E-002    -2.1240760896717460E-014
   2.0700000000000003E-002    -1.0169770330846160E-013
   2.0999999999999998E-002     5.1089598635831100E-013
   2.1299999999999999E-002    -9.3388723196185090E-013
   2.1600000000000001E-002    -8.1056641931216475E-013
   2.1900000000000003E-002     5.1917028897487138E-012
   2.2200000000000004E-002    -2.6002313696771429E-012
   2.2500000000000006E-002    -1.5673981066797209E-011
   2.2800000000000001E-002     2.0607981706826025E-011
   2.3100000000000002E-002     2.8567555348471451E-011
   2.3400000000000004E-002    -6.2947035163962721E-011
   2.3699999999999999E-002    -1.9368569645424764E-011
   2.4000000000000000E-002     4.7894103081520723E-011
   2.4300000000000002E-002     9.9170668210060703E-012
   2.4599999999999997E-002     5.1473909818509951E-010
   2.4900000000000005E-002    -5.8924575039056563E-010
   2.5200000000000000E-002    -3.1558755829300481E-009
   2.5499999999999995E-002     4.8650579569916948E-009
   2.5800000000000003E-002     1.0795598722074437E-008
   2.6099999999999998E-002    -2.3864806224569872E-008
   2.6400000000000007E-002    -2.5808659562808468E-008
   2.6700000000000002E-002     8.8481206031482007E-008
   2.6999999999999996E-002     3.6639082896864896E-008
   2.7300000000000005E-002    -3.1982093735760950E-007
   2.7600000000000000E-002    -9.2030730222649243E-009
   2.7900000000000008E-002     1.9750705803509524E-006
   2.8200000000000003E-002     5.0603819656480035E-006
   2.8499999999999998E-002     8.7254420097420421E-006
   2.8800000000000006E-002     1.4394911703470809E-005
   2.9100000000000001E-002     2.3117059282219483E-005
   2.9400000000000003E-002     3.3265936184146794E-005
   2.9700000000000004E-002     4.4768083070341691E-005
   3.0000000000000006E-002     6.4966879177541642E-005
   3.0300000000000001E-002     1.0317183277955115E-004
   3.0600000000000002E-002     1.6071492946561592E-004
   3.0900000000000004E-002     2.3811560633521371E-004
   3.1199999999999999E-002     3.4585146607325317E-004
   3.1500000000000007E-002     4.9659551088411676E-004
   3.1800000000000002E-002     7.0127902472736628E-004
   3.2099999999999997E-002     9.7674351921022318E-004
   3.2400000000000005E-002     1.3430947343412839E-003
   3.2700000000000000E-002     1.8192930039164328E-003
   3.3000000000000002E-002     2.4215953790655133E-003
   3.3300000000000003E-002     3.1609546757614855E-003
   3.3599999999999998E-002     4.0511195443151318E-003
   3.3900000000000000E-002     5.1071681018986315E-003
   3.4200000000000001E-002     6.3291545986521938E-003
   3.4500000000000003E-002     7.6987324427685438E-003
   3.4799999999999998E-002     9.1754570910751419E-003
   3.5099999999999999E-002     1.0700454060878937E-002
   3.5400000000000001E-002     1.2205679992892668E-002
   3.5699999999999996E-002     1.3596806808820795E-002
   3.6000000000000004E-002     1.4746856129692766E-002
   3.6299999999999999E-002     1.5528300094062855E-002
   3.6600000000000008E-002     1.5816590134877705E-002
   3.6900000000000002E-002     1.5499309094406855E-002
   3.7199999999999997E-002     1.4505661552574418E-002
   3.7500000000000006E-002     1.2797950357341556E-002
   3.7800000000000000E-002     1.0378039074912948E-002
   3.8100000000000009E-002     7.3309625672176746E-003
   3.8400000000000004E-002     3.8090416573935471E-003
   3.8699999999999998E-002     9.0441721027296337E-006
   3.9000000000000007E-002    -3.8625958086234541E-003
   3.9300000000000002E-002    -7.6456641956393137E-003
   3.9600000000000003E-002    -1.1258539053080900E-002
   3.9900000000000005E-002    -1.4763259974824547E-002
   4.0200000000000000E-002    -1.8487137946789169E-002
   4.0500000000000001E-002    -2.3020516915429761E-002
   4.0800000000000003E-002    -2.9280707689831098E-002
   4.1100000000000005E-002    -3.8541811681921265E-002
   4.1399999999999999E-002    -5.2356183398310351E-002
   4.1700000000000008E-002    -7.2454769626331669E-002
   4.2000000000000003E-002   -0.10067201130201658     
   4.2299999999999997E-002   -0.13866626234044863     
   4.2600000000000006E-002   -0.18771945469946885     
   4.2900000000000001E-002   -0.24851070877030654     
   4.3200000000000002E-002   -0.32085380472134867     
   4.3500000000000004E-002   -0.40355173226926000     
   4.3799999999999999E-002   -0.49428174311337486     
   4.4100000000000000E-002   -0.58950347038658002     
   4.4400000000000002E-002   -0.68464809889537681     
   4.4700000000000004E-002   -0.77427524453279017     
   4.4999999999999998E-002   -0.85240054140372490     
   4.5300000000000000E-002   -0.91287821425449145     
   4.5600000000000002E-002   -0.94993304988753813     
   4.5899999999999996E-002   -0.95848059334273705     
   4.6200000000000005E-002   -0.93467449732045738     
   4.6500000000000000E-002   -0.87614690773451687     
   4.6799999999999994E-002   -0.78223144466842265     
   4.7100000000000003E-002   -0.65400713099882268     
   4.7399999999999998E-002   -0.49427538503214435     
   4.7700000000000006E-002   -0.30735957004874592     
   4.8000000000000001E-002    -9.8634542330164721E-002
   4.8300000000000010E-002    0.12567413457676321     
   4.8600000000000004E-002    0.35912946450931693     
   4.8899999999999999E-002    0.59521443209798142     
   4.9200000000000008E-002    0.82785547305749863     
   4.9500000000000002E-002     1.0516315747342546     
   4.9800000000000011E-002     1.2617188736601805     
   5.0100000000000006E-002     1.4544069806474513     
   5.0400000000000000E-002     1.6263169084307643     
   5.0700000000000009E-002     1.7750238208378482     
   5.1000000000000004E-002     1.8985353730304544     
   5.1299999999999998E-002     1.9951455608958486     
   5.1600000000000007E-002     2.0635640631246432     
   5.1900000000000002E-002     2.1028664117218225     
   5.2200000000000010E-002     2.1124103070736826     
   5.2500000000000005E-002     2.0918014049335416     
   5.2800000000000000E-002     2.0415084362225739     
   5.3099999999999994E-002     1.9621027711564407     
   5.3400000000000003E-002     1.8551461705979113     
   5.3699999999999998E-002     1.7224783915160025     
   5.4000000000000006E-002     1.5661754636979299     
   5.4300000000000001E-002     1.3890614550432463     
   5.4599999999999996E-002     1.1930739933554628     
   5.4900000000000004E-002    0.98086143201181986     
   5.5199999999999999E-002    0.75388760140898026     
   5.5499999999999994E-002    0.51346225382520916     
   5.5800000000000002E-002    0.26030246284902392     
   5.6099999999999997E-002    -4.9573491111752736E-003
   5.6400000000000006E-002   -0.28167190411404247     
   5.6700000000000000E-002   -0.56868618149320971     
   5.6999999999999995E-002   -0.86368381621233714     
   5.7300000000000004E-002    -1.1629308454324787     
   5.7599999999999998E-002    -1.4613034748537743     
   5.7900000000000007E-002    -1.7508570013221774     
   5.8200000000000002E-002    -2.0235986800012808     
   5.8499999999999996E-002    -2.2684984329463811     
   5.8800000000000005E-002    -2.4757590442359270     
   5.9100000000000000E-002    -2.6343388726673345     
   5.9400000000000008E-002    -2.7359149637564442     
   5.9700000000000003E-002    -2.7732541746734487     
   6.0000000000000012E-002    -2.7429199399612552     
   6.0300000000000006E-002    -2.6446538139508382     
   6.0600000000000001E-002    -2.4822604804802597     
   6.0900000000000010E-002    -2.2634348993629865     
   6.1200000000000004E-002    -1.9992479182910963     
   6.1500000000000013E-002    -1.7030465672740134     
   6.1800000000000008E-002    -1.3908106132697002     
   6.2100000000000002E-002    -1.0780756496280024     
   6.2399999999999997E-002   -0.78108859123849395     
   6.2700000000000006E-002   -0.51334738695782645     
   6.3000000000000000E-002   -0.28665330935244837     
   6.3300000000000009E-002   -0.10864156443333194     
   6.3600000000000004E-002     1.6620546181934460E-002
   6.3899999999999998E-002     8.9443123251277443E-002
   6.4199999999999993E-002    0.11453755644754531     
   6.4500000000000002E-002    0.10021973705898515     
   6.4800000000000010E-002     5.8291101778881929E-002
   6.5100000000000005E-002     2.3790204560140680E-003
   6.5400000000000000E-002    -5.2848331028968104E-002
   6.5700000000000008E-002    -9.2873892846255884E-002
   6.5999999999999989E-002   -0.10612501771227224     
   6.6299999999999998E-002    -8.3261806902617516E-002
   6.6600000000000006E-002    -2.0143432581748985E-002
   6.6900000000000001E-002     8.2805373534995119E-002
   6.7199999999999996E-002    0.21917753299518133     
   6.7500000000000004E-002    0.37848976946702562     
   6.7800000000000013E-002    0.54576451587974550     
   6.8099999999999994E-002    0.70411820503189004     
   6.8400000000000002E-002    0.83634276716396228     
   6.8700000000000011E-002    0.92686374686197337     
   6.8999999999999992E-002    0.96414973141676630     
   6.9300000000000000E-002    0.94250221864787365     
   6.9600000000000009E-002    0.86240668847909141     
   6.9900000000000004E-002    0.73273195432160154     
   7.0199999999999999E-002    0.56735630232316314     
   7.0500000000000007E-002    0.38736860084789015     
   7.0800000000000016E-002    0.21601825283545520     
   7.1099999999999997E-002     7.8428526714583627E-002
   7.1400000000000005E-002    -2.7898674637634700E-003
   7.1700000000000000E-002    -8.7124653642714194E-003
   7.1999999999999995E-002     7.2519097070013847E-002
   7.2300000000000003E-002    0.24518648632127005     
   7.2600000000000012E-002    0.50438659556055454     
   7.2900000000000006E-002    0.83718090299540970     
   7.3200000000000001E-002     1.2223979134573777     
   7.3499999999999996E-002     1.6340761085134594     
   7.3800000000000004E-002     2.0413212684819406     
   7.4099999999999999E-002     2.4141135137428105     
   7.4400000000000008E-002     2.7215692938266480     
   7.4700000000000003E-002     2.9385919535151830     
   7.5000000000000011E-002     3.0439512720791426     
   7.5299999999999992E-002     3.0244197864340352     
   7.5600000000000001E-002     2.8730409192227544     
   7.5900000000000009E-002     2.5920033526847508     
   7.6200000000000004E-002     2.1900155637387577     
   7.6499999999999999E-002     1.6837459910134209     
   7.6800000000000007E-002     1.0952040071574849     
   7.7099999999999988E-002    0.45277605579136754     
   7.7399999999999997E-002   -0.21239631362872338     
   7.7700000000000005E-002   -0.86561261810593948     
   7.8000000000000014E-002    -1.4720077462658414     
   7.8299999999999995E-002    -1.9962612371860267     
   7.8600000000000003E-002    -2.4070405975882965     
   7.8900000000000012E-002    -2.6762378265048654     
   7.9199999999999993E-002    -2.7834742144971849     
   7.9500000000000001E-002    -2.7158515546538999     
   7.9800000000000010E-002    -2.4717114068173034     
   8.0100000000000018E-002    -2.0589361275233706     
   8.0399999999999999E-002    -1.4984281117901976     
   8.0700000000000008E-002   -0.82097035734505075     
   8.1000000000000003E-002    -6.7468116456144867E-002
   8.1299999999999997E-002    0.71426345149391302     
   8.1600000000000006E-002     1.4717227420350794     
   8.1900000000000014E-002     2.1523990906262709     
   8.2199999999999995E-002     2.7071183069799503     
   8.2500000000000004E-002     3.0942702686172363     
   8.2799999999999999E-002     3.2830803815927738     
   8.3100000000000007E-002     3.2570963327870524     
   8.3400000000000002E-002     3.0142469797783416     
   8.3700000000000011E-002     2.5694432587101619     
   8.4000000000000005E-002     1.9513136383372134     
   8.4300000000000000E-002     1.2015032882909900     
   8.4599999999999995E-002    0.37042402967254040     
   8.4900000000000003E-002   -0.48705549809046472     
   8.5199999999999998E-002    -1.3154198259470773     
   8.5500000000000007E-002    -2.0646677486694482     
   8.5800000000000001E-002    -2.6927495593933362     
   8.6100000000000010E-002    -3.1699927536554400     
   8.6399999999999991E-002    -3.4809609198785374     
   8.6699999999999999E-002    -3.6246856014560720     
   8.7000000000000008E-002    -3.6143730417348476     
   8.7300000000000003E-002    -3.4753826331814466     
   8.7599999999999997E-002    -3.2418673610032469     
   8.7900000000000006E-002    -2.9534786198443777     
   8.8200000000000014E-002    -2.6506357508921963     
   8.8499999999999995E-002    -2.3708779988996893     
   8.8800000000000004E-002    -2.1451914355889317     
   8.9100000000000013E-002    -1.9955762554686449     
   8.9399999999999993E-002    -1.9324917632200158     
   8.9700000000000002E-002    -1.9557491317204632     
   9.0000000000000011E-002    -2.0533342106332708     
   9.0299999999999991E-002    -2.2046963911823911     
   9.0600000000000000E-002    -2.3818678623731762     
   9.0900000000000009E-002    -2.5530834010686223     
   9.1200000000000017E-002    -2.6855573525657532     
   9.1499999999999998E-002    -2.7498402530671719     
   9.1800000000000007E-002    -2.7202444074906498     
   9.2100000000000001E-002    -2.5803933195786213     
   9.2399999999999996E-002    -2.3211650942504387     
   9.2700000000000005E-002    -1.9455193400015136     
   9.3000000000000013E-002    -1.4638602859992180     
   9.3300000000000008E-002   -0.89740843736674836     
   9.3600000000000003E-002   -0.27320645150421918     
   9.3899999999999997E-002    0.37639468425993433     
   9.4200000000000006E-002     1.0171529057477484     
   9.4500000000000001E-002     1.6147147479374679     
   9.4800000000000009E-002     2.1402096873469052     
   9.5100000000000004E-002     2.5682559203422546     
   9.5399999999999999E-002     2.8832109226397518     
   9.5699999999999993E-002     3.0765776945307604     
   9.6000000000000002E-002     3.1513436201548726     
   9.6300000000000011E-002     3.1163287565952746     
   9.6600000000000005E-002     2.9911385013845573     
   9.6900000000000000E-002     2.7974679916427565     
   9.7200000000000009E-002     2.5630884614500715     
   9.7499999999999989E-002     2.3144939369901754     
   9.7799999999999998E-002     2.0774410155261354     
   9.8100000000000007E-002     1.8722437946659969     
   9.8400000000000015E-002     1.7150054227022951     
   9.8699999999999996E-002     1.6116869606814741     
   9.9000000000000005E-002     1.5628700308216836     
   9.9300000000000013E-002     1.5587902009798282     
   9.9599999999999994E-002     1.5842345780649829     
   9.9900000000000003E-002     1.6156464538558675     
  0.10020000000000001          1.6284827819753562     
  0.10049999999999999          1.5929344464599668     
  0.10080000000000000          1.4848142406044227     
  0.10110000000000001          1.2810467044143989     
  0.10140000000000000         0.97007175573722548     
  0.10170000000000000         0.54876360865820462     
  0.10200000000000001          3.1576635019070862E-002
  0.10230000000000002        -0.55517564430725552     
  0.10260000000000000         -1.1649492527314185     
  0.10290000000000001         -1.7397014344994084     
  0.10320000000000000         -2.2082394510651215     
  0.10350000000000001         -2.4953118452075822     
  0.10380000000000000         -2.5261064466327010     
  0.10410000000000001         -2.2386997548600718     
  0.10440000000000001         -1.5899010553724287     
  0.10470000000000000        -0.56712107452351546     
  0.10500000000000000         0.80636409575514589     
  0.10530000000000000          2.4655681078809528     
  0.10560000000000000          4.3054847459532146     
  0.10590000000000001          6.1823805723430612     
  0.10620000000000000          7.9268057862105117     
  0.10650000000000001          9.3527934263199253     
  0.10679999999999999          10.279218336010294     
  0.10710000000000000          10.544041243237194     
  0.10740000000000001          10.026958047112064     
  0.10770000000000000          8.6630654936182943     
  0.10800000000000000          6.4562350266835651     
  0.10830000000000001          3.4853684142762460     
  0.10859999999999999         -9.6428551147228508E-002
  0.10890000000000000         -4.0706540092728254     
  0.10920000000000001         -8.1663083582885818     
  0.10950000000000001         -12.085380364900042     
  0.10979999999999999         -15.522287994165810     
  0.11009999999999999         -18.194987800194333     
  0.11040000000000001         -19.867267063041204     
  0.11070000000000001         -20.372165074729555     
  0.11100000000000000         -19.626546235854374     
  0.11130000000000000         -17.639989253511207     
  0.11160000000000002         -14.515057030551588     
  0.11190000000000001         -10.436899708890856     
  0.11220000000000001         -5.6617767220520951     
  0.11250000000000000        -0.49042499435959114     
  0.11280000000000000          4.7513565865224265     
  0.11309999999999999          9.7414844691821436     
  0.11340000000000001          14.184724490815206     
  0.11369999999999998          17.833976306891969     
  0.11400000000000000          20.501281207323661     
  0.11430000000000000          22.075314885483696     
  0.11460000000000002          22.513150555015184     
  0.11489999999999999          21.845511786204149     
  0.11520000000000001          20.162515076916765     
  0.11550000000000001          17.604512671180533     
  0.11580000000000000          14.345274513847524     
  0.11609999999999999          10.578209564456074     
  0.11640000000000002          6.5020625904595351     
  0.11670000000000001          2.3085659924021829     
  0.11700000000000001         -1.8290714019462637     
  0.11730000000000000         -5.7593249337596824     
  0.11760000000000000         -9.3599956665302813     
  0.11789999999999999         -12.537129158291229     
  0.11820000000000001         -15.225715338823878     
  0.11850000000000001         -17.383975643936925     
  0.11880000000000000         -18.994521728860956     
  0.11910000000000000         -20.054105378104047     
  0.11940000000000002         -20.575524899186501     
  0.11970000000000001         -20.577083208563693     
  0.12000000000000001         -20.085979095970078     
  0.12030000000000000         -19.131137502291413     
  0.12060000000000000         -17.743091263385331     
  0.12089999999999999         -15.955422112069794     
  0.12119999999999999         -13.803670628626111     
  0.12150000000000001         -11.327566884362176     
  0.12180000000000001         -8.5718143628257799     
  0.12210000000000000         -5.5910285609034078     
  0.12239999999999999         -2.4462832582582963     
  0.12270000000000002         0.79020318725079142     
  0.12300000000000001          4.0369901491943434     
  0.12330000000000001          7.2064265546218245     
  0.12360000000000000          10.204787141117107     
  0.12390000000000000          12.941257319507196     
  0.12419999999999999          15.325732988473307     
  0.12450000000000001          17.281514892320171     
  0.12480000000000001          18.745849354988316     
  0.12509999999999999          19.673488345751416     
  0.12540000000000001          20.045060831884477     
  0.12570000000000003          19.860366542471244     
  0.12600000000000000          19.149596897585326     
  0.12630000000000002          17.957906468715912     
  0.12659999999999999          16.355993038453356     
  0.12690000000000001          14.425969871696813     
  0.12719999999999998          12.260599913845358     
  0.12750000000000000          9.9561546783440402     
  0.12780000000000002          7.6082433517935746     
  0.12809999999999999          5.3043560148096374     
  0.12840000000000001          3.1210455343446588     
  0.12869999999999998          1.1199886502327914     
  0.12900000000000000        -0.65495074529253372     
  0.12930000000000003         -2.1786033990045102     
  0.12959999999999999         -3.4438748084047925     
  0.12990000000000002         -4.4602236342754944     
  0.13019999999999998         -5.2523836579599692     
  0.13050000000000000         -5.8565286993138583     
  0.13080000000000003         -6.3140248584023073     
  0.13109999999999999         -6.6730975371879726     
  0.13140000000000002         -6.9761575860914284     
  0.13169999999999998         -7.2641362295535679     
  0.13200000000000001         -7.5696548509385053     
  0.13229999999999997         -7.9099267952136865     
  0.13260000000000000         -8.2951811727829998     
  0.13290000000000002         -8.7187374957111636     
  0.13319999999999999         -9.1620577659244677     
  0.13350000000000001         -9.5957049186841310     
  0.13380000000000003         -9.9808939736207307     
  0.13410000000000000         -10.274404410938839     
  0.13440000000000002         -10.427986986412764     
  0.13469999999999999         -10.400525938990356     
  0.13500000000000001         -10.152453321883469     
  0.13529999999999998         -9.6570204772074586     
  0.13560000000000000         -8.8987139851577624     
  0.13590000000000002         -7.8795246403761698     
  0.13619999999999999         -6.6148361629005779     
  0.13650000000000001         -5.1380190473557086     
  0.13680000000000003         -3.4983005306585544     
  0.13710000000000000         -1.7541245166446493     
  0.13740000000000002          2.3655672876105437E-002
  0.13769999999999999          1.7636906853283523     
  0.13800000000000001          3.3920616722761165     
  0.13829999999999998          4.8414248922488392     
  0.13860000000000000          6.0558294654850267     
  0.13890000000000002          6.9903644846450881     
  0.13919999999999999          7.6193036312825928     
  0.13950000000000001          7.9344786851275231     
  0.13979999999999998          7.9461840833716950     
  0.14010000000000000          7.6827267870318661     
  0.14040000000000002          7.1891454958140777     
  0.14069999999999999          6.5199708300411894     
  0.14100000000000001          5.7405814550978258     
  0.14130000000000004          4.9165153000923425     
  0.14160000000000000          4.1127104327945192     
  0.14189999999999997          3.3868858450488859     
  0.14219999999999999          2.7849478415835445     
  0.14250000000000002          2.3382844666432825     
  0.14279999999999998          2.0634324326033222     
  0.14310000000000000          1.9565760886390067     
  0.14339999999999997          2.0006940172310728     
  0.14369999999999999          2.1618304065553460     
  0.14400000000000002          2.3982231431497163     
  0.14429999999999998          2.6585039913948529     
  0.14460000000000001          2.8931972814263376     
  0.14490000000000003          3.0529162743182994     
  0.14520000000000000          3.0986130132331193     
  0.14550000000000002          2.9987122956710532     
  0.14579999999999999          2.7393195629920122     
  0.14610000000000001          2.3167469563562704     
  0.14640000000000003          1.7424063806031136     
  0.14670000000000000          1.0421874699350815     
  0.14699999999999996         0.24805291697763943     
  0.14729999999999999        -0.59861413154046805     
  0.14760000000000001         -1.4529192190250162     
  0.14789999999999998         -2.2727958900685672     
  0.14820000000000000         -3.0148479698916013     