  -1.4999999999999999E-002     0.0000000000000000     
  -1.4700000000000000E-002     0.0000000000000000     
  -1.4400000000000000E-002     0.0000000000000000     
  -1.4100000000000000E-002     0.0000000000000000     
  -1.3800000000000000E-002     0.0000000000000000     
  -1.3500000000000000E-002     0.0000000000000000     
  -1.3200000000000000E-002     0.0000000000000000     
  -1.2899999999999998E-002     0.0000000000000000     
  -1.2600000000000000E-002     0.0000000000000000     
  -1.2299999999999998E-002     0.0000000000000000     
  -1.2000000000000000E-002     0.0000000000000000     
  -1.1699999999999999E-002     0.0000000000000000     
  -1.1399999999999999E-002     0.0000000000000000     
  -1.1099999999999999E-002     0.0000000000000000     
  -1.0799999999999999E-002     0.0000000000000000     
  -1.0499999999999999E-002     0.0000000000000000     
  -1.0199999999999999E-002     0.0000000000000000     
  -9.8999999999999991E-003     0.0000000000000000     
  -9.5999999999999992E-003     0.0000000000000000     
  -9.2999999999999992E-003     0.0000000000000000     
  -8.9999999999999993E-003     0.0000000000000000     
  -8.6999999999999994E-003     0.0000000000000000     
  -8.3999999999999995E-003     0.0000000000000000     
  -8.0999999999999996E-003     0.0000000000000000     
  -7.7999999999999988E-003     0.0000000000000000     
  -7.4999999999999997E-003     0.0000000000000000     
  -7.1999999999999998E-003     0.0000000000000000     
  -6.8999999999999981E-003     0.0000000000000000     
  -6.5999999999999982E-003     0.0000000000000000     
  -6.3000000000000000E-003     0.0000000000000000     
  -6.0000000000000001E-003     0.0000000000000000     
  -5.6999999999999985E-003     0.0000000000000000     
  -5.3999999999999986E-003     0.0000000000000000     
  -5.1000000000000004E-003     0.0000000000000000     
  -4.7999999999999987E-003     0.0000000000000000     
  -4.5000000000000005E-003     0.0000000000000000     
  -4.1999999999999989E-003     0.0000000000000000     
  -3.8999999999999990E-003     0.0000000000000000     
  -3.5999999999999990E-003     0.0000000000000000     
  -3.2999999999999991E-003     0.0000000000000000     
  -2.9999999999999992E-003     0.0000000000000000     
  -2.6999999999999993E-003     0.0000000000000000     
  -2.3999999999999994E-003     0.0000000000000000     
  -2.0999999999999977E-003     0.0000000000000000     
  -1.7999999999999995E-003     0.0000000000000000     
  -1.4999999999999979E-003     0.0000000000000000     
  -1.1999999999999997E-003     0.0000000000000000     
  -8.9999999999999976E-004     0.0000000000000000     
  -5.9999999999999810E-004     0.0000000000000000     
  -2.9999999999999992E-004     0.0000000000000000     
   0.0000000000000000          0.0000000000000000     
   3.0000000000000165E-004     0.0000000000000000     
   5.9999999999999984E-004     0.0000000000000000     
   9.0000000000000149E-004     0.0000000000000000     
   1.2000000000000031E-003     0.0000000000000000     
   1.5000000000000013E-003     0.0000000000000000     
   1.8000000000000030E-003     0.0000000000000000     
   2.1000000000000012E-003     0.0000000000000000     
   2.3999999999999994E-003     0.0000000000000000     
   2.7000000000000010E-003     0.0000000000000000     
   2.9999999999999992E-003     0.0000000000000000     
   3.3000000000000008E-003     0.0000000000000000     
   3.6000000000000025E-003     0.0000000000000000     
   3.9000000000000007E-003     0.0000000000000000     
   4.2000000000000023E-003     0.0000000000000000     
   4.5000000000000005E-003     0.0000000000000000     
   4.7999999999999987E-003     0.0000000000000000     
   5.1000000000000004E-003    -5.3107538548037303E-046
   5.4000000000000020E-003     8.6969006340551928E-036
   5.7000000000000037E-003     7.0840239962026387E-035
   5.9999999999999984E-003    -3.1271536703258531E-034
   6.3000000000000000E-003     7.2323126403106368E-034
   6.6000000000000017E-003    -3.5031905326217544E-033
   6.9000000000000034E-003     6.9606743412474375E-033
   7.2000000000000015E-003     7.7104765993711650E-034
   7.5000000000000032E-003    -4.0593577722192618E-032
   7.8000000000000014E-003     9.6294602067659404E-032
   8.0999999999999996E-003    -3.2755344086551047E-032
   8.4000000000000012E-003    -3.5014581454238733E-031
   8.7000000000000029E-003     8.4257757647724788E-031
   9.0000000000000011E-003    -1.7253079402130216E-031
   9.2999999999999992E-003    -3.1814136103214162E-030
   9.6000000000000009E-003     6.8440792238386612E-030
   9.8999999999999991E-003    -3.9354440342279666E-031
   1.0200000000000001E-002    -2.5677588154072781E-029
   1.0500000000000002E-002     4.8202007317279594E-029
   1.0800000000000004E-002     9.4549297460721646E-030
   1.1099999999999999E-002    -1.9311946528509777E-028
   1.1400000000000000E-002     2.9853256895208071E-028
   1.1700000000000002E-002     1.8240791155945710E-028
   1.2000000000000004E-002    -1.3553977350093093E-027
   1.2300000000000002E-002     1.5970236974624092E-027
   1.2600000000000000E-002     2.0610480852237261E-027
   1.2900000000000002E-002    -8.7358905473619619E-027
   1.3200000000000000E-002     7.0179595588086818E-027
   1.3500000000000002E-002     1.7735063919787814E-026
   1.3800000000000003E-002    -5.0561094595353262E-026
   1.4100000000000001E-002     2.1983648834734325E-026
   1.4400000000000000E-002     1.2451188509224387E-025
   1.4700000000000001E-002    -2.5807701593623173E-025
   1.4999999999999999E-002     1.6762366901135051E-026
   1.5300000000000001E-002     7.3542025428575676E-025
   1.5600000000000003E-002    -1.1441694657913280E-024
   1.5899999999999997E-002    -3.8451348282458409E-025
   1.6199999999999999E-002     3.7109514154601486E-024
   1.6500000000000001E-002    -4.3218576214053091E-024
   1.6800000000000002E-002    -3.5717873687324268E-024
   1.7100000000000004E-002     1.6091910139637615E-023
   1.7400000000000006E-002    -1.3464289028380017E-023
   1.7700000000000000E-002    -2.0657118359657691E-023
   1.8000000000000002E-002     5.9849661812599517E-023
   1.8300000000000004E-002    -3.2260814394921032E-023
   1.8600000000000005E-002    -9.1725534157370375E-023
   1.8900000000000000E-002     1.8920562245255542E-022
   1.9200000000000002E-002    -4.7873320215213127E-023
   1.9500000000000003E-002    -3.2728417497586458E-022
   1.9799999999999998E-002     5.0093048617410361E-022
   2.0100000000000000E-002     1.3235860830729961E-023
   2.0400000000000001E-002    -9.3841984822057097E-022
   2.0700000000000003E-002     1.0965050482982844E-021
   2.0999999999999998E-002     2.8757845104054359E-022
   2.1299999999999999E-002    -2.1021717613811286E-021
   2.1600000000000001E-002     2.0612079120921262E-021
   2.1900000000000003E-002     5.0964594701183538E-022
   2.2200000000000004E-002    -3.4541503780958718E-021
   2.2500000000000006E-002     4.1670344038150532E-021
   2.2800000000000001E-002    -1.8661724202111938E-021
   2.3100000000000002E-002    -3.0992675817749856E-021
   2.3400000000000004E-002     7.3657811112157696E-021
   2.3699999999999999E-002    -2.8323917471560210E-021
   2.4000000000000000E-002     1.0371545890407608E-020
   2.4300000000000002E-002    -1.4221796971302883E-019
   2.4599999999999997E-002     4.1279025973747770E-019
   2.4900000000000005E-002     1.5552934137660434E-019
   2.5200000000000000E-002    -4.0041828990175192E-018
   2.5499999999999995E-002     9.4873194112286558E-018
   2.5800000000000003E-002     4.5105895440776349E-018
   2.6099999999999998E-002    -7.2605077421464382E-017
   2.6400000000000007E-002     1.2702404172327412E-016
   2.6700000000000002E-002     1.8539142265375974E-016
   2.6999999999999996E-002    -1.0826440409736218E-015
   2.7300000000000005E-002     7.6574728408460597E-016
   2.7600000000000000E-002     4.9577796941759282E-015
   2.7900000000000008E-002    -1.1709859880980230E-014
   2.8200000000000003E-002    -1.1194797296332844E-014
   2.8499999999999998E-002     8.0342420585424212E-014
   2.8800000000000006E-002    -4.6467548150780863E-014
   2.9100000000000001E-002    -3.6464329750019535E-013
   2.9400000000000003E-002     6.9734935889658495E-013
   2.9700000000000004E-002     9.4499580939045331E-013
   3.0000000000000006E-002    -4.3935053038761769E-012
   3.0300000000000001E-002     6.3870593476463608E-013
   3.0600000000000002E-002     1.8279531901502310E-011
   3.0900000000000004E-002    -2.0982164789167082E-011
   3.1199999999999999E-002    -5.2195985906091026E-011
   3.1500000000000007E-002     1.2548210800550697E-010
   3.1800000000000002E-002     8.3867568745631094E-011
   3.2099999999999997E-002    -4.9982489354843516E-010
   3.2400000000000005E-002     8.7894331315040673E-011
   3.2700000000000000E-002     1.5381702842437410E-009
   3.3000000000000002E-002    -1.2894481294197457E-009
   3.3300000000000003E-002    -3.7552516981124875E-009
   3.3599999999999998E-002     6.0786239056632452E-009
   3.3900000000000000E-002     6.6636568893843106E-009
   3.4200000000000001E-002    -2.0679930334014034E-008
   3.4500000000000003E-002    -4.3730521560750764E-009
   3.4799999999999998E-002     5.5562853543970106E-008
   3.5099999999999999E-002    -2.4952087996524914E-008
   3.5400000000000001E-002    -1.2036259154166383E-007
   3.5699999999999996E-002     1.1641815701909913E-007
   3.6000000000000004E-002     1.7379044210701259E-007
   3.6299999999999999E-002    -1.8310980957808418E-007
   3.6600000000000008E-002     1.1879528096543227E-006
   3.6900000000000002E-002     5.9232571021703800E-006
   3.7199999999999997E-002     1.2671136220367889E-005
   3.7500000000000006E-002     2.1415159506533637E-005
   3.7800000000000000E-002     3.3667615019635922E-005
   3.8100000000000009E-002     4.8459311828231176E-005
   3.8400000000000004E-002     6.8088182379747212E-005
   3.8699999999999998E-002     1.0133313692601413E-004
   3.9000000000000007E-002     1.5492413296740951E-004
   3.9300000000000002E-002     2.3480548496888502E-004
   3.9600000000000003E-002     3.5324885934950368E-004
   3.9900000000000005E-002     5.2345116591077576E-004
   4.0200000000000000E-002     7.5904904789529865E-004
   4.0500000000000001E-002     1.0834861956336961E-003
   4.0800000000000003E-002     1.5270408940218617E-003
   4.1100000000000005E-002     2.1187294272039404E-003
   4.1399999999999999E-002     2.8898481921032018E-003
   4.1700000000000008E-002     3.8772540468200076E-003
   4.2000000000000003E-002     5.1166827695163508E-003
   4.2299999999999997E-002     6.6407688359241138E-003
   4.2600000000000006E-002     8.4833509232562429E-003
   4.2900000000000001E-002     1.0673364293596875E-002
   4.3200000000000002E-002     1.3212878813391482E-002
   4.3500000000000004E-002     1.6064121909995496E-002
   4.3799999999999999E-002     1.9157250919277904E-002
   4.4100000000000000E-002     2.2406791852265451E-002
   4.4400000000000002E-002     2.5709675244477630E-002
   4.4700000000000004E-002     2.8930931976724420E-002
   4.4999999999999998E-002     3.1888257526557232E-002
   4.5300000000000000E-002     3.4379620088155295E-002
   4.5600000000000002E-002     3.6236930829601173E-002
   4.5899999999999996E-002     3.7331946622515523E-002
   4.6200000000000005E-002     3.7573248834676838E-002
   4.6500000000000000E-002     3.6947210330834243E-002
   4.6799999999999994E-002     3.5534826328875724E-002
   4.7100000000000003E-002     3.3485398974947699E-002
   4.7399999999999998E-002     3.1004025956458750E-002
   4.7700000000000006E-002     2.8336019456899435E-002
   4.8000000000000001E-002     2.5699856531718947E-002
   4.8300000000000010E-002     2.3182599061165744E-002
   4.8600000000000004E-002     2.0655327786910389E-002
   4.8899999999999999E-002     1.7690669969961194E-002
   4.9200000000000008E-002     1.3469020821179669E-002
   4.9500000000000002E-002     6.7534704297054415E-003
   4.9800000000000011E-002    -4.1089575893359705E-003
   5.0100000000000006E-002    -2.1131668882157641E-002
   5.0400000000000000E-002    -4.6532492514342598E-002
   5.0700000000000009E-002    -8.2477516995909730E-002
   5.1000000000000004E-002   -0.13080128188209758     
   5.1299999999999998E-002   -0.19268282281463495     
   5.1600000000000007E-002   -0.26829237059612049     
   5.1900000000000002E-002   -0.35646510146245491     
   5.2200000000000010E-002   -0.45444208040939793     
   5.2500000000000005E-002   -0.55782353112880678     
   5.2800000000000000E-002   -0.66058431834366060     
   5.3099999999999994E-002   -0.75534646022373253     
   5.3400000000000003E-002   -0.83382813012396362     
   5.3699999999999998E-002   -0.88736972718883966     
   5.4000000000000006E-002   -0.90778741481241865     
   5.4300000000000001E-002   -0.88804939493199597     
   5.4599999999999996E-002   -0.82310083623887698     
   5.4900000000000004E-002   -0.71052268433503107     
   5.5199999999999999E-002   -0.55100796241672634     
   5.5499999999999994E-002   -0.34854547281886256     
   5.5800000000000002E-002   -0.11060770800441129     
   5.6099999999999997E-002    0.15258865660350501     
   5.6400000000000006E-002    0.42811310156965243     
   5.6700000000000000E-002    0.70175295191187070     
   5.6999999999999995E-002    0.95859049172991628     
   5.7300000000000004E-002     1.1843385476467041     
   5.7599999999999998E-002     1.3661467758954808     
   5.7900000000000007E-002     1.4939875296611851     
   5.8200000000000002E-002     1.5607614191649033     
   5.8499999999999996E-002     1.5635765462062539     
   5.8800000000000005E-002     1.5031363648465585     
   5.9100000000000000E-002     1.3845253894442768     
   5.9400000000000008E-002     1.2160081614286458     
   5.9700000000000003E-002     1.0089398420936524     
   6.0000000000000012E-002    0.77647809681756619     
   6.0300000000000006E-002    0.53295110691834224     
   6.0600000000000001E-002    0.29253413806439454     
   6.0900000000000010E-002     6.8493455277504681E-002
   6.1200000000000004E-002   -0.12804412541820298     
   6.1500000000000013E-002   -0.28839435654186668     
   6.1800000000000008E-002   -0.40707650165435300     
   6.2100000000000002E-002   -0.48164760481957064     
   6.2399999999999997E-002   -0.51303666389118630     
   6.2700000000000006E-002   -0.50481354991018224     
   6.3000000000000000E-002   -0.46296659220223180     
   6.3300000000000009E-002   -0.39476725917407424     
   6.3600000000000004E-002   -0.30875609131055831     
   6.3899999999999998E-002   -0.21308971582501654     
   6.4199999999999993E-002   -0.11595564238337307     
   6.4500000000000002E-002    -2.4050128551126138E-002
   6.4800000000000010E-002     5.6887736791731848E-002
   6.5100000000000005E-002    0.12279776350085886     
   6.5400000000000000E-002    0.17096771307125103     
   6.5700000000000008E-002    0.20019623886111743     
   6.5999999999999989E-002    0.21004544781953247     
   6.6299999999999998E-002    0.20138386877324213     
   6.6600000000000006E-002    0.17527592133730799     
   6.6900000000000001E-002    0.13366432918348878     
   6.7199999999999996E-002     7.8632021176995678E-002
   6.7500000000000004E-002     1.2854730587086046E-002
   6.7800000000000013E-002    -6.0734823822236238E-002
   6.8099999999999994E-002   -0.13857873573393056     
   6.8400000000000002E-002   -0.21658255642525795     
   6.8700000000000011E-002   -0.29005244636815325     
   6.8999999999999992E-002   -0.35409206283488165     
   6.9300000000000000E-002   -0.40323102583075654     
   6.9600000000000009E-002   -0.43251168922827743     
   6.9900000000000004E-002   -0.43743241229578012     
   7.0199999999999999E-002   -0.41481349583106641     
   7.0500000000000007E-002   -0.36318181103220282     
   7.0800000000000016E-002   -0.28345950122082358     
   7.1099999999999997E-002   -0.17916574367414378     
   7.1400000000000005E-002    -5.6721098335439112E-002
   7.1700000000000000E-002     7.4822232971943944E-002
   7.1999999999999995E-002    0.20389734350186642     
   7.2300000000000003E-002    0.31738848486130844     
   7.2600000000000012E-002    0.40148216927346425     
   7.2900000000000006E-002    0.44282048967125470     
   7.3200000000000001E-002    0.42996307987946419     
   7.3499999999999996E-002    0.35442968939051650     
   7.3800000000000004E-002    0.21200939923928283     
   7.4099999999999999E-002     3.5379224813084421E-003
   7.4400000000000008E-002   -0.26457764766565778     
   7.4700000000000003E-002   -0.58044822251602346     
   7.5000000000000011E-002   -0.92708260072246740     
   7.5299999999999992E-002    -1.2835704003929929     
   7.5600000000000001E-002    -1.6261638203622921     
   7.5900000000000009E-002    -1.9304028435870086     
   7.6200000000000004E-002    -2.1727330264141349     
   7.6499999999999999E-002    -2.3326258145264838     
   7.6800000000000007E-002    -2.3940624602478819     
   7.7099999999999988E-002    -2.3471738653895575     
   7.7399999999999997E-002    -2.1890217597283539     
   7.7700000000000005E-002    -1.9239628853414137     
   7.8000000000000014E-002    -1.5631614307271682     
   7.8299999999999995E-002    -1.1243128226349828     
   7.8600000000000003E-002   -0.62972147658086586     
   7.8900000000000012E-002   -0.10511117717822620     
   7.9199999999999993E-002    0.42308642595804274     
   7.9500000000000001E-002    0.92808581095178222     
   7.9800000000000010E-002     1.3865986984793206     
   8.0100000000000018E-002     1.7782528178656496     
   8.0399999999999999E-002     2.0883409618794633     
   8.0700000000000008E-002     2.3070728299241630     
   8.1000000000000003E-002     2.4306253805176805     
   8.1299999999999997E-002     2.4602488811722516     
   8.1600000000000006E-002     2.4022621396806025     
   8.1900000000000014E-002     2.2662438612027169     
   8.2199999999999995E-002     2.0653695331345374     
   8.2500000000000004E-002     1.8138795396724854     
   8.2799999999999999E-002     1.5280323585743438     
   8.3100000000000007E-002     1.2233914777625083     
   8.3400000000000002E-002    0.91627611184709234     
   8.3700000000000011E-002    0.62154575809320078     
   8.4000000000000005E-002    0.35353157768469828     
   8.4300000000000000E-002    0.12441266915569507     
   8.4599999999999995E-002    -5.4540784281347204E-002
   8.4900000000000003E-002   -0.17551827608032883     
   8.5199999999999998E-002   -0.23246549883652656     
   8.5500000000000007E-002   -0.22387600129265717     
   8.5800000000000001E-002   -0.15111011107781647     
   8.6100000000000010E-002    -2.0866950632143239E-002
   8.6399999999999991E-002    0.15676267421758885     
   8.6699999999999999E-002    0.36693831748393990     
   8.7000000000000008E-002    0.59207309994656909     
   8.7300000000000003E-002    0.81142962773454252     
   8.7599999999999997E-002     1.0049492098243173     
   8.7900000000000006E-002     1.1519685859637889     
   8.8200000000000014E-002     1.2360468882828248     
   8.8499999999999995E-002     1.2442315517251903     
   8.8800000000000004E-002     1.1701942323831187     
   8.9100000000000013E-002     1.0135401097957186     
   8.9399999999999993E-002    0.78184541122638496     
   8.9700000000000002E-002    0.48800938673297661     
   9.0000000000000011E-002    0.15123276316055292     
   9.0299999999999991E-002   -0.20712441982897603     
   9.0600000000000000E-002   -0.56320126149125349     
   9.0900000000000009E-002   -0.89544344123582020     
   9.1200000000000017E-002    -1.1850254437850902     
   9.1499999999999998E-002    -1.4191052701116866     
   9.1800000000000007E-002    -1.5907550730661801     
   9.2100000000000001E-002    -1.7007048907155011     
   9.2399999999999996E-002    -1.7563182812064051     
   9.2700000000000005E-002    -1.7703378832857597     
   9.3000000000000013E-002    -1.7592732300375196     
   9.3300000000000008E-002    -1.7417374212893262     
   9.3600000000000003E-002    -1.7345579213065105     
   9.3899999999999997E-002    -1.7524054593811023     
   9.4200000000000006E-002    -1.8039473854209707     
   9.4500000000000001E-002    -1.8923925747853807     
   9.4800000000000009E-002    -2.0132610233104122     
   9.5100000000000004E-002    -2.1561598264981776     
   9.5399999999999999E-002    -2.3048281220796265     
   9.5699999999999993E-002    -2.4390306098085404     
   9.6000000000000002E-002    -2.5362846560826462     
   9.6300000000000011E-002    -2.5747353831922863     
   9.6600000000000005E-002    -2.5339431661232288     
   9.6900000000000000E-002    -2.3979215619822027     
   9.7200000000000009E-002    -2.1556050873876331     
   9.7499999999999989E-002    -1.8020321319685053     
   9.7799999999999998E-002    -1.3384042059451797     
   9.8100000000000007E-002   -0.77254781588184473     
   9.8400000000000015E-002   -0.11708324685780186     
   9.8699999999999996E-002    0.60953690177193187     
   9.9000000000000005E-002     1.3857222331860606     
   9.9300000000000013E-002     2.1868137842512003     
   9.9599999999999994E-002     2.9859230053458572     
   9.9900000000000003E-002     3.7549411802760959     
  0.10020000000000001          4.4660434298286376     
  0.10049999999999999          5.0910920698506068     
  0.10080000000000000          5.6034392937745441     
  0.10110000000000001          5.9786014205883236     
  0.10140000000000000          6.1955446861271302     
  0.10170000000000000          6.2362332017549544     
  0.10200000000000001          6.0891856821291155     
  0.10230000000000002          5.7480263380566461     
  0.10260000000000000          5.2148985523625004     
  0.10290000000000001          4.4983429559700250     
  0.10320000000000000          3.6168043253586037     
  0.10350000000000001          2.5953857533344000     
  0.10380000000000000          1.4676485887283928     
  0.10410000000000001         0.27229225028241449     
  0.10440000000000001        -0.94671509097513873     
  0.10470000000000000         -2.1435866668011041     
  0.10500000000000000         -3.2728696140767082     
  0.10530000000000000         -4.2913794734139650     
  0.10560000000000000         -5.1601791532027086     
  0.10590000000000001         -5.8489770957629847     
  0.10620000000000000         -6.3334956144844785     
  0.10650000000000001         -6.6009721624816997     
  0.10679999999999999         -6.6467370741324476     
  0.10710000000000000         -6.4775046933051943     
  0.10740000000000001         -6.1071967584961619     
  0.10770000000000000         -5.5590605120122571     
  0.10800000000000000         -4.8619093167686307     
  0.10830000000000001         -4.0495485438514960     
  0.10859999999999999         -3.1576642102874946     
  0.10890000000000000         -2.2240487608594894     
  0.10920000000000001         -1.2837873979296996     
  0.10950000000000001        -0.37135249748700594     
  0.10979999999999999         0.48547504910674955     
  0.11009999999999999          1.2610734113115272     
  0.11040000000000001          1.9381239827238654     
  0.11070000000000001          2.5038120939385515     
  0.11100000000000000          2.9522502375671476     
  0.11130000000000000          3.2818832109379490     
  0.11160000000000002          3.4972161732704530     
  0.11190000000000001          3.6059338337642610     
  0.11220000000000001          3.6176888086768750     
  0.11250000000000000          3.5451001177665864     
  0.11280000000000000          3.4010824192911575     
  0.11309999999999999          3.1971913854919909     
  0.11340000000000001          2.9467469846828607     
  0.11369999999999998          2.6597327561570174     
  0.11400000000000000          2.3476714678666069     
  0.11430000000000000          2.0187313389307779     
  0.11460000000000002          1.6822965224826734     
  0.11489999999999999          1.3466885401521975     
  0.11520000000000001          1.0189056908531495     
  0.11550000000000001         0.70632720677912875     
  0.11580000000000000         0.41533069458344518     
  0.11609999999999999         0.15030111865487378     
  0.11640000000000002         -8.5030471538135824E-002
  0.11670000000000001        -0.29002835395102516     
  0.11700000000000001        -0.46490741025161836     
  0.11730000000000000        -0.61480052947405295     
  0.11760000000000000        -0.74413058376015717     
  0.11789999999999999        -0.86111192567877404     
  0.11820000000000001        -0.97422563913904581     
  0.11850000000000001         -1.0919154959437796     
  0.11880000000000000         -1.2218465930070754     
  0.11910000000000000         -1.3694428335801823     
  0.11940000000000002         -1.5376222231585059     
  0.11970000000000001         -1.7266758710961319     
  0.12000000000000001         -1.9313440265832797     
  0.12030000000000000         -2.1459169229666628     
  0.12060000000000000         -2.3599819879483257     
  0.12089999999999999         -2.5616659772784005     
  0.12119999999999999         -2.7382852618458466     
  0.12150000000000001         -2.8769661927998702     
  0.12180000000000001         -2.9657482639317703     
  0.12210000000000000         -2.9948384322674628     
  0.12239999999999999         -2.9573640435489286     
  0.12270000000000002         -2.8489482090087814     
  0.12300000000000001         -2.6691772719194153     
  0.12330000000000001         -2.4212183837839687     
  0.12360000000000000         -2.1102838512698625     
  0.12390000000000000         -1.7465751273299452     
  0.12419999999999999         -1.3400804006979581     
  0.12450000000000001        -0.90452763356320831     
  0.12480000000000001        -0.45385149752527870     
  0.12509999999999999         -1.5314395561674314E-003
  0.12540000000000001         0.43836475855861329     
  0.12570000000000003         0.85349751765541171     
  0.12600000000000000          1.2337738991287883     
  0.12630000000000002          1.5703280698585413     
  0.12659999999999999          1.8586581497585717     
  0.12690000000000001          2.0950214441004755     
  0.12719999999999998          2.2801053129527915     
  0.12750000000000000          2.4166173565555749     
  0.12780000000000002          2.5081824908715964     
  0.12809999999999999          2.5611586235231165     
  0.12840000000000001          2.5822615290949322     
  0.12869999999999998          2.5773911136659824     
  0.12900000000000000          2.5529091000257997     
  0.12930000000000003          2.5137335871253832     
  0.12959999999999999          2.4633254591073812     
  0.12990000000000002          2.4032005818661193     
  0.13019999999999998          2.3348035341219759     
  0.13050000000000000          2.2582194316160855     
  0.13080000000000003          2.1726631627119817     
  0.13109999999999999          2.0793942928274256     
  0.13140000000000002          1.9788776192819586     
  0.13169999999999998          1.8736745918994897     
  0.13200000000000001          1.7672972352438854     
  0.13229999999999997          1.6642715676099318     
  0.13260000000000000          1.5684588965573911     
  0.13290000000000002          1.4837850211187191     
  0.13319999999999999          1.4107403676376284     
  0.13350000000000001          1.3466197191753122     
  0.13380000000000003          1.2851104665730175     
  0.13410000000000000          1.2137815850675127     
  0.13440000000000002          1.1173621271778127     
  0.13469999999999999         0.97763238536694030     
  0.13500000000000001         0.77582744908881185     
  0.13529999999999998         0.49797623031374427     
  0.13560000000000000         0.13536348984018323     
  0.13590000000000002        -0.30841753474298361     
  0.13619999999999999        -0.81676495217367329     
  0.13650000000000001         -1.3575662542294193     
  0.13680000000000003         -1.8832220689222372     
  0.13710000000000000         -2.3349087555941312     
  0.13740000000000002         -2.6456606217599501     
  0.13769999999999999         -2.7486910286570279     
  0.13800000000000001         -2.5874482892213222     
  0.13829999999999998         -2.1215352444840541     
  0.13860000000000000         -1.3403816119933809     
  0.13890000000000002        -0.26593072571467868     
  0.13919999999999999          1.0418689709567635     
  0.13950000000000001          2.4846116455916785     
  0.13979999999999998          3.9320513837811868     
  0.14010000000000000          5.2302632576786401     
  0.14040000000000002          6.2165616512588366     
  0.14069999999999999          6.7342855491887441     
  0.14100000000000001          6.6513615672537760     
  0.14130000000000004          5.8777728785865433     
  0.14160000000000000          4.3767954040587336     
  0.14189999999999997          2.1781632831646047     
  0.14219999999999999        -0.62174742462201804     
  0.14250000000000002         -3.8626163273181362     
  0.14279999999999998         -7.3279795184346721     
  0.14310000000000000         -10.765509220135119     
  0.14339999999999997         -13.904967536414301     
  0.14369999999999999         -16.483084593717226     
  0.14400000000000002         -18.266354216406597     
  0.14429999999999998         -19.074495742329685     
  0.14460000000000001         -18.794559817658325     
  0.14490000000000003         -17.394743321072870     
  0.14520000000000000         -14.926421643250340     
  0.14550000000000002         -11.520497067138855     
  0.14579999999999999         -7.3764529726198962     
  0.14610000000000001         -2.7474946373245803     
  0.14640000000000003          2.0838786505984452     
  0.14670000000000000          6.8230993342603634     
  0.14699999999999996          11.189332289051700     
  0.14729999999999999          14.932596136612430     
  0.14760000000000001          17.850445390332190     
  0.14789999999999998          19.798159034058994     
  0.14820000000000000          20.694130211927078     