  -1.4999999999999999E-002     0.0000000000000000     
  -1.4700000000000000E-002     0.0000000000000000     
  -1.4400000000000000E-002     0.0000000000000000     
  -1.4100000000000000E-002     0.0000000000000000     
  -1.3800000000000000E-002     0.0000000000000000     
  -1.3500000000000000E-002     5.2206719852227140E-038
  -1.3200000000000000E-002     8.3669086082470581E-036
  -1.2899999999999998E-002    -2.7111826528142792E-033
  -1.2600000000000000E-002     9.4465917201076438E-033
  -1.2299999999999998E-002     1.3508321876001168E-030
  -1.2000000000000000E-002    -9.4240083660268131E-030
  -1.1699999999999999E-002    -9.8739894120071585E-029
  -1.1399999999999999E-002     9.4771008130773420E-028
  -1.1099999999999999E-002     7.8778677006475477E-028
  -1.0799999999999999E-002    -2.4832733977417211E-026
  -1.0499999999999999E-002     2.7400304356443028E-026
  -1.0199999999999999E-002     2.7378959082338891E-025
  -9.8999999999999991E-003    -3.7615512610618214E-025
  -9.5999999999999992E-003    -2.2995280851164997E-024
  -9.2999999999999992E-003     2.4663346030338319E-024
  -8.9999999999999993E-003     1.6565220644719906E-023
  -8.6999999999999994E-003    -1.1791702311619697E-023
  -8.3999999999999995E-003    -8.3414092965279057E-023
  -8.0999999999999996E-003    -8.7343113061281488E-025
  -7.7999999999999988E-003     3.2642430876551745E-022
  -7.4999999999999997E-003     3.5405296463258384E-022
  -7.1999999999999998E-003    -7.3797773886154012E-022
  -6.8999999999999981E-003    -3.0134749712734832E-021
  -6.5999999999999982E-003    -1.9050480107137509E-022
  -6.3000000000000000E-003     1.4740705113120807E-020
  -6.0000000000000001E-003     9.3258083379966407E-021
  -5.6999999999999985E-003    -4.2433129402228285E-020
  -5.3999999999999986E-003    -4.7775962907003758E-020
  -5.1000000000000004E-003     4.7779459114427905E-020
  -4.7999999999999987E-003     1.2419002593262041E-019
  -4.5000000000000005E-003     2.6149162969125244E-019
  -4.1999999999999989E-003    -1.8399554646609818E-019
  -3.8999999999999990E-003    -1.6116413968221456E-018
  -3.5999999999999990E-003    -1.2193571650604909E-019
  -3.2999999999999991E-003     4.5239698058780190E-018
  -2.9999999999999992E-003     8.6768939314241338E-019
  -2.6999999999999993E-003    -3.7037138806817704E-018
  -2.3999999999999994E-003    -1.8856245676078045E-018
  -2.0999999999999977E-003    -2.1645847488346756E-017
  -1.7999999999999995E-003     8.1803129520843615E-018
  -1.4999999999999979E-003     8.6279439166489650E-017
  -1.1999999999999997E-003    -1.1479887004747243E-017
  -8.9999999999999976E-004    -1.3650552803969718E-016
  -5.9999999999999810E-004    -2.7621986382929545E-017
  -2.9999999999999992E-004    -3.6866205197529231E-017
   0.0000000000000000          1.4546738638306748E-016
   3.0000000000000165E-004     6.5356542534334276E-016
   5.9999999999999984E-004    -1.3023517456953083E-016
   9.0000000000000149E-004    -1.1856708800687804E-015
   1.2000000000000031E-003    -1.2163649307911360E-015
   1.5000000000000013E-003     2.3257036340428317E-016
   1.8000000000000030E-003     5.6914080340561219E-015
   2.1000000000000012E-003     1.1437899902341966E-015
   2.3999999999999994E-003    -1.0082200338079314E-014
   2.7000000000000010E-003     6.2289631753331253E-015
   2.9999999999999992E-003    -3.5414415578407606E-015
   3.3000000000000008E-003    -3.5017874655954405E-014
   3.6000000000000025E-003     6.1787612252669354E-014
   3.9000000000000007E-003     7.4171163385020793E-014
   4.2000000000000023E-003    -1.5626966048883273E-013
   4.5000000000000005E-003    -6.0950062358426636E-014
   4.7999999999999987E-003     2.0477526448008106E-013
   5.1000000000000004E-003    -8.3473153067829621E-014
   5.4000000000000020E-003    -1.5403755255549758E-013
   5.7000000000000037E-003     3.5780753015408263E-013
   5.9999999999999984E-003     2.2769114179473634E-013
   6.3000000000000000E-003    -6.8714418993336940E-013
   6.6000000000000017E-003    -8.8115935148367109E-013
   6.9000000000000034E-003     1.1727124457426552E-012
   7.2000000000000015E-003     1.9593476256506769E-012
   7.5000000000000032E-003    -2.3688180710480526E-012
   7.8000000000000014E-003    -1.5906252836212101E-012
   8.0999999999999996E-003     4.8096051585200901E-012
   8.4000000000000012E-003    -3.1211258316659409E-012
   8.7000000000000029E-003    -7.1910192096423282E-012
   9.0000000000000011E-003     1.2166468824063349E-011
   9.2999999999999992E-003     4.7495875553126345E-012
   9.6000000000000009E-003    -1.8677776044078874E-011
   9.8999999999999991E-003     8.4432556953480987E-012
   1.0200000000000001E-002     1.1800966558749611E-011
   1.0500000000000002E-002    -3.2000050504828699E-011
   1.0800000000000004E-002     1.1111184626081050E-011
   1.1099999999999999E-002     5.7071809007479684E-011
   1.1400000000000000E-002    -3.1224216156484672E-011
   1.1700000000000002E-002    -9.4678981627036589E-011
   1.2000000000000004E-002     5.6220283035658596E-012
   1.2300000000000002E-002     2.4477866933829659E-010
   1.2600000000000000E-002     1.7617665080740737E-010
   1.2900000000000002E-002    -7.8444598545975827E-010
   1.3200000000000000E-002    -1.0969603646326385E-009
   1.3500000000000002E-002     2.3501459644558780E-009
   1.3800000000000003E-002     5.4554302018933218E-009
   1.4100000000000001E-002    -6.2511546921195170E-009
   1.4400000000000000E-002    -2.2102394886574396E-008
   1.4700000000000001E-002     1.0739784074343691E-008
   1.4999999999999999E-002     6.4362379534470447E-008
   1.5300000000000001E-002     4.6000805549549871E-009
   1.5600000000000003E-002    -1.0813512984260315E-007
   1.5899999999999997E-002    -9.1012279986392129E-008
   1.6199999999999999E-002    -1.2267678853387426E-008
   1.6500000000000001E-002     8.0433605809573601E-007
   1.6800000000000002E-002     4.8361352888914135E-006
   1.7100000000000004E-002     1.4347911885952966E-005
   1.7400000000000006E-002     2.8885687552173837E-005
   1.7700000000000000E-002     4.5248957399370765E-005
   1.8000000000000002E-002     5.8163473196695131E-005
   1.8300000000000004E-002     6.5491835171904508E-005
   1.8600000000000005E-002     7.8491190759457931E-005
   1.8900000000000000E-002     1.1822671290455210E-004
   1.9200000000000002E-002     1.9221394049532555E-004
   1.9500000000000003E-002     2.8358501255445031E-004
   1.9799999999999998E-002     3.7448839300456598E-004
   2.0100000000000000E-002     4.7384972010712533E-004
   2.0400000000000001E-002     6.0789389351099748E-004
   2.0700000000000003E-002     7.8054891215371231E-004
   2.0999999999999998E-002     9.5260835400301828E-004
   2.1299999999999999E-002     1.0582553104048985E-003
   2.1600000000000001E-002     1.0226177157872034E-003
   2.1900000000000003E-002     7.5148171316048566E-004
   2.2200000000000004E-002     9.9280765165867636E-005
   2.2500000000000006E-002    -1.1669801194258392E-003
   2.2800000000000001E-002    -3.3826546697691010E-003
   2.3100000000000002E-002    -6.9819006477797284E-003
   2.3400000000000004E-002    -1.2511628991153082E-002
   2.3699999999999999E-002    -2.0655922575419039E-002
   2.4000000000000000E-002    -3.2236667879656164E-002
   2.4300000000000002E-002    -4.8205591347976445E-002
   2.4599999999999997E-002    -6.9633917112097127E-002
   2.4900000000000005E-002    -9.7663025859358821E-002
   2.5200000000000000E-002   -0.13341179383332116     
   2.5499999999999995E-002   -0.17786055131057693     
   2.5800000000000003E-002   -0.23172806940062080     
   2.6099999999999998E-002   -0.29536401375348431     
   2.6400000000000007E-002   -0.36862271039190814     
   2.6700000000000002E-002   -0.45069516211705429     
   2.6999999999999996E-002   -0.53995294727742571     
   2.7300000000000005E-002   -0.63387631420352641     
   2.7600000000000000E-002   -0.72902679954150840     
   2.7900000000000008E-002   -0.82113373008699364     
   2.8200000000000003E-002   -0.90523275558077132     
   2.8499999999999998E-002   -0.97582844299285654     
   2.8800000000000006E-002    -1.0272811012300114     
   2.9100000000000001E-002    -1.0541834033141551     
   2.9400000000000003E-002    -1.0517902950827780     
   2.9700000000000004E-002    -1.0164131721195435     
   3.0000000000000006E-002   -0.94582555991492390     
   3.0300000000000001E-002   -0.83965798838683059     
   3.0600000000000002E-002   -0.69941087241786415     
   3.0900000000000004E-002   -0.52865219597126778     
   3.1199999999999999E-002   -0.33271841903441662     
   3.1500000000000007E-002   -0.11869285491632803     
   3.1800000000000002E-002    0.10522555381941853     
   3.2099999999999997E-002    0.33017339911167531     
   3.2400000000000005E-002    0.54727748992130643     
   3.2700000000000000E-002    0.74800311621770754     
   3.3000000000000002E-002    0.92487430870894882     
   3.3300000000000003E-002     1.0718134391398446     
   3.3599999999999998E-002     1.1844535657727522     
   3.3900000000000000E-002     1.2604417240044716     
   3.4200000000000001E-002     1.2993623424648377     
   3.4500000000000003E-002     1.3028240071981123     
   3.4799999999999998E-002     1.2742295203705640     
   3.5099999999999999E-002     1.2187596274747248     
   3.5400000000000001E-002     1.1429293243701493     
   3.5699999999999996E-002     1.0544328349076668     
   3.6000000000000004E-002    0.96160271025059818     
   3.6299999999999999E-002    0.87301683278785713     
   3.6600000000000008E-002    0.79690097847855590     
   3.6900000000000002E-002    0.74070200713862899     
   3.7199999999999997E-002    0.71045302362240115     
   3.7500000000000006E-002    0.71012172625074976     
   3.7800000000000000E-002    0.74155478471423009     
   3.8100000000000009E-002    0.80375958034532191     
   3.8400000000000004E-002    0.89357307720358392     
   3.8699999999999998E-002     1.0054141980020428     
   3.9000000000000007E-002     1.1323519032745630     
   3.9300000000000002E-002     1.2664937148088387     
   3.9600000000000003E-002     1.4004736144244005     
   3.9900000000000005E-002     1.5280225725756662     
   4.0200000000000000E-002     1.6450795096508144     
   4.0500000000000001E-002     1.7501838794189273     
   4.0800000000000003E-002     1.8444348729420725     
   4.1100000000000005E-002     1.9315656436164903     
   4.1399999999999999E-002     2.0163679965748780     
   4.1700000000000008E-002     2.1039742983350997     
   4.2000000000000003E-002     2.1980505786204860     
   4.2299999999999997E-002     2.2991238842807658     
   4.2600000000000006E-002     2.4033831075533723     
   4.2900000000000001E-002     2.5014063730309353     
   4.3200000000000002E-002     2.5783661073624149     
   4.3500000000000004E-002     2.6134972495950635     
   4.3799999999999999E-002     2.5822860739972096     
   4.4100000000000000E-002     2.4574508169882416     
   4.4400000000000002E-002     2.2119124939469508     
   4.4700000000000004E-002     1.8216649991078029     
   4.4999999999999998E-002     1.2680531127467336     
   4.5300000000000000E-002    0.54169665901664621     
   4.5600000000000002E-002   -0.35688810006215010     
   4.5899999999999996E-002    -1.4143333558090152     
   4.6200000000000005E-002    -2.6044365637037181     
   4.6500000000000000E-002    -3.8886703576630293     
   4.6799999999999994E-002    -5.2167886131482542     
   4.7100000000000003E-002    -6.5297477131960582     
   4.7399999999999998E-002    -7.7623324490077543     
   4.7700000000000006E-002    -8.8470228721436577     
   4.8000000000000001E-002    -9.7183802940613830     
   4.8300000000000010E-002    -10.316933861989444     
   4.8600000000000004E-002    -10.593794369047876     
   4.8899999999999999E-002    -10.514153125863714     
   4.9200000000000008E-002    -10.060548665713400     
   4.9500000000000002E-002    -9.2351472211812560     
   4.9800000000000011E-002    -8.0604349752231190     
   5.0100000000000006E-002    -6.5788210704639400     
   5.0400000000000000E-002    -4.8519039674591449     
   5.0700000000000009E-002    -2.9551796795945586     
   5.1000000000000004E-002   -0.97679886412460792     
   5.1299999999999998E-002    0.99138579602101795     
   5.1600000000000007E-002     2.8561488747113604     
   5.1900000000000002E-002     4.5312647775059052     
   5.2200000000000010E-002     5.9430347713574001     
   5.2500000000000005E-002     7.0334518409860181     
   5.2800000000000000E-002     7.7670269202031506     
   5.3099999999999994E-002     8.1299335522608409     
   5.3400000000000003E-002     8.1334815446036366     
   5.3699999999999998E-002     7.8098044010927303     
   5.4000000000000006E-002     7.2118542642004080     
   5.4300000000000001E-002     6.4067772645568155     
   5.4599999999999996E-002     5.4712257262231212     
   5.4900000000000004E-002     4.4859620433077527     
   5.5199999999999999E-002     3.5273170378730949     
   5.5499999999999994E-002     2.6640094843985089     
   5.5800000000000002E-002     1.9501340898756112     
   5.6099999999999997E-002     1.4212064370702580     
   5.6400000000000006E-002     1.0929806267946971     
   5.6700000000000000E-002    0.95884304638829754     
   5.6999999999999995E-002    0.99238273264428245     
   5.7300000000000004E-002     1.1486259005965502     
   5.7599999999999998E-002     1.3686541981753448     
   5.7900000000000007E-002     1.5850662941255984     
   5.8200000000000002E-002     1.7275425896065102     
   5.8499999999999996E-002     1.7307326667754495     
   5.8800000000000005E-002     1.5399210255521167     
   5.9100000000000000E-002     1.1186872207724590     
   5.9400000000000008E-002    0.45359752369512418     
   5.9700000000000003E-002   -0.44152125710998458     
   6.0000000000000012E-002    -1.5233757040978533     
   6.0300000000000006E-002    -2.7202971258672370     
   6.0600000000000001E-002    -3.9351411015444491     
   6.0900000000000010E-002    -5.0521258254629764     
   6.1200000000000004E-002    -5.9456970160087961     
   6.1500000000000013E-002    -6.4918381881913465     
   6.1800000000000008E-002    -6.5818593223677269     
   6.2100000000000002E-002    -6.1346841074847616     
   6.2399999999999997E-002    -5.1103483998727430     
   6.2700000000000006E-002    -3.5192474037553874     
   6.3000000000000000E-002    -1.4294370998367416     
   6.3300000000000009E-002     1.0336496559363044     
   6.3600000000000004E-002     3.6897333617674413     
   6.3899999999999998E-002     6.3172381980445600     
   6.4199999999999993E-002     8.6669124717626822     
   6.4500000000000002E-002     10.485365816344022     
   6.4800000000000010E-002     11.536948302086085     
   6.5100000000000005E-002     11.629593038448437     
   6.5400000000000000E-002     10.636439604434209     
   6.5700000000000008E-002     8.5127188756579546     
   6.5999999999999989E-002     5.3095864635373031     
   6.6299999999999998E-002     1.1721539446131994     
   6.6600000000000006E-002    -3.6618512963003180     
   6.6900000000000001E-002    -8.8828753681210681     
   6.7199999999999996E-002    -14.128661283976960     
   6.7500000000000004E-002    -19.015077227845353     
   6.7800000000000013E-002    -23.168327172350427     
   6.8099999999999994E-002    -26.254681844722644     
   6.8400000000000002E-002    -28.010854621389303     
   6.8700000000000011E-002    -28.264443359582486     
   6.8999999999999992E-002    -26.949990210786780     
   6.9300000000000000E-002    -24.110393541916391     
   6.9600000000000009E-002    -19.895777779853361     
   6.9900000000000004E-002    -14.545567365560800     
   7.0199999999999999E-002    -8.3711388629843491     
   7.0500000000000007E-002    -1.7262698980202513     
   7.0800000000000016E-002     5.0183334216441526     
   7.1099999999999997E-002     11.504814165078916     
   7.1400000000000005E-002     17.411553796285325     
   7.1700000000000000E-002     22.474268636295580     
   7.1999999999999995E-002     26.498116551998827     
   7.2300000000000003E-002     29.365329231741345     
   7.2600000000000012E-002     31.035329454971823     
   7.2900000000000006E-002     31.535427909929425     
   7.3200000000000001E-002     30.956705394179139     
   7.3499999999999996E-002     29.430064193335575     
   7.3800000000000004E-002     27.123353333605579     
   7.4099999999999999E-002     24.212745737205267     
   7.4400000000000008E-002     20.880327614459773     
   7.4700000000000003E-002     17.295304717627978     
   7.5000000000000011E-002     13.607056677825241     
   7.5299999999999992E-002     9.9431259117422890     
   7.5600000000000001E-002     6.3990254255783832     
   7.5900000000000009E-002     3.0485769547830701     
   7.6200000000000004E-002    -6.4742789193077854E-002
   7.6499999999999999E-002    -2.9135269360045433     
   7.6800000000000007E-002    -5.4912727467039613     
   7.7099999999999988E-002    -7.7997499580743117     
   7.7399999999999997E-002    -9.8474965013315696     
   7.7700000000000005E-002    -11.645854047847813     
   7.8000000000000014E-002    -13.202936470255064     
   7.8299999999999995E-002    -14.524472392938918     
   7.8600000000000003E-002    -15.608951547964644     
   7.8900000000000012E-002    -16.450528037212571     
   7.9199999999999993E-002    -17.038520656104154     
   7.9500000000000001E-002    -17.358649282238829     
   7.9800000000000010E-002    -17.398866585554391     
   8.0100000000000018E-002    -17.146780400666575     
   8.0399999999999999E-002    -16.599774290791874     
   8.0700000000000008E-002    -15.758497635286741     
   8.1000000000000003E-002    -14.637535767176232     
   8.1299999999999997E-002    -13.258292280405408     
   8.1600000000000006E-002    -11.655955995555745     
   8.1900000000000014E-002    -9.8725049186715594     
   8.2199999999999995E-002    -7.9585277731168063     
   8.2500000000000004E-002    -5.9692396108999528     
   8.2799999999999999E-002    -3.9625801419931284     
   8.3100000000000007E-002    -1.9951985128754064     
   8.3400000000000002E-002   -0.12150844152700280     
   8.3700000000000011E-002     1.6106203324339705     
   8.4000000000000005E-002     3.1603183402912940     
   8.4300000000000000E-002     4.4962044031399602     
   8.4599999999999995E-002     5.5956415577098575     
   8.4900000000000003E-002     6.4499508743321163     
   8.5199999999999998E-002     7.0562580844022351     
   8.5500000000000007E-002     7.4267678010022955     
   8.5800000000000001E-002     7.5800846525010908     
   8.6100000000000010E-002     7.5452948548936369     
   8.6399999999999991E-002     7.3561660221781366     
   8.6699999999999999E-002     7.0530139850768672     
   8.7000000000000008E-002     6.6762063048713767     
   8.7300000000000003E-002     6.2662869574479139     
   8.7599999999999997E-002     5.8604524681731842     
   8.7900000000000006E-002     5.4877810025600695     
   8.8200000000000014E-002     5.1715407353194776     
   8.8499999999999995E-002     4.9221612027895540     
   8.8800000000000004E-002     4.7415450513131052     
   8.9100000000000013E-002     4.6196451933109808     
   8.9399999999999993E-002     4.5372799316322183     
   8.9700000000000002E-002     4.4694945894708571     
   9.0000000000000011E-002     4.3856423244019220     
   9.0299999999999991E-002     4.2530964486178915     
   9.0600000000000000E-002     4.0446115808750882     
   9.0900000000000009E-002     3.7333480392232357     
   9.1200000000000017E-002     3.3052965716520895     
   9.1499999999999998E-002     2.7503834571839838     
   9.1800000000000007E-002     2.0742511968074875     
   9.2100000000000001E-002     1.2890942988943428     
   9.2399999999999996E-002    0.41862034400879711     
   9.2700000000000005E-002   -0.50499921834278372     
   9.3000000000000013E-002    -1.4450965126199589     
   9.3300000000000008E-002    -2.3590805556896131     
   9.3600000000000003E-002    -3.2063302557780275     
   9.3899999999999997E-002    -3.9455711505211326     
   9.4200000000000006E-002    -4.5423389425770271     
   9.4500000000000001E-002    -4.9688595714746810     
   9.4800000000000009E-002    -5.2042115041743653     
   9.5100000000000004E-002    -5.2417911058747926     
   9.5399999999999999E-002    -5.0809068196832721     
   9.5699999999999993E-002    -4.7374535095083212     
   9.6000000000000002E-002    -4.2322419186011953     
   9.6300000000000011E-002    -3.5991764685046652     
   9.6600000000000005E-002    -2.8769776688902109     
   9.6900000000000000E-002    -2.1090641628394589     
   9.7200000000000009E-002    -1.3411815176147410     
   9.7499999999999989E-002   -0.61666835108153206     
   9.7799999999999998E-002     2.3520733827322032E-002
   9.8100000000000007E-002    0.54780124137419650     
   9.8400000000000015E-002    0.93079429630642441     
   9.8699999999999996E-002     1.1594440248279778     
   9.9000000000000005E-002     1.2310011803356122     
   9.9300000000000013E-002     1.1530555953423558     
   9.9599999999999994E-002    0.94380170800566843     
   9.9900000000000003E-002    0.62933206697479149     
  0.10020000000000001         0.24089232769868452     
  0.10049999999999999        -0.18481018146052475     
  0.10080000000000000        -0.61264543421190165     
  0.10110000000000001         -1.0073710035148717     
  0.10140000000000000         -1.3386674477668110     
  0.10170000000000000         -1.5813671468249355     
  0.10200000000000001         -1.7171215161078739     
  0.10230000000000002         -1.7358793250049867     
  0.10260000000000000         -1.6340883724545117     
  0.10290000000000001         -1.4174396778037541     
  0.10320000000000000         -1.0958902188800346     
  0.10350000000000001        -0.68793478341822578     
  0.10380000000000000        -0.21581959806237488     
  0.10410000000000001         0.29586513318433177     
  0.10440000000000001         0.81621646104984702     
  0.10470000000000000          1.3194708512376048     
  0.10500000000000000          1.7725616801839057     
  0.10530000000000000          2.1518983893564760     
  0.10560000000000000          2.4315994536441039     
  0.10590000000000001          2.5946225142489352     
  0.10620000000000000          2.6284678706618880     
  0.10650000000000001          2.5291467581496061     
  0.10679999999999999          2.3013336860387890     
  0.10710000000000000          1.9569908438794235     
  0.10740000000000001          1.5193462789804288     
  0.10770000000000000          1.0146790038334446     
  0.10800000000000000         0.47972069596378386     
  0.10830000000000001         -5.1080295213977889E-002
  0.10859999999999999        -0.53954788229096096     
  0.10890000000000000        -0.95190701300637071     
  0.10920000000000001         -1.2603691653999325     
  0.10950000000000001         -1.4445169080450897     
  0.10979999999999999         -1.4953052995714340     
  0.11009999999999999         -1.4136967753162302     
  0.11040000000000001         -1.2115196479003787     
  0.11070000000000001        -0.91067749403568099     
  0.11100000000000000        -0.54051925205793838     
  0.11130000000000000        -0.13464456424171523     
  0.11160000000000002         0.27043536560772491     
  0.11190000000000001         0.64099473861364176     
  0.11220000000000001         0.94649779142093815     
  0.11250000000000000          1.1636245984526539     
  0.11280000000000000          1.2784732348101620     
  0.11309999999999999          1.2842561971107616     
  0.11340000000000001          1.1862571643619009     
  0.11369999999999998         0.99551604646257230     
  0.11400000000000000         0.73179027232932370     
  0.11430000000000000         0.41861548333739929     
  0.11460000000000002          8.3508844066426335E-002
  0.11489999999999999        -0.24781531281348868     
  0.11520000000000001        -0.54949193512825834     
  0.11550000000000001        -0.80018244369998226     
  0.11580000000000000        -0.98413356655413264     
  0.11609999999999999         -1.0907211025423802     
  0.11640000000000002         -1.1155826317563089     
  0.11670000000000001         -1.0624092481928975     
  0.11700000000000001        -0.93792621525637077     
  0.11730000000000000        -0.75626421115797826     
  0.11760000000000000        -0.53314338643652415     
  0.11789999999999999        -0.28862088675118924     
  0.11820000000000001         -4.1933375419364038E-002
  0.11850000000000001         0.18778479255156255     
  0.11880000000000000         0.38215783235390555     
  0.11910000000000000         0.52820003671766902     
  0.11940000000000002         0.61400606164166172     
  0.11970000000000001         0.63582371041828711     
  0.12000000000000001         0.59207168006324240     
  0.12030000000000000         0.48785641913490052     
  0.12060000000000000         0.33236775414260100     
  0.12089999999999999         0.13868095851033996     
  0.12119999999999999         -7.7124511536419429E-002
  0.12150000000000001        -0.29745778435743192     
  0.12180000000000001        -0.50415686634876100     
  0.12210000000000000        -0.68055262424415464     
  0.12239999999999999        -0.81225149159831123     
  0.12270000000000002        -0.88796989009097471     
  0.12300000000000001        -0.90187192688623696     
  0.12330000000000001        -0.85081591640490073     
  0.12360000000000000        -0.73938282309078240     
  0.12390000000000000        -0.57280865668054770     
  0.12419999999999999        -0.36444418122759342     
  0.12450000000000001        -0.12690187992526994     
  0.12480000000000001         0.12347364357400123     
  0.12509999999999999         0.36994955102315452     
  0.12540000000000001         0.59758972666014376     
  0.12570000000000003         0.79185446897643630     
  0.12600000000000000         0.94153504390861675     
  0.12630000000000002          1.0389077946588325     
  0.12659999999999999          1.0792910270015126     
  0.12690000000000001          1.0625743702979897     
  0.12719999999999998         0.99193975613671936     
  0.12750000000000000         0.87461741991451025     
  0.12780000000000002         0.71891162270492959     
  0.12809999999999999         0.53825479432395740     
  0.12840000000000001         0.34285701409122271     
  0.12869999999999998         0.14805972383809493     
  0.12900000000000000         -3.5187823244277321E-002
  0.12930000000000003        -0.19608738577535395     
  0.12959999999999999        -0.32529410531051878     
  0.12990000000000002        -0.41809545969025308     
  0.13019999999999998        -0.47085378461710781     
  0.13050000000000000        -0.48492775286137069     
  0.13080000000000003        -0.46313304107651354     
  0.13109999999999999        -0.41264275467778155     
  0.13140000000000002        -0.34008527146513018     
  0.13169999999999998        -0.25600857408191241     
  0.13200000000000001        -0.17035809979402425     
  0.13229999999999997         -9.0785710288666402E-002
  0.13260000000000000         -2.7879865984343923E-002
  0.13290000000000002          1.4518326818706679E-002
  0.13319999999999999          3.0238756280742379E-002
  0.13350000000000001          1.8445877435172089E-002
  0.13380000000000003         -2.0295507631945896E-002
  0.13410000000000000         -8.3754594428843948E-002
  0.13440000000000002        -0.16542316434598681     
  0.13469999999999999        -0.26139488759395402     
  0.13500000000000001        -0.36157744155016580     
  0.13529999999999998        -0.46060500746555966     
  0.13560000000000000        -0.54831086809955965     
  0.13590000000000002        -0.61897815325285765     
  0.13619999999999999        -0.66559783354873758     
  0.13650000000000001        -0.68333606555593640     
  0.13680000000000003        -0.66975040843141764     
  0.13710000000000000        -0.62317543379568663     
  0.13740000000000002        -0.54580966700802769     
  0.13769999999999999        -0.44031144209928397     
  0.13800000000000001        -0.31203787594426519     
  0.13829999999999998        -0.16845795756884271     
  0.13860000000000000         -1.5584851304756508E-002
  0.13890000000000002         0.13641684341096122     
  0.13919999999999999         0.28149173207389905     
  0.13950000000000001         0.41158453139045414     
  0.13979999999999998         0.52119413648624224     
  0.14010000000000000         0.60646268733007780     
  0.14040000000000002         0.66417333311363147     
  0.14069999999999999         0.69425465097285921     
  0.14100000000000001         0.69679221675888514     
  0.14130000000000004         0.67427878319465095     
  0.14160000000000000         0.62942264584132346     
  0.14189999999999997         0.56623800636751898     
  0.14219999999999999         0.48852036365558549     
  0.14250000000000002         0.40077028714075452     
  0.14279999999999998         0.30804449277818474     
  0.14310000000000000         0.21365416998264108     
  0.14339999999999997         0.12302297676622331     
  0.14369999999999999          4.0000801278597675E-002
  0.14400000000000002         -3.2140453528250242E-002
  0.14429999999999998         -8.9477112486756827E-002
  0.14460000000000001        -0.13016328802103230     
  0.14490000000000003        -0.15336105114318352     
  0.14520000000000000        -0.15683947412520000     
  0.14550000000000002        -0.14504107049509354     
  0.14579999999999999        -0.11691672636114098     
  0.14610000000000001         -7.8937957732220884E-002
  0.14640000000000003         -3.3540480566294259E-002
  0.14670000000000000          1.3377496298591793E-002
  0.14699999999999996          5.6989938285940601E-002
  0.14729999999999999          9.3363272225926663E-002
  0.14760000000000001         0.11710650525005548     
  0.14789999999999998         0.12735279376725753     
  0.14820000000000000         0.12027845080594946     