  -1.4999999999999999E-002     0.0000000000000000     
  -1.4700000000000000E-002     0.0000000000000000     
  -1.4400000000000000E-002     0.0000000000000000     
  -1.4100000000000000E-002     0.0000000000000000     
  -1.3800000000000000E-002     0.0000000000000000     
  -1.3500000000000000E-002     0.0000000000000000     
  -1.3200000000000000E-002     0.0000000000000000     
  -1.2899999999999998E-002     0.0000000000000000     
  -1.2600000000000000E-002     0.0000000000000000     
  -1.2299999999999998E-002    -3.7109772412393349E-037
  -1.2000000000000000E-002     8.3676855044845314E-036
  -1.1699999999999999E-002     4.9262867030238598E-035
  -1.1399999999999999E-002    -2.1712426820963831E-033
  -1.1099999999999999E-002     6.2033691767726067E-033
  -1.0799999999999999E-002     1.1289046034776399E-031
  -1.0499999999999999E-002    -6.2434323156266942E-031
  -1.0199999999999999E-002    -1.3295430045175205E-030
  -9.8999999999999991E-003     1.4433702251521792E-029
  -9.5999999999999992E-003    -1.6098981274189011E-030
  -9.2999999999999992E-003    -1.5747816688844087E-028
  -8.9999999999999993E-003     7.3849208164236382E-029
  -8.6999999999999994E-003     1.3271020211341528E-027
  -8.3999999999999995E-003    -5.4241931916233375E-028
  -8.0999999999999996E-003    -9.1923048507965239E-027
  -7.7999999999999988E-003     2.3603080791273701E-027
  -7.4999999999999997E-003     4.6285069751315374E-026
  -7.1999999999999998E-003     1.3250543815341292E-026
  -6.8999999999999981E-003    -1.8115858542355914E-025
  -6.5999999999999982E-003    -2.1665896632583425E-025
  -6.3000000000000000E-003     4.0183299711513897E-025
  -6.0000000000000001E-003     1.6984854502240315E-024
  -5.6999999999999985E-003     2.8387945092793684E-025
  -5.3999999999999986E-003    -8.6264653278649951E-024
  -5.1000000000000004E-003    -7.1521316326110148E-024
  -4.7999999999999987E-003     2.8134088348909317E-023
  -4.5000000000000005E-003     3.8074026166626215E-023
  -4.1999999999999989E-003    -4.7320207553706409E-023
  -3.8999999999999990E-003    -1.1143350525652604E-022
  -3.5999999999999990E-003    -1.1485697519540536E-022
  -3.2999999999999991E-003     1.9306452928028505E-022
  -2.9999999999999992E-003     1.0785775074191387E-021
  -2.6999999999999993E-003     8.5198391629518704E-023
  -2.3999999999999994E-003    -3.9154879547973434E-021
  -2.0999999999999977E-003    -1.3750138826620634E-021
  -1.7999999999999995E-003     6.4380176555714964E-021
  -1.4999999999999979E-003     4.3755632158863017E-021
  -1.1999999999999997E-003     8.0261450771757206E-021
  -8.9999999999999976E-004    -9.9880758313244409E-021
  -5.9999999999999810E-004    -7.5123855685892801E-020
  -2.9999999999999992E-004     8.7499055816722640E-021
   0.0000000000000000          2.0931651979491019E-019
   3.0000000000000165E-004     1.1860891266476961E-020
   5.9999999999999984E-004    -1.7503802053996329E-019
   9.0000000000000149E-004    -1.3985395495698784E-019
   1.2000000000000031E-003    -6.4901317705538588E-019
   1.5000000000000013E-003     4.6541741296614245E-019
   1.8000000000000030E-003     2.4396174509371716E-018
   2.1000000000000012E-003     1.3822372375629570E-020
   2.3999999999999994E-003    -3.3846305538129962E-018
   2.7000000000000010E-003    -4.1057588820627726E-018
   2.9999999999999992E-003    -7.6117387307383248E-019
   3.3000000000000008E-003     1.2461182075838606E-017
   3.6000000000000025E-003     1.0251047694915367E-017
   3.9000000000000007E-003    -9.1706099527142453E-018
   4.2000000000000023E-003    -8.6466977305801007E-018
   4.5000000000000005E-003    -5.0220301603150890E-017
   4.7999999999999987E-003    -2.9731246110284070E-017
   5.1000000000000004E-003     1.8465317137152109E-016
   5.4000000000000020E-003     9.3421238365071398E-017
   5.7000000000000037E-003    -2.3941217860492481E-016
   5.9999999999999984E-003    -1.0320107546668738E-016
   6.3000000000000000E-003    -1.0623885394143202E-016
   6.6000000000000017E-003    -4.3110385576051826E-017
   6.9000000000000034E-003     7.4483332729867728E-016
   7.2000000000000015E-003     4.0324815948499130E-016
   7.5000000000000032E-003    -1.6034359086178863E-016
   7.8000000000000014E-003    -1.3197088098858543E-015
   8.0999999999999996E-003    -3.7176702472384317E-015
   8.4000000000000012E-003     4.4903795349317544E-015
   8.7000000000000029E-003     6.9552253862024118E-015
   9.0000000000000011E-003    -1.1410426936556913E-014
   9.2999999999999992E-003     9.4943630034963035E-015
   9.6000000000000009E-003     9.7614074677786322E-015
   9.8999999999999991E-003    -6.5465913914145972E-014
   1.0200000000000001E-002     4.9675718051347421E-014
   1.0500000000000002E-002     1.0318669207435475E-013
   1.0800000000000004E-002    -2.1852666086524713E-013
   1.1099999999999999E-002     1.0914653916621521E-013
   1.1400000000000000E-002     3.3790283366970193E-013
   1.1700000000000002E-002    -8.0260201652963033E-013
   1.2000000000000004E-002     2.2949004783349371E-013
   1.2300000000000002E-002     1.4247202307419067E-012
   1.2600000000000000E-002    -2.1226090048721796E-012
   1.2900000000000002E-002     1.5802421119471483E-013
   1.3200000000000000E-002     3.8064340996212974E-012
   1.3500000000000002E-002    -5.9750366423512491E-012
   1.3800000000000003E-002     4.6673381237279892E-013
   1.4100000000000001E-002     1.2267013438131160E-011
   1.4400000000000000E-002    -1.4772334983090682E-011
   1.4700000000000001E-002    -1.3812214341459805E-011
   1.4999999999999999E-002     3.1566951030064873E-011
   1.5300000000000001E-002     6.4118502932207782E-011
   1.5600000000000003E-002    -1.1971857519164217E-010
   1.5899999999999997E-002    -3.8026344368873301E-010
   1.6199999999999999E-002     9.3126150287257111E-010
   1.6500000000000001E-002     1.0019974741168541E-009
   1.6800000000000002E-002    -4.9473519761975992E-009
   1.7100000000000004E-002     7.5818982077246662E-010
   1.7400000000000006E-002     1.7849099726822553E-008
   1.7700000000000000E-002    -1.9422948459939709E-008
   1.8000000000000002E-002    -4.9647606897065783E-008
   1.8300000000000004E-002     1.0867144979775800E-007
   1.8600000000000005E-002     1.2541837069427144E-007
   1.8900000000000000E-002    -4.8468517537118678E-007
   1.9200000000000002E-002    -3.8543761114538993E-007
   1.9500000000000003E-002     3.3580527143761320E-006
   1.9799999999999998E-002     1.1540958252831966E-005
   2.0100000000000000E-002     2.1530329096705598E-005
   2.0400000000000001E-002     3.1124092564191821E-005
   2.0700000000000003E-002     4.1572904041091046E-005
   2.0999999999999998E-002     5.6217647022910748E-005
   2.1299999999999999E-002     7.8590455375305055E-005
   2.1600000000000001E-002     1.1322003102552262E-004
   2.1900000000000003E-002     1.6797542676212713E-004
   2.2200000000000004E-002     2.5311840018631755E-004
   2.2500000000000006E-002     3.7305514420573152E-004
   2.2800000000000001E-002     5.2259652631622992E-004
   2.3100000000000002E-002     7.0254380095011431E-004
   2.3400000000000004E-002     9.3042481008893106E-004
   2.3699999999999999E-002     1.2198619987502787E-003
   2.4000000000000000E-002     1.5635473466071598E-003
   2.4300000000000002E-002     1.9410780039112508E-003
   2.4599999999999997E-002     2.3113168253286942E-003
   2.4900000000000005E-002     2.5955984463884229E-003
   2.5200000000000000E-002     2.6838579872432130E-003
   2.5499999999999995E-002     2.4248557003588292E-003
   2.5800000000000003E-002     1.5908624256638680E-003
   2.6099999999999998E-002    -1.3123819397055261E-004
   2.6400000000000007E-002    -3.1377240641013624E-003
   2.6700000000000002E-002    -7.9281802085497243E-003
   2.6999999999999996E-002    -1.5116301334483932E-002
   2.7300000000000005E-002    -2.5419736405163332E-002
   2.7600000000000000E-002    -3.9636373762565166E-002
   2.7900000000000008E-002    -5.8605084927377926E-002
   2.8200000000000003E-002    -8.3152731798515997E-002
   2.8499999999999998E-002   -0.11402534641453738     
   2.8800000000000006E-002   -0.15181520758162415     
   2.9100000000000001E-002   -0.19686282592092302     
   2.9400000000000003E-002   -0.24912040442819550     
   2.9700000000000004E-002   -0.30805522355104997     
   3.0000000000000006E-002   -0.37261858014402871     
   3.0300000000000001E-002   -0.44118490859245563     
   3.0600000000000002E-002   -0.51152862377246433     
   3.0900000000000004E-002   -0.58084372278589314     
   3.1199999999999999E-002   -0.64586078875767650     
   3.1500000000000007E-002   -0.70297684517788284     
   3.1800000000000002E-002   -0.74849197094448816     
   3.2099999999999997E-002   -0.77880802612205990     
   3.2400000000000005E-002   -0.79069750263316019     
   3.2700000000000000E-002   -0.78154476263876016     
   3.3000000000000002E-002   -0.74957544161110667     
   3.3300000000000003E-002   -0.69399595818174609     
   3.3599999999999998E-002   -0.61501418837203115     
   3.3900000000000000E-002   -0.51386477290943544     
   3.4200000000000001E-002   -0.39283679019764745     
   3.4500000000000003E-002   -0.25482956277356400     
   3.4799999999999998E-002   -0.10348516806023081     
   3.5099999999999999E-002     5.7239175812902304E-002
   3.5400000000000001E-002    0.22329028650489438     
   3.5699999999999996E-002    0.39050620414103554     
   3.6000000000000004E-002    0.55492574791544058     
   3.6299999999999999E-002    0.71264819191068374     
   3.6600000000000008E-002    0.86004735190601578     
   3.6900000000000002E-002    0.99355432560029766     
   3.7199999999999997E-002     1.1097137005238280     
   3.7500000000000006E-002     1.2052926940476290     
   3.7800000000000000E-002     1.2772528139833361     
   3.8100000000000009E-002     1.3230632039984234     
   3.8400000000000004E-002     1.3409926185739145     
   3.8699999999999998E-002     1.3303164343027836     
   3.9000000000000007E-002     1.2919365289780815     
   3.9300000000000002E-002     1.2283267268600602     
   3.9600000000000003E-002     1.1441261986912097     
   3.9900000000000005E-002     1.0455908548441233     
   4.0200000000000000E-002    0.94079222828338449     
   4.0500000000000001E-002    0.83863914224330061     
   4.0800000000000003E-002    0.74842650886372630     
   4.1100000000000005E-002    0.67877593732402453     
   4.1399999999999999E-002    0.63646731415184377     
   4.1700000000000008E-002    0.62606966013972565     
   4.2000000000000003E-002    0.64834169957108645     
   4.2299999999999997E-002    0.70069867975400446     
   4.2600000000000006E-002    0.77649728221549341     
   4.2900000000000001E-002    0.86579091541198139     
   4.3200000000000002E-002    0.95599279585604391     
   4.3500000000000004E-002     1.0329789897182253     
   4.3799999999999999E-002     1.0825664449342423     
   4.4100000000000000E-002     1.0917720860310738     
   4.4400000000000002E-002     1.0506224895571588     
   4.4700000000000004E-002    0.95254015675083314     
   4.4999999999999998E-002    0.79605212436843287     
   4.5300000000000000E-002    0.58441588193099814     
   4.5600000000000002E-002    0.32606748281528836     
   4.5899999999999996E-002     3.3973927709414556E-002
   4.6200000000000005E-002   -0.27548480344831205     
   4.6500000000000000E-002   -0.58363038799356237     
   4.6799999999999994E-002   -0.87081849600230443     
   4.7100000000000003E-002    -1.1183865364743160     
   4.7399999999999998E-002    -1.3098873867176539     
   4.7700000000000006E-002    -1.4327696432040522     
   4.8000000000000001E-002    -1.4793996642716414     
   4.8300000000000010E-002    -1.4480457066170782     
   4.8600000000000004E-002    -1.3431934346245240     
   4.8899999999999999E-002    -1.1759921359532166     
   4.9200000000000008E-002   -0.96325655303663282     
   4.9500000000000002E-002   -0.72718829449485378     
   4.9800000000000011E-002   -0.49326122591342725     
   5.0100000000000006E-002   -0.28927579000982784     
   5.0400000000000000E-002   -0.14256621683031251     
   5.0700000000000009E-002    -7.8642378714290917E-002
   5.1000000000000004E-002   -0.11806387377370853     
   5.1299999999999998E-002   -0.27523916928196562     
   5.1600000000000007E-002   -0.55594562147444782     
   5.1900000000000002E-002   -0.95669698019787197     
   5.2200000000000010E-002    -1.4637742347836429     
   5.2500000000000005E-002    -2.0534972968194070     
   5.2800000000000000E-002    -2.6932443216911670     
   5.3099999999999994E-002    -3.3432898978438450     
   5.3400000000000003E-002    -3.9588073019170071     
   5.3699999999999998E-002    -4.4935300854044415     
   5.4000000000000006E-002    -4.9021944549469376     
   5.4300000000000001E-002    -5.1447432465551479     
   5.4599999999999996E-002    -5.1887712038879901     
   5.4900000000000004E-002    -5.0132335244053525     
   5.5199999999999999E-002    -4.6091399938168536     
   5.5499999999999994E-002    -3.9821520778072790     
   5.5800000000000002E-002    -3.1515085460785386     
   5.6099999999999997E-002    -2.1493293476584285     
   5.6400000000000006E-002    -1.0192514899270848     
   5.6700000000000000E-002    0.18755657132356690     
   5.6999999999999995E-002     1.4146928742413767     
   5.7300000000000004E-002     2.6058352045759583     
   5.7599999999999998E-002     3.7071168659624494     
   5.7900000000000007E-002     4.6721093068726738     
   5.8200000000000002E-002     5.4640754818429409     
   5.8499999999999996E-002     6.0578678805354809     
   5.8800000000000005E-002     6.4422535047134346     
   5.9100000000000000E-002     6.6177518105412503     
   5.9400000000000008E-002     6.5985743637792407     
   5.9700000000000003E-002     6.4068814514999239     
   6.0000000000000012E-002     6.0735568663600921     
   6.0300000000000006E-002     5.6327924600982975     
   6.0600000000000001E-002     5.1196722243010031     
   6.0900000000000010E-002     4.5675600788023187     
   6.1200000000000004E-002     4.0045760717828376     
   6.1500000000000013E-002     3.4539448419896517     
   6.1800000000000008E-002     2.9305112002442226     
   6.2100000000000002E-002     2.4432483738419117     
   6.2399999999999997E-002     1.9932260007537703     
   6.2700000000000006E-002     1.5776562669939032     
   6.3000000000000000E-002     1.1885372332048101     
   6.3300000000000009E-002    0.81718888529103539     
   6.3600000000000004E-002    0.45329050100085500     
   6.3899999999999998E-002     8.8438499501993340E-002
   6.4199999999999993E-002   -0.28431932827420908     
   6.4500000000000002E-002   -0.66903996853322811     
   6.4800000000000010E-002    -1.0664146240001400     
   6.5100000000000005E-002    -1.4741517890587341     
   6.5400000000000000E-002    -1.8861067026239864     
   6.5700000000000008E-002    -2.2949182862426882     
   6.5999999999999989E-002    -2.6888327732710073     
   6.6299999999999998E-002    -3.0567870777340027     
   6.6600000000000006E-002    -3.3850466175487823     
   6.6900000000000001E-002    -3.6609698862054998     
   6.7199999999999996E-002    -3.8728981222693051     
   6.7500000000000004E-002    -4.0105609614179034     
   6.7800000000000013E-002    -4.0687446817773392     
   6.8099999999999994E-002    -4.0450241103155617     
   6.8400000000000002E-002    -3.9446583616380089     
   6.8700000000000011E-002    -3.7777618379178000     
   6.8999999999999992E-002    -3.5624690819170861     
   6.9300000000000000E-002    -3.3221913581824420     
   6.9600000000000009E-002    -3.0853710146827078     
   6.9900000000000004E-002    -2.8831069051130784     
   7.0199999999999999E-002    -2.7444825888278097     
   7.0500000000000007E-002    -2.6951109027769435     
   7.0800000000000016E-002    -2.7497786065901995     
   7.1099999999999997E-002    -2.9107307419549056     
   7.1400000000000005E-002    -3.1630293094052329     
   7.1700000000000000E-002    -3.4722894379668889     
   7.1999999999999995E-002    -3.7860797215204878     
   7.2300000000000003E-002    -4.0348781348634724     
   7.2600000000000012E-002    -4.1382062076885173     
   7.2900000000000006E-002    -4.0128996724238002     
   7.3200000000000001E-002    -3.5806431490368134     
   7.3499999999999996E-002    -2.7825445543706144     
   7.3800000000000004E-002    -1.5854671932799564     
   7.4099999999999999E-002     3.5954433256466523E-003
   7.4400000000000008E-002     1.9353592354989471     
   7.4700000000000003E-002     4.1124617888525670     
   7.5000000000000011E-002     6.3944639478736098     
   7.5299999999999992E-002     8.6041400459520876     
   7.5600000000000001E-002     10.541666442348067     
   7.5900000000000009E-002     12.002174525529501     
   7.6200000000000004E-002     12.793869069681406     
   7.6499999999999999E-002     12.762243346360183     
   7.6800000000000007E-002     11.804631279182237     
   7.7099999999999988E-002     9.8900505143402917     
   7.7399999999999997E-002     7.0648629010624262     
   7.7700000000000005E-002     3.4574857617548851     
   7.8000000000000014E-002   -0.72838006764875196     
   7.8299999999999995E-002    -5.2264070097268327     
   7.8600000000000003E-002    -9.7263603688941558     
   7.8900000000000012E-002    -13.900566157071225     
   7.9199999999999993E-002    -17.427364362675686     
   7.9500000000000001E-002    -20.021560616804635     
   7.9800000000000010E-002    -21.454489594742874     
   8.0100000000000018E-002    -21.575856029852105     
   8.0399999999999999E-002    -20.324150120705177     
   8.0700000000000008E-002    -17.731816609784055     
   8.1000000000000003E-002    -13.923034699509905     
   8.1299999999999997E-002    -9.1008144605400840     
   8.1600000000000006E-002    -3.5350425381312043     
   8.1900000000000014E-002     2.4642849872056636     
   8.2199999999999995E-002     8.5626916112621636     
   8.2500000000000004E-002     14.431477499258083     
   8.2799999999999999E-002     19.762221983884771     
   8.3100000000000007E-002     24.290876344875805     
   8.3400000000000002E-002     27.806913712109079     
   8.3700000000000011E-002     30.165169619440093     
   8.4000000000000005E-002     31.287876832305493     
   8.4300000000000000E-002     31.165324959278053     
   8.4599999999999995E-002     29.851173127326362     
   8.4900000000000003E-002     27.451663809311832     
   8.5199999999999998E-002     24.121534921490323     
   8.5500000000000007E-002     20.043428620857135     
   8.5800000000000001E-002     15.426597350977815     
   8.6100000000000010E-002     10.483413741533759     
   8.6399999999999991E-002     5.4286152448824296     
   8.6699999999999999E-002    0.46065958122822837     
   8.7000000000000008E-002    -4.2415429777384102     
   8.7300000000000003E-002    -8.5283143206193301     
   8.7599999999999997E-002    -12.283002688334228     
   8.7900000000000006E-002    -15.425115347605107     
   8.8200000000000014E-002    -17.911573224763938     
   8.8499999999999995E-002    -19.732902681025109     
   8.8800000000000004E-002    -20.912682881442606     
   8.9100000000000013E-002    -21.500800930513840     
   8.9399999999999993E-002    -21.565157269276526     
   8.9700000000000002E-002    -21.187970465356518     
   9.0000000000000011E-002    -20.454348749241081     
   9.0299999999999991E-002    -19.448780664780809     
   9.0600000000000000E-002    -18.246836497563077     
   9.0900000000000009E-002    -16.910996866173978     
   9.1200000000000017E-002    -15.489510619270032     
   9.1499999999999998E-002    -14.013264852217951     
   9.1800000000000007E-002    -12.498579865316387     
   9.2100000000000001E-002    -10.948949322857294     
   9.2399999999999996E-002    -9.3590605783760026     
   9.2700000000000005E-002    -7.7185211759632431     
   9.3000000000000013E-002    -6.0178004539731313     
   9.3300000000000008E-002    -4.2493803567219066     
   9.3600000000000003E-002    -2.4158083627022791     
   9.3899999999999997E-002   -0.52583562719575005     
   9.4200000000000006E-002     1.3969135396067260     
   9.4500000000000001E-002     3.3228073044957958     
   9.4800000000000009E-002     5.2083485313771245     
   9.5100000000000004E-002     7.0069186523514668     
   9.5399999999999999E-002     8.6663632119281147     
   9.5699999999999993E-002     10.134376125060490     
   9.6000000000000002E-002     11.364724467444265     
   9.6300000000000011E-002     12.314842208781478     
   9.6600000000000005E-002     12.957486758519327     
   9.6900000000000000E-002     13.274569945584725     
   9.7200000000000009E-002     13.264551783392532     
   9.7499999999999989E-002     12.942402120605230     
   9.7799999999999998E-002     12.332807698676453     
   9.8100000000000007E-002     11.479488213935882     
   9.8400000000000015E-002     10.429129260349438     
   9.8699999999999996E-002     9.2416782494112919     
   9.9000000000000005E-002     7.9736564534435495     
   9.9300000000000013E-002     6.6849959059209052     
   9.9599999999999994E-002     5.4279852419031727     
   9.9900000000000003E-002     4.2471580087910104     
  0.10020000000000001          3.1777341661388410     
  0.10049999999999999          2.2400452724645721     
  0.10080000000000000          1.4450912416309600     
  0.10110000000000001         0.78739504212540012     
  0.10140000000000000         0.25513175551411515     
  0.10170000000000000        -0.17636316723730361     
  0.10200000000000001        -0.53559261617413279     
  0.10230000000000002        -0.85322186129347233     
  0.10260000000000000         -1.1630240972945820     
  0.10290000000000001         -1.4911591703811351     
  0.10320000000000000         -1.8612286596467829     
  0.10350000000000001         -2.2872371908376263     
  0.10380000000000000         -2.7724538892567869     
  0.10410000000000001         -3.3130365414048653     
  0.10440000000000001         -3.8922854803328439     
  0.10470000000000000         -4.4875062794423020     
  0.10500000000000000         -5.0668360482199475     
  0.10530000000000000         -5.5960125310317865     
  0.10560000000000000         -6.0384852927842392     
  0.10590000000000001         -6.3596324858538029     
  0.10620000000000000         -6.5307219850523008     
  0.10650000000000001         -6.5285645989789245     
  0.10679999999999999         -6.3423013220575060     
  0.10710000000000000         -5.9695393226883251     
  0.10740000000000001         -5.4214157281816693     
  0.10770000000000000         -4.7197710300141038     
  0.10800000000000000         -3.8941332858757880     
  0.10830000000000001         -2.9849501050642822     
  0.10859999999999999         -2.0338396093787217     
  0.10890000000000000         -1.0868691705666738     
  0.10920000000000001        -0.18694739196180599     
  0.10950000000000001         0.62700064562876956     
  0.10979999999999999          1.3224135518170534     
  0.11009999999999999          1.8758302494313417     
  0.11040000000000001          2.2729723434003772     
  0.11070000000000001          2.5099895996751318     
  0.11100000000000000          2.5921895842673823     
  0.11130000000000000          2.5331925675487010     
  0.11160000000000002          2.3549156830862858     
  0.11190000000000001          2.0818688050391883     
  0.11220000000000001          1.7458067016248973     
  0.11250000000000000          1.3760023949974822     
  0.11280000000000000          1.0053238837927974     
  0.11309999999999999         0.66214914790523716     
  0.11340000000000001         0.37335731906831154     
  0.11369999999999998         0.16120997015031477     
  0.11400000000000000          4.2133298518552867E-002
  0.11430000000000000          2.7747569400956712E-002
  0.11460000000000002         0.12099249460609063     
  0.11489999999999999         0.31932299652568635     
  0.11520000000000001         0.61025389033088817     
  0.11550000000000001         0.97645456232607186     
  0.11580000000000000          1.3913847821655423     
  0.11609999999999999          1.8247998799274576     
  0.11640000000000002          2.2416949521687979     
  0.11670000000000001          2.6056006968697853     
  0.11700000000000001          2.8813841360992942     
  0.11730000000000000          3.0386356557340193     
  0.11760000000000000          3.0526128406156321     
  0.11789999999999999          2.9099352302004586     
  0.11820000000000001          2.6063439509492046     
  0.11850000000000001          2.1518358112446698     
  0.11880000000000000          1.5669122205993167     
  0.11910000000000000         0.88497579240876023     
  0.11940000000000002         0.14567048907033375     
  0.11970000000000001        -0.60272873475309097     
  0.12000000000000001         -1.3133837934031281     
  0.12030000000000000         -1.9394001038085202     
  0.12060000000000000         -2.4408307025937228     
  0.12089999999999999         -2.7876251394812068     
  0.12119999999999999         -2.9608626690449276     
  0.12150000000000001         -2.9558780697117197     
  0.12180000000000001         -2.7808123673708307     
  0.12210000000000000         -2.4570418733393584     
  0.12239999999999999         -2.0158476824884852     
  0.12270000000000002         -1.4964664251166864     
  0.12300000000000001        -0.94206709083450701     
  0.12330000000000001        -0.39591967362247793     
  0.12360000000000000         0.10125140688760431     
  0.12390000000000000         0.51551995455413158     
  0.12419999999999999         0.82082978384304406     
  0.12450000000000001          1.0023430635875956     
  0.12480000000000001          1.0544229774884983     
  0.12509999999999999         0.98314774206761468     
  0.12540000000000001         0.80419421032467342     
  0.12570000000000003         0.53955827160552428     
  0.12600000000000000         0.21851675672521464     
  0.12630000000000002        -0.12845564327916648     
  0.12659999999999999        -0.46883015824985663     
  0.12690000000000001        -0.77375385944728592     
  0.12719999999999998         -1.0172243635301363     
  0.12750000000000000         -1.1807761225849775     
  0.12780000000000002         -1.2517943298238299     
  0.12809999999999999         -1.2272706161298701     
  0.12840000000000001         -1.1101215344853821     
  0.12869999999999998        -0.91305234597900076     
  0.12900000000000000        -0.65274124552336243     
  0.12930000000000003        -0.35168194773471928     
  0.12959999999999999         -3.5137705509472261E-002
  0.12990000000000002         0.27122580427087617     
  0.13019999999999998         0.54338794276385705     
  0.13050000000000000         0.76042450874311163     
  0.13080000000000003         0.90634085358622651     
  0.13109999999999999         0.97120825166750824     
  0.13140000000000002         0.95200253357061815     
  0.13169999999999998         0.85256990906824848     
  0.13200000000000001         0.68341082945502329     
  0.13229999999999997         0.45943776405493497     
  0.13260000000000000         0.20131542811608621     
  0.13290000000000002         -6.9838115269592105E-002
  0.13319999999999999        -0.33046592284816567     
  0.13350000000000001        -0.55885468846814979     
  0.13380000000000003        -0.73674000449478561     
  0.13410000000000000        -0.84785222314491793     
  0.13440000000000002        -0.88452688900895726     
  0.13469999999999999        -0.83981704307806337     
  0.13500000000000001        -0.71776650494023420     
  0.13529999999999998        -0.52424845329588510     
  0.13560000000000000        -0.27207773934977747     
  0.13590000000000002          2.2535067314226803E-002
  0.13619999999999999         0.34092813819391826     
  0.13650000000000001         0.66176889238823655     
  0.13680000000000003         0.96512801190653885     
  0.13710000000000000          1.2300215672919117     
  0.13740000000000002          1.4404693162144016     
  0.13769999999999999          1.5821318169291079     
  0.13800000000000001          1.6460140734166466     
  0.13829999999999998          1.6281142632533601     
  0.13860000000000000          1.5294598532672923     
  0.13890000000000002          1.3576571209140107     
  0.13919999999999999          1.1227638328395648     
  0.13950000000000001         0.84198586501356876     
  0.13979999999999998         0.53261812830186461     
  0.14010000000000000         0.21586002402134041     
  0.14040000000000002         -8.8832441271491994E-002
  0.14069999999999999        -0.36266652909347691     
  0.14100000000000001        -0.58976140198223514     
  0.14130000000000004        -0.75921591872214689     
  0.14160000000000000        -0.86387867549520858     
  0.14189999999999997        -0.90308660323667955     
  0.14219999999999999        -0.88033581178878251     
  0.14250000000000002        -0.80490021165762415     
  0.14279999999999998        -0.68854189013780953     
  0.14310000000000000        -0.54601527316247578     
  0.14339999999999997        -0.39349362785533215     
  0.14369999999999999        -0.24564900695147912     
  0.14400000000000002        -0.11686698345777502     
  0.14429999999999998         -1.7432764678378773E-002
  0.14460000000000001          4.4342046015553555E-002
  0.14490000000000003          6.4954172158007639E-002
  0.14520000000000000          4.4478298920396959E-002
  0.14550000000000002         -1.4891504735867776E-002
  0.14579999999999999        -0.10459385615371530     
  0.14610000000000001        -0.21775301813633841     
  0.14640000000000003        -0.34194782193160728     
  0.14670000000000000        -0.46744284723544760     
  0.14699999999999996        -0.58121921114314923     
  0.14729999999999999        -0.67342486103194077     
  0.14760000000000001        -0.73466523554517027     
  0.14789999999999998        -0.75690221031053118     
  0.14820000000000000        -0.73717855485383632     