  -1.4999999999999999E-002     0.0000000000000000     
  -1.4700000000000000E-002    -1.3174907726129100E-033
  -1.4400000000000000E-002    -1.5548322855561932E-026
  -1.4100000000000000E-002     5.8320697595583588E-023
  -1.3800000000000000E-002     1.3393164518822376E-020
  -1.3500000000000000E-002    -3.9599407141279925E-020
  -1.3200000000000000E-002    -4.1213885358620810E-018
  -1.2899999999999998E-002     1.5591688113303756E-017
  -1.2600000000000000E-002     1.1843647533052604E-016
  -1.2299999999999998E-002    -4.3492264236227957E-016
  -1.2000000000000000E-002    -1.0064792006758283E-015
  -1.1699999999999999E-002     2.6773568789166005E-015
  -1.1399999999999999E-002     9.0039237988616973E-015
  -1.1099999999999999E-002    -9.2449470346309301E-015
  -1.0799999999999999E-002    -4.9875368130612639E-014
  -1.0499999999999999E-002     1.1238432300614362E-015
  -1.0199999999999999E-002     1.3142210273219358E-013
  -9.8999999999999991E-003     2.6639712745948111E-013
  -9.5999999999999992E-003    -1.2536182396373906E-013
  -9.2999999999999992E-003    -1.3195458908594412E-012
  -8.9999999999999993E-003    -1.2711009729835470E-012
  -8.6999999999999994E-003     4.2167457703529274E-012
  -8.3999999999999995E-003     4.7229670467053303E-012
  -8.0999999999999996E-003    -4.1614782067607115E-012
  -7.7999999999999988E-003    -5.6465501830962864E-012
  -7.4999999999999997E-003    -1.8886189937053320E-011
  -7.1999999999999998E-003    -1.5094008414357894E-011
  -6.8999999999999981E-003     9.0066958219190656E-011
  -6.5999999999999982E-003     8.5752499634523620E-011
  -6.3000000000000000E-003    -1.9702233194374035E-010
  -6.0000000000000001E-003    -7.8395772994812884E-011
  -5.6999999999999985E-003     6.8174907126302251E-011
  -5.3999999999999986E-003    -3.1803890733821321E-010
  -5.1000000000000004E-003     6.8846118036647317E-010
  -4.7999999999999987E-003     1.3729783154660327E-009
  -4.5000000000000005E-003    -2.0582283688061681E-009
  -4.1999999999999989E-003    -2.1114384523544755E-009
  -3.8999999999999990E-003     3.2031318709123225E-009
  -3.5999999999999990E-003    -1.8613749531966110E-009
  -3.2999999999999991E-003    -1.0510020809635537E-009
  -2.9999999999999992E-003     1.3829175107772729E-008
  -2.6999999999999993E-003    -8.2070781726469392E-009
  -2.3999999999999994E-003    -2.2666698969672201E-008
  -2.0999999999999977E-003     2.1448515286534984E-008
  -1.7999999999999995E-003     1.4012824866748221E-009
  -1.4999999999999979E-003    -2.3505873545330887E-008
  -1.1999999999999997E-003     5.7546371861895034E-008
  -8.9999999999999976E-004    -4.1732168985996618E-009
  -5.9999999999999810E-004    -9.1916917959083460E-008
  -2.9999999999999992E-004     5.4184949074343161E-008
   0.0000000000000000          4.2068095567196329E-009
   3.0000000000000165E-004    -6.8342292140674839E-008
   5.9999999999999984E-004     1.8687631240891067E-007
   9.0000000000000149E-004    -3.4573261055231242E-008
   1.2000000000000031E-003    -2.8428743639900750E-007
   1.5000000000000013E-003     2.8570288545404170E-007
   1.8000000000000030E-003     1.0673530377398129E-007
   2.1000000000000012E-003    -5.7916446098772304E-007
   2.3999999999999994E-003     2.6172032027976809E-007
   2.7000000000000010E-003     7.0028238935229726E-007
   2.9999999999999992E-003    -5.0420506363305932E-007
   3.3000000000000008E-003    -6.3390572713628432E-007
   3.6000000000000025E-003     3.6964838702900786E-007
   3.9000000000000007E-003     7.3861869381691516E-007
   4.2000000000000023E-003     1.8553010234281292E-007
   4.5000000000000005E-003    -1.1250116795634884E-006
   4.7999999999999987E-003    -9.3847417880073182E-007
   5.1000000000000004E-003     1.0694221913457817E-006
   5.4000000000000020E-003     1.0334493821808793E-006
   5.7000000000000037E-003    -1.9388340499766256E-007
   5.9999999999999984E-003     3.3995730604690863E-007
   6.3000000000000000E-003     8.0856854527922813E-007
   6.6000000000000017E-003     3.1029868796079322E-006
   6.9000000000000034E-003     9.8315440024450887E-006
   7.2000000000000015E-003     1.5573121369768814E-005
   7.5000000000000032E-003     1.9800369246597986E-005
   7.8000000000000014E-003     2.7677058689050482E-005
   8.0999999999999996E-003     3.3798208565407387E-005
   8.4000000000000012E-003     2.9014297359318968E-005
   8.7000000000000029E-003     1.2929688436727101E-005
   9.0000000000000011E-003    -1.4634589738730949E-005
   9.2999999999999992E-003    -5.7222386002366418E-005
   9.6000000000000009E-003    -1.1580077808426986E-004
   9.8999999999999991E-003    -2.0445913607860172E-004
   1.0200000000000001E-002    -3.6937975984531907E-004
   1.0500000000000002E-002    -6.7741819248355432E-004
   1.0800000000000004E-002    -1.1965850063817586E-003
   1.1099999999999999E-002    -2.0108218185948415E-003
   1.1400000000000000E-002    -3.2640774545888971E-003
   1.1700000000000002E-002    -5.1754852457782810E-003
   1.2000000000000004E-002    -8.0241504581080141E-003
   1.2300000000000002E-002    -1.2159380055476007E-002
   1.2600000000000000E-002    -1.8025666358807760E-002
   1.2900000000000002E-002    -2.6165095912282541E-002
   1.3200000000000000E-002    -3.7227287625620518E-002
   1.3500000000000002E-002    -5.1995813462051045E-002
   1.3800000000000003E-002    -7.1331746320297193E-002
   1.4100000000000001E-002    -9.6063762113913015E-002
   1.4400000000000000E-002   -0.12695559749810706     
   1.4700000000000001E-002   -0.16465075164997020     
   1.4999999999999999E-002   -0.20950849155014234     
   1.5300000000000001E-002   -0.26138549782367571     
   1.5600000000000003E-002   -0.31949799918794786     
   1.5899999999999997E-002   -0.38230442581798468     
   1.6199999999999999E-002   -0.44724204622047720     
   1.6500000000000001E-002   -0.51053320745601427     
   1.6800000000000002E-002   -0.56717001673558065     
   1.7100000000000004E-002   -0.61099117180035833     
   1.7400000000000006E-002   -0.63480578958849898     
   1.7700000000000000E-002   -0.63062017211059695     
   1.8000000000000002E-002   -0.59004508495849117     
   1.8300000000000004E-002   -0.50507169061569779     
   1.8600000000000005E-002   -0.36872189462412963     
   1.8900000000000000E-002   -0.17597983217240454     
   1.9200000000000002E-002     7.5410569653985085E-002
   1.9500000000000003E-002    0.38419222653125118     
   1.9799999999999998E-002    0.74459361321334128     
   2.0100000000000000E-002     1.1461901530747431     
   2.0400000000000001E-002     1.5740589890968437     
   2.0700000000000003E-002     2.0084471421388748     
   2.0999999999999998E-002     2.4262663959128647     
   2.1299999999999999E-002     2.8017706437397889     
   2.1600000000000001E-002     3.1083163714217332     
   2.1900000000000003E-002     3.3204683703746478     
   2.2200000000000004E-002     3.4151000388182844     
   2.2500000000000006E-002     3.3741695281652166     
   2.2800000000000001E-002     3.1858612908572983     
   2.3100000000000002E-002     2.8455893457137189     
   2.3400000000000004E-002     2.3574385184233462     
   2.3699999999999999E-002     1.7336456423659294     
   2.4000000000000000E-002    0.99459276399072338     
   2.4300000000000002E-002    0.16752489775044527     
   2.4599999999999997E-002   -0.71518217428857356     
   2.4900000000000005E-002    -1.6176359365630133     
   2.5200000000000000E-002    -2.5026359090938768     
   2.5499999999999995E-002    -3.3343266803663285     
   2.5800000000000003E-002    -4.0795592472232176     
   2.6099999999999998E-002    -4.7100199735073200     
   2.6400000000000007E-002    -5.2043322502278349     
   2.6700000000000002E-002    -5.5484756347115765     
   2.6999999999999996E-002    -5.7373441548753670     
   2.7300000000000005E-002    -5.7753294810117248     
   2.7600000000000000E-002    -5.6759022623998936     
   2.7900000000000008E-002    -5.4623483642472506     
   2.8200000000000003E-002    -5.1668485718990427     
   2.8499999999999998E-002    -4.8285597977908621     
   2.8800000000000006E-002    -4.4925121578066491     
   2.9100000000000001E-002    -4.2057980882215027     
   2.9400000000000003E-002    -4.0136021998030991     
   2.9700000000000004E-002    -3.9547747989402073     
   3.0000000000000006E-002    -4.0552019433962565     
   3.0300000000000001E-002    -4.3225521280462704     
   3.0600000000000002E-002    -4.7401589407866309     
   3.0900000000000004E-002    -5.2634376317226854     
   3.1199999999999999E-002    -5.8171151660097280     
   3.1500000000000007E-002    -6.2955935735117583     
   3.1800000000000002E-002    -6.5689232885813835     
   3.2099999999999997E-002    -6.4896433778325298     
   3.2400000000000005E-002    -5.9059346166238615     
   3.2700000000000000E-002    -4.6775463265274171     
   3.3000000000000002E-002    -2.6925304975313078     
   3.3300000000000003E-002    0.11449864184455016     
   3.3599999999999998E-002     3.7467996918747857     
   3.3900000000000000E-002     8.1330965705448293     
   3.4200000000000001E-002     13.122999893652130     
   3.4500000000000003E-002     18.486760702566770     
   3.4799999999999998E-002     23.926587524357362     
   3.5099999999999999E-002     29.094569487702245     
   3.5400000000000001E-002     33.614962736024147     
   3.5699999999999996E-002     37.117316306503589     
   3.6000000000000004E-002     39.265570637888779     
   3.6299999999999999E-002     39.787581419357196     
   3.6600000000000008E-002     38.506064415841941     
   3.6900000000000002E-002     35.352530553963135     
   3.7199999999999997E-002     30.380147175457132     
   3.7500000000000006E-002     23.765422225795376     
   3.7800000000000000E-002     15.794196684946565     
   3.8100000000000009E-002     6.8461044472197878     
   3.8400000000000004E-002    -2.6360744817790205     
   3.8699999999999998E-002    -12.175820053138853     
   3.9000000000000007E-002    -21.294249965228918     
   3.9300000000000002E-002    -29.549338569568079     
   3.9600000000000003E-002    -36.555674612178443     
   3.9900000000000005E-002    -42.011897016178189     
   4.0200000000000000E-002    -45.715498768591694     
   4.0500000000000001E-002    -47.565119548817073     
   4.0800000000000003E-002    -47.565722278284092     
   4.1100000000000005E-002    -45.817232948957653     
   4.1399999999999999E-002    -42.499781559605374     
   4.1700000000000008E-002    -37.860793184063617     
   4.2000000000000003E-002    -32.192008231927858     
   4.2299999999999997E-002    -25.809178723808859     
   4.2600000000000006E-002    -19.037419856771187     
   4.2900000000000001E-002    -12.187721955904905     
   4.3200000000000002E-002    -5.5453228032990740     
   4.3500000000000004E-002    0.63998413593951375     
   4.3799999999999999E-002     6.1668255879503961     
   4.4100000000000000E-002     10.886277861750079     
   4.4400000000000002E-002     14.696804623431811     
   4.4700000000000004E-002     17.559239902510072     
   4.4999999999999998E-002     19.477160929651969     
   4.5300000000000000E-002     20.499217490421987     
   4.5600000000000002E-002     20.717351418331678     
   4.5899999999999996E-002     20.242675302082510     
   4.6200000000000005E-002     19.213874366544410     
   4.6500000000000000E-002     17.777062957983237     
   4.6799999999999994E-002     16.071542370172793     
   4.7100000000000003E-002     14.239619885175955     
   4.7399999999999998E-002     12.396830279853145     
   4.7700000000000006E-002     10.640950918756712     
   4.8000000000000001E-002     9.0490157995264795     
   4.8300000000000010E-002     7.6605528103801053     
   4.8600000000000004E-002     6.5003880037539936     
   4.8899999999999999E-002     5.5653690092101042     
   4.9200000000000008E-002     4.8280066394341361     
   4.9500000000000002E-002     4.2578109779296724     
   4.9800000000000011E-002     3.8030254022989833     
   5.0100000000000006E-002     3.4137169575850304     
   5.0400000000000000E-002     3.0442005945156505     
   5.0700000000000009E-002     2.6432053484889466     
   5.1000000000000004E-002     2.1798073801903746     
   5.1299999999999998E-002     1.6265661410541663     
   5.1600000000000007E-002    0.96737830273981174     
   5.1900000000000002E-002    0.20616321625556852     
   5.2200000000000010E-002   -0.65085963036727712     
   5.2500000000000005E-002    -1.5793100143300867     
   5.2800000000000000E-002    -2.5467352181974889     
   5.3099999999999994E-002    -3.5188929134080755     
   5.3400000000000003E-002    -4.4485491588830648     
   5.3699999999999998E-002    -5.2960899955205489     
   5.4000000000000006E-002    -6.0196331474581983     
   5.4300000000000001E-002    -6.5803483335852677     
   5.4599999999999996E-002    -6.9545090939099676     
   5.4900000000000004E-002    -7.1192725422812453     
   5.5199999999999999E-002    -7.0692418367011811     
   5.5499999999999994E-002    -6.8108399746996362     
   5.5800000000000002E-002    -6.3563188070323671     
   5.6099999999999997E-002    -5.7369187989394463     
   5.6400000000000006E-002    -4.9858774056047706     
   5.6700000000000000E-002    -4.1432489462260662     
   5.6999999999999995E-002    -3.2576329040397582     
   5.7300000000000004E-002    -2.3693089019540046     
   5.7599999999999998E-002    -1.5227927885459549     
   5.7900000000000007E-002   -0.75632207598963330     
   5.8200000000000002E-002    -9.5920551305407484E-002
   5.8499999999999996E-002    0.43314762426427383     
   5.8800000000000005E-002    0.82139871258986907     
   5.9100000000000000E-002     1.0676576831260525     
   5.9400000000000008E-002     1.1765290221356339     
   5.9700000000000003E-002     1.1674854495436666     
   6.0000000000000012E-002     1.0617918745050696     
   6.0300000000000006E-002    0.88712738129701951     
   6.0600000000000001E-002    0.67716627069282564     
   6.0900000000000010E-002    0.46144028737641191     
   6.1200000000000004E-002    0.27177583792922488     
   6.1500000000000013E-002    0.13492910486544898     
   6.1800000000000008E-002     6.9913774342482735E-002
   6.2100000000000002E-002     9.1490572346508578E-002
   6.2399999999999997E-002    0.20359850908317237     
   6.2700000000000006E-002    0.40181018805748242     
   6.3000000000000000E-002    0.67510793793040580     
   6.3300000000000009E-002     1.0038681962029452     
   6.3600000000000004E-002     1.3628177292212946     
   6.3899999999999998E-002     1.7254733605812693     
   6.4199999999999993E-002     2.0627090422622065     
   6.4500000000000002E-002     2.3465709112667121     
   6.4800000000000010E-002     2.5553633555729012     
   6.5100000000000005E-002     2.6691846218337156     
   6.5400000000000000E-002     2.6763743729541938     
   6.5700000000000008E-002     2.5748068701693434     
   6.5999999999999989E-002     2.3643500274115063     
   6.6299999999999998E-002     2.0570568587165972     
   6.6600000000000006E-002     1.6700336584673412     
   6.6900000000000001E-002     1.2216651191923822     
   6.7199999999999996E-002    0.74100153351655373     
   6.7500000000000004E-002    0.25339370825911661     
   6.7800000000000013E-002   -0.21400231761120975     
   6.8099999999999994E-002   -0.63018892336139087     
   6.8400000000000002E-002   -0.97529074971175900     
   6.8700000000000011E-002    -1.2275277072033419     
   6.8999999999999992E-002    -1.3712359328551136     
   6.9300000000000000E-002    -1.4039922624603836     
   6.9600000000000009E-002    -1.3224906617301622     
   6.9900000000000004E-002    -1.1381628256127121     
   7.0199999999999999E-002   -0.87124596251659259     
   7.0500000000000007E-002   -0.54209255132648604     
   7.0800000000000016E-002   -0.18624125298929398     
   7.1099999999999997E-002    0.16324653449099089     
   7.1400000000000005E-002    0.47329048892316411     
   7.1700000000000000E-002    0.70675692905587739     
   7.1999999999999995E-002    0.84052798842837817     
   7.2300000000000003E-002    0.85470858979676634     
   7.2600000000000012E-002    0.73943034834523880     
   7.2900000000000006E-002    0.50327871988975270     
   7.3200000000000001E-002    0.15955789049099753     
   7.3499999999999996E-002   -0.26217906960417481     
   7.3800000000000004E-002   -0.72217301544148360     
   7.4099999999999999E-002    -1.1805798699051466     
   7.4400000000000008E-002    -1.5893126314836716     
   7.4700000000000003E-002    -1.9061723452722972     
   7.5000000000000011E-002    -2.0973874988150061     
   7.5299999999999992E-002    -2.1357969694327070     
   7.5600000000000001E-002    -2.0117074933646610     
   7.5900000000000009E-002    -1.7291134166743740     
   7.6200000000000004E-002    -1.3052518046492612     
   7.6499999999999999E-002   -0.77304391220603508     
   7.6800000000000007E-002   -0.17476980134978518     
   7.7099999999999988E-002    0.44326262390197191     
   7.7399999999999997E-002     1.0297491273167401     
   7.7700000000000005E-002     1.5384674857414666     
   7.8000000000000014E-002     1.9322715500440970     
   7.8299999999999995E-002     2.1804651654164955     
   7.8600000000000003E-002     2.2696494479508864     
   7.8900000000000012E-002     2.1990208077972717     
   7.9199999999999993E-002     1.9779183371672251     
   7.9500000000000001E-002     1.6328976950112759     
   7.9800000000000010E-002     1.1940377670818314     
   8.0100000000000018E-002    0.69713102182635833     
   8.0399999999999999E-002    0.18423895331599285     
   8.0700000000000008E-002   -0.31154464683521615     
   8.1000000000000003E-002   -0.75616047706799017     
   8.1299999999999997E-002    -1.1222520764298944     
   8.1600000000000006E-002    -1.3962369799896142     
   8.1900000000000014E-002    -1.5636989671502968     
   8.2199999999999995E-002    -1.6249149626366275     
   8.2500000000000004E-002    -1.5862422792654256     
   8.2799999999999999E-002    -1.4543180105051725     
   8.3100000000000007E-002    -1.2487953599714752     
   8.3400000000000002E-002   -0.98515973157513936     
   8.3700000000000011E-002   -0.68218640849166146     
   8.4000000000000005E-002   -0.36366071546496481     
   8.4300000000000000E-002    -4.4392160978094973E-002
   8.4599999999999995E-002    0.25477876551270562     
   8.4900000000000003E-002    0.51818583993129264     
   8.5199999999999998E-002    0.73623464638785763     
   8.5500000000000007E-002    0.89584843029634498     
   8.5800000000000001E-002    0.99514845494029192     
   8.6100000000000010E-002     1.0323807939582426     
   8.6399999999999991E-002     1.0084635959657620     
   8.6699999999999999E-002    0.93322763550740662     
   8.7000000000000008E-002    0.81335024038836867     
   8.7300000000000003E-002    0.66171227263984822     
   8.7599999999999997E-002    0.49151273391601819     
   8.7900000000000006E-002    0.31358697245368122     
   8.8200000000000014E-002    0.14186027320106737     
   8.8499999999999995E-002    -1.5317992761164700E-002
   8.8800000000000004E-002   -0.15028507647092909     
   8.9100000000000013E-002   -0.25743251403075884     
   8.9399999999999993E-002   -0.33647393391166863     
   8.9700000000000002E-002   -0.38607560659891366     
   9.0000000000000011E-002   -0.41040464275361432     
   9.0299999999999991E-002   -0.41317023874373487     
   9.0600000000000000E-002   -0.39935632602264698     
   9.0900000000000009E-002   -0.37646444801631734     
   9.1200000000000017E-002   -0.34784304306537905     
   9.1499999999999998E-002   -0.32089000237882370     
   9.1800000000000007E-002   -0.29972880460364920     
   9.2100000000000001E-002   -0.28631069626844802     
   9.2399999999999996E-002   -0.28591459425192001     
   9.2700000000000005E-002   -0.29629527910013420     
   9.3000000000000013E-002   -0.31835701385526927     
   9.3300000000000008E-002   -0.35084428682086860     
   9.3600000000000003E-002   -0.38730706909452101     
   9.3899999999999997E-002   -0.42674066700018826     
   9.4200000000000006E-002   -0.46137483901439968     
   9.4500000000000001E-002   -0.48542644444855176     
   9.4800000000000009E-002   -0.49614225713674287     
   9.5100000000000004E-002   -0.48506714742064116     
   9.5399999999999999E-002   -0.45196982133532460     
   9.5699999999999993E-002   -0.39441742559615178     
   9.6000000000000002E-002   -0.31086515564967288     
   9.6300000000000011E-002   -0.20713096322124230     
   9.6600000000000005E-002    -8.3922904964090328E-002
   9.6900000000000000E-002     5.1885969860047280E-002
   9.7200000000000009E-002    0.19231947871477029     
   9.7499999999999989E-002    0.33347740109195928     
   9.7799999999999998E-002    0.46525438629373245     
   9.8100000000000007E-002    0.58300982626435904     
   9.8400000000000015E-002    0.68160043670197090     
   9.8699999999999996E-002    0.75466958980077581     
   9.9000000000000005E-002    0.80177323228376274     
   9.9300000000000013E-002    0.81988016921596418     
   9.9599999999999994E-002    0.80900875883288204     
   9.9900000000000003E-002    0.77113739911305668     
  0.10020000000000001         0.70709793154413092     
  0.10049999999999999         0.62181900528348188     
  0.10080000000000000         0.51847301738051366     
  0.10110000000000001         0.40254621779210759     
  0.10140000000000000         0.28056817618194951     
  0.10170000000000000         0.15708230065720494     
  0.10200000000000001          4.0372814164795483E-002
  0.10230000000000002         -6.4695900714867985E-002
  0.10260000000000000        -0.15246513151461244     
  0.10290000000000001        -0.21724913499625159     
  0.10320000000000000        -0.25808417232730174     
  0.10350000000000001        -0.27118065330499436     
  0.10380000000000000        -0.25832393173502566     
  0.10410000000000001        -0.22236255824895876     
  0.10440000000000001        -0.16519771121111146     
  0.10470000000000000         -9.5183795193616388E-002
  0.10500000000000000         -1.6883061923932498E-002
  0.10530000000000000          6.2705448634769470E-002
  0.10560000000000000         0.13456992476881810     
  0.10590000000000001         0.19580462168457310     
  0.10620000000000000         0.23893497375011641     
  0.10650000000000001         0.26098635211880339     
  0.10679999999999999         0.26207741584642608     
  0.10710000000000000         0.23890749601813949     
  0.10740000000000001         0.19655772659796550     
  0.10770000000000000         0.13720758042201373     
  0.10800000000000000          6.3431872759090221E-002
  0.10830000000000001         -1.5817028149311421E-002
  0.10859999999999999         -9.8204542889109889E-002
  0.10890000000000000        -0.17673171637314869     
  0.10920000000000001        -0.24431941776659510     
  0.10950000000000001        -0.29992001571364224     
  0.10979999999999999        -0.33615698640509828     
  0.11009999999999999        -0.35202970274793399     
  0.11040000000000001        -0.34784974908082378     
  0.11070000000000001        -0.32052185400848837     
  0.11100000000000000        -0.27518620486780598     
  0.11130000000000000        -0.21425896454703586     
  0.11160000000000002        -0.14090621155208988     
  0.11190000000000001         -6.3725738815154628E-002
  0.11220000000000001          1.3899420582253167E-002
  0.11250000000000000          8.5123253794353065E-002
  0.11280000000000000         0.14271926498105475     
  0.11309999999999999         0.18513373591977089     
  0.11340000000000001         0.20735018958192691     
  0.11369999999999998         0.20821150623655513     
  0.11400000000000000         0.19024382105525292     
  0.11430000000000000         0.15364209943570192     
  0.11460000000000002         0.10352837044540994     
  0.11489999999999999          4.4680236949187727E-002
  0.11520000000000001         -1.8904538533494820E-002
  0.11550000000000001         -8.0409405719712959E-002
  0.11580000000000000        -0.13648552871814207     
  0.11609999999999999        -0.18411118880996463     
  0.11640000000000002        -0.21942309529689191     
  0.11670000000000001        -0.24288412391188255     
  0.11700000000000001        -0.25375019956109779     
  0.11730000000000000        -0.25244393383940988     
  0.11760000000000000        -0.24149478469785507     
  0.11789999999999999        -0.22159775634511558     
  0.11820000000000001        -0.19483837082859837     
  0.11850000000000001        -0.16357543771767355     
  0.11880000000000000        -0.12842410573181182     
  0.11910000000000000         -9.1963684674682147E-002
  0.11940000000000002         -5.5827829730794448E-002
  0.11970000000000001         -2.0643087340292670E-002
  0.12000000000000001          1.0174073965975904E-002
  0.12030000000000000          3.5744262905336596E-002
  0.12060000000000000          5.4771384215561734E-002
  0.12089999999999999          6.3827348337675907E-002
  0.12119999999999999          6.3877982782737361E-002
  0.12150000000000001          5.3077699894555366E-002
  0.12180000000000001          3.0720232563216678E-002
  0.12210000000000000         -7.2053538756991357E-004
  0.12239999999999999         -4.1585202417074578E-002
  0.12270000000000002         -8.9727727820934230E-002
  0.12300000000000001        -0.14134780712822259     
  0.12330000000000001        -0.19598313733938930     
  0.12360000000000000        -0.24895561673424754     
  0.12390000000000000        -0.29733871718699573     
  0.12419999999999999        -0.33990370495222061     
  0.12450000000000001        -0.37142612698855920     
  0.12480000000000001        -0.39119803039994938     
  0.12509999999999999        -0.39735188244452735     
  0.12540000000000001        -0.38681121807797519     
  0.12570000000000003        -0.36098318532181650     
  0.12600000000000000        -0.31880240972859947     
  0.12630000000000002        -0.26133301286313593     
  0.12659999999999999        -0.19213775914436920     
  0.12690000000000001        -0.11274194489408894     
  0.12719999999999998         -2.8255551465926475E-002
  0.12750000000000000          5.6525631210873353E-002
  0.12780000000000002         0.13843919051251946     
  0.12809999999999999         0.21105351589299057     
  0.12840000000000001         0.27202361242593698     
  0.12869999999999998         0.31851824470062134     
  0.12900000000000000         0.34841039051587558     
  0.12930000000000003         0.36306440094037035     
  0.12959999999999999         0.36290045853692338     
  0.12990000000000002         0.35037206900503232     
  0.13019999999999998         0.32963129242854217     
  0.13050000000000000         0.30326768170436752     
  0.13080000000000003         0.27501010367829315     
  0.13109999999999999         0.24815898667579345     
  0.13140000000000002         0.22488688997216069     
  0.13169999999999998         0.20671234627809490     
  0.13200000000000001         0.19449349865291804     
  0.13229999999999997         0.18842804063694268     
  0.13260000000000000         0.18753222735000377     
  0.13290000000000002         0.19139058501969636     
  0.13319999999999999         0.19827813985285608     
  0.13350000000000001         0.20666449811664159     
  0.13380000000000003         0.21593258824922526     
  0.13410000000000000         0.22340672711578707     
  0.13440000000000002         0.22884489091635232     
  0.13469999999999999         0.23094690838707826     
  0.13500000000000001         0.22775829806213505     
  0.13529999999999998         0.21996950618922967     
  0.13560000000000000         0.20628898884871943     
  0.13590000000000002         0.18636609179677779     
  0.13619999999999999         0.16192595321046546     
  0.13650000000000001         0.13220533438751941     
  0.13680000000000003          9.8954414644773628E-002
  0.13710000000000000          6.3928588213511550E-002
  0.13740000000000002          2.7148060040562007E-002
  0.13769999999999999         -8.5500706097572446E-003
  0.13800000000000001         -4.2729134142814665E-002
  0.13829999999999998         -7.4904059950117077E-002
  0.13860000000000000        -0.10350619719699937     
  0.13890000000000002        -0.12940358794661400     
  0.13919999999999999        -0.15178240475651825     
  0.13950000000000001        -0.17062247879720602     
  0.13979999999999998        -0.18629844070079607     
  0.14010000000000000        -0.19797086272253825     
  0.14040000000000002        -0.20572748330921570     
  0.14069999999999999        -0.20839410582447151     
  0.14100000000000001        -0.20550706544462788     
  0.14130000000000004        -0.19672984978703598     
  0.14160000000000000        -0.18076170610010478     
  0.14189999999999997        -0.15860940201153129     
  0.14219999999999999        -0.13031373670451304     
  0.14250000000000002         -9.6651306326230410E-002
  0.14279999999999998         -6.0329141954165201E-002
  0.14310000000000000         -2.2285882067481003E-002
  0.14339999999999997          1.4531526352586895E-002
  0.14369999999999999          4.7420582539693015E-002
  0.14400000000000002          7.5045748033133380E-002
  0.14429999999999998          9.4855008646396649E-002
  0.14460000000000001         0.10585615570130819     
  0.14490000000000003         0.10805596960333803     
  0.14520000000000000         0.10074513965766899     
  0.14550000000000002          8.5456101515883606E-002
  0.14579999999999999          6.3520996819864020E-002
  0.14610000000000001          3.6261021502184215E-002
  0.14640000000000003          6.3253530035198534E-003
  0.14670000000000000         -2.4422989475334802E-002
  0.14699999999999996         -5.4384562060763787E-002
  0.14729999999999999         -8.1253117157721613E-002
  0.14760000000000001        -0.10395230151564466     
  0.14789999999999998        -0.12154426209084972     
  0.14820000000000000        -0.13313995052497549     