  -1.4999999999999999E-002     0.0000000000000000     
  -1.4700000000000000E-002     0.0000000000000000     
  -1.4400000000000000E-002     0.0000000000000000     
  -1.4100000000000000E-002     0.0000000000000000     
  -1.3800000000000000E-002     0.0000000000000000     
  -1.3500000000000000E-002     0.0000000000000000     
  -1.3200000000000000E-002     0.0000000000000000     
  -1.2899999999999998E-002     0.0000000000000000     
  -1.2600000000000000E-002     0.0000000000000000     
  -1.2299999999999998E-002     0.0000000000000000     
  -1.2000000000000000E-002     0.0000000000000000     
  -1.1699999999999999E-002     0.0000000000000000     
  -1.1399999999999999E-002     0.0000000000000000     
  -1.1099999999999999E-002     0.0000000000000000     
  -1.0799999999999999E-002     0.0000000000000000     
  -1.0499999999999999E-002     0.0000000000000000     
  -1.0199999999999999E-002     0.0000000000000000     
  -9.8999999999999991E-003     0.0000000000000000     
  -9.5999999999999992E-003     0.0000000000000000     
  -9.2999999999999992E-003     0.0000000000000000     
  -8.9999999999999993E-003     0.0000000000000000     
  -8.6999999999999994E-003     0.0000000000000000     
  -8.3999999999999995E-003     0.0000000000000000     
  -8.0999999999999996E-003     0.0000000000000000     
  -7.7999999999999988E-003     0.0000000000000000     
  -7.4999999999999997E-003     0.0000000000000000     
  -7.1999999999999998E-003     0.0000000000000000     
  -6.8999999999999981E-003     0.0000000000000000     
  -6.5999999999999982E-003     0.0000000000000000     
  -6.3000000000000000E-003     0.0000000000000000     
  -6.0000000000000001E-003     0.0000000000000000     
  -5.6999999999999985E-003     0.0000000000000000     
  -5.3999999999999986E-003     0.0000000000000000     
  -5.1000000000000004E-003     0.0000000000000000     
  -4.7999999999999987E-003     0.0000000000000000     
  -4.5000000000000005E-003     0.0000000000000000     
  -4.1999999999999989E-003     0.0000000000000000     
  -3.8999999999999990E-003     0.0000000000000000     
  -3.5999999999999990E-003     0.0000000000000000     
  -3.2999999999999991E-003     0.0000000000000000     
  -2.9999999999999992E-003     7.2936504178384188E-037
  -2.6999999999999993E-003     9.1089101579192766E-037
  -2.3999999999999994E-003    -7.2065209671373057E-036
  -2.0999999999999977E-003    -1.7154654790741119E-035
  -1.7999999999999995E-003     2.3030160389475386E-034
  -1.4999999999999979E-003    -1.1625068013950309E-033
  -1.1999999999999997E-003     3.1721779950452235E-033
  -8.9999999999999976E-004    -4.1905808257782845E-033
  -5.9999999999999810E-004     3.8394717470180210E-034
  -2.9999999999999992E-004     1.3528913891742192E-032
   0.0000000000000000         -3.1541018925569420E-032
   3.0000000000000165E-004     1.9873600591887058E-032
   5.9999999999999984E-004    -2.3122018570313903E-032
   9.0000000000000149E-004     2.9968138266791551E-031
   1.2000000000000031E-003    -7.5998180438050961E-031
   1.5000000000000013E-003    -1.1647269122707623E-031
   1.8000000000000030E-003     4.4149560861427339E-030
   2.1000000000000012E-003    -1.0296076579625005E-029
   2.3999999999999994E-003     4.6018794172591997E-030
   2.7000000000000010E-003     3.6713100234537684E-029
   2.9999999999999992E-003    -1.0029359891584205E-028
   3.3000000000000008E-003     4.4292067343417553E-029
   3.6000000000000025E-003     3.3021104682397450E-028
   3.9000000000000007E-003    -8.3694276964046028E-028
   4.2000000000000023E-003     3.9906547900111426E-028
   4.5000000000000005E-003     2.5314693605648792E-027
   4.7999999999999987E-003    -7.0365327254106571E-027
   5.1000000000000004E-003     4.6195992062263267E-027
   5.4000000000000020E-003     1.8399125853775297E-026
   5.7000000000000037E-003    -5.5663627804377447E-026
   5.9999999999999984E-003     4.3855658059786289E-026
   6.3000000000000000E-003     1.1933784950768184E-025
   6.6000000000000017E-003    -4.0752893643258341E-025
   6.9000000000000034E-003     3.8165362284148324E-025
   7.2000000000000015E-003     7.3388201529606724E-025
   7.5000000000000032E-003    -2.8150476648072423E-024
   7.8000000000000014E-003     2.8367579057481046E-024
   8.0999999999999996E-003     4.4424077968661100E-024
   8.4000000000000012E-003    -1.8221222145802618E-023
   8.7000000000000029E-003     1.8381556473082157E-023
   9.0000000000000011E-003     2.9448037061559523E-023
   9.2999999999999992E-003    -1.1536122013845080E-022
   9.6000000000000009E-003     9.9763650167849748E-023
   9.8999999999999991E-003     2.2244270398641111E-022
   1.0200000000000001E-002    -7.1163908352489489E-022
   1.0500000000000002E-002     4.3027878297078813E-022
   1.0800000000000004E-002     1.6751016238908872E-021
   1.1099999999999999E-002    -4.1453715553853446E-021
   1.1400000000000000E-002     1.2132663315661441E-021
   1.1700000000000002E-002     1.1338225165160173E-020
   1.2000000000000004E-002    -2.1765576926005174E-020
   1.2300000000000002E-002    -6.0587738060486849E-022
   1.2600000000000000E-002     6.6173221601229128E-020
   1.2900000000000002E-002    -1.0017722099953853E-019
   1.3200000000000000E-002    -3.5930571309500231E-020
   1.3500000000000002E-002     3.3204481825792673E-019
   1.3800000000000003E-002    -3.9655683610568948E-019
   1.4100000000000001E-002    -2.9052990111691479E-019
   1.4400000000000000E-002     1.4345692516782022E-018
   1.4700000000000001E-002    -1.3281383406453362E-018
   1.4999999999999999E-002    -1.5970268058209818E-018
   1.5300000000000001E-002     5.3485762921677098E-018
   1.5600000000000003E-002    -3.6976613139097011E-018
   1.5899999999999997E-002    -6.8785197248803238E-018
   1.6199999999999999E-002     1.7237097478658468E-017
   1.6500000000000001E-002    -8.4548259255950819E-018
   1.6800000000000002E-002    -2.4112549112861320E-017
   1.7100000000000004E-002     4.8457268416801505E-017
   1.7400000000000006E-002    -1.6621112612081480E-017
   1.7700000000000000E-002    -6.9894073170470282E-017
   1.8000000000000002E-002     1.2278589039888857E-016
   1.8300000000000004E-002    -3.6321474159883132E-017
   1.8600000000000005E-002    -1.7214277109803405E-016
   1.8900000000000000E-002     3.0379730110160764E-016
   1.9200000000000002E-002    -1.1673759241285529E-016
   1.9500000000000003E-002    -3.9567269488286440E-016
   1.9799999999999998E-002     8.0058762727538644E-016
   2.0100000000000000E-002    -4.0706694371447058E-016
   2.0400000000000001E-002    -9.6699540231333695E-016
   2.0700000000000003E-002     2.1807827703977036E-015
   2.0999999999999998E-002    -1.3032826458189404E-015
   2.1299999999999999E-002    -2.2488182863713282E-015
   2.1600000000000001E-002     6.2529758500905100E-015
   2.1900000000000003E-002    -5.5922295184866451E-015
   2.2200000000000004E-002    -7.0648796501563355E-015
   2.2500000000000006E-002     2.6236884577713300E-014
   2.2800000000000001E-002    -4.5384013652491936E-015
   2.3100000000000002E-002    -7.7437424781562117E-014
   2.3400000000000004E-002     2.0321432028584384E-015
   2.3699999999999999E-002     3.9591171618728259E-013
   2.4000000000000000E-002    -6.0376889077894513E-014
   2.4300000000000002E-002    -2.1626029954427411E-012
   2.4599999999999997E-002     1.6604147368690851E-012
   2.4900000000000005E-002     8.2823732403363650E-012
   2.5200000000000000E-002    -1.1122874228200239E-011
   2.5499999999999995E-002    -2.1612652855447542E-011
   2.5800000000000003E-002     3.8611075914780774E-011
   2.6099999999999998E-002     3.9736854410188270E-011
   2.6400000000000007E-002    -4.9436067208505359E-011
   2.6700000000000002E-002    -6.8834656350779131E-011
   2.6999999999999996E-002    -3.5071144858445902E-010
   2.7300000000000005E-002     3.4368817597870993E-010
   2.7600000000000000E-002     3.4807509259850281E-009
   2.7900000000000008E-002    -2.8966700137885285E-009
   2.8200000000000003E-002    -2.0273343185551490E-008
   2.8499999999999998E-002     1.8325202717523038E-008
   2.8800000000000006E-002     9.3642891034605784E-008
   2.9100000000000001E-002    -9.6875245940898294E-008
   2.9400000000000003E-002    -4.1705763590905815E-007
   2.9700000000000004E-002     5.3918282656472409E-007
   3.0000000000000006E-002     3.7490887635603299E-006
   3.0300000000000001E-002     8.2950578412571502E-006
   3.0600000000000002E-002     1.5281378899216457E-005
   3.0900000000000004E-002     2.8895969303580306E-005
   3.1199999999999999E-002     4.7076698910174182E-005
   3.1500000000000007E-002     6.2855890563283634E-005
   3.1800000000000002E-002     8.5755460122185017E-005
   3.2099999999999997E-002     1.4013968199392185E-004
   3.2400000000000005E-002     2.3025764031447285E-004
   3.2700000000000000E-002     3.4173880970396237E-004
   3.3000000000000002E-002     4.8739433496455234E-004
   3.3300000000000003E-002     7.0668100293951204E-004
   3.3599999999999998E-002     1.0204108687258814E-003
   3.3900000000000000E-002     1.4379324718167784E-003
   3.4200000000000001E-002     1.9988358089294230E-003
   3.4500000000000003E-002     2.7571525292165756E-003
   3.4799999999999998E-002     3.7412915182325332E-003
   3.5099999999999999E-002     4.9717263348494712E-003
   3.5400000000000001E-002     6.4905039171155830E-003
   3.5699999999999996E-002     8.3277558469566360E-003
   3.6000000000000004E-002     1.0463652293224745E-002
   3.6299999999999999E-002     1.2851292124531665E-002
   3.6600000000000008E-002     1.5424918143227911E-002
   3.6900000000000002E-002     1.8048186880981254E-002
   3.7199999999999997E-002     2.0493792731849304E-002
   3.7500000000000006E-002     2.2466170850564182E-002
   3.7800000000000000E-002     2.3587443215554938E-002
   3.8100000000000009E-002     2.3387403412225002E-002
   3.8400000000000004E-002     2.1331484749645954E-002
   3.8699999999999998E-002     1.6848098396493025E-002
   3.9000000000000007E-002     9.3734596652302934E-003
   3.9300000000000002E-002    -1.5753899382205646E-003
   3.9600000000000003E-002    -1.6318351432719449E-002
   3.9900000000000005E-002    -3.4921276707956632E-002
   4.0200000000000000E-002    -5.7088265767688981E-002
   4.0500000000000001E-002    -8.2071815632206530E-002
   4.0800000000000003E-002   -0.10859180363284351     
   4.1100000000000005E-002   -0.13477097662069318     
   4.1399999999999999E-002   -0.15816020078128962     
   4.1700000000000008E-002   -0.17582741733026791     
   4.2000000000000003E-002   -0.18445232716258464     
   4.2299999999999997E-002   -0.18053731528888053     
   4.2600000000000006E-002   -0.16073713909024392     
   4.2900000000000001E-002   -0.12221857572735231     
   4.3200000000000002E-002    -6.3011891224027811E-002
   4.3500000000000004E-002     1.7650659006272405E-002
   4.3799999999999999E-002    0.11890906765278723     
   4.4100000000000000E-002    0.23807975152081373     
   4.4400000000000002E-002    0.37060178074778449     
   4.4700000000000004E-002    0.51005772769568114     
   4.4999999999999998E-002    0.64840477946281561     
   4.5300000000000000E-002    0.77644725526140157     
   4.5600000000000002E-002    0.88451714074508914     
   4.5899999999999996E-002    0.96314579316589288     
   4.6200000000000005E-002     1.0038831038719747     
   4.6500000000000000E-002     1.0001600179855714     
   4.6799999999999994E-002    0.94790270023157142     
   4.7100000000000003E-002    0.84603618522140689     
   4.7399999999999998E-002    0.69678577528614538     
   4.7700000000000006E-002    0.50552547030596751     
   4.8000000000000001E-002    0.28054718588301075     
   4.8300000000000010E-002     3.2273426210114475E-002
   4.8600000000000004E-002   -0.22749841504966109     
   4.8899999999999999E-002   -0.48653748319580509     
   4.9200000000000008E-002   -0.73335704038133764     
   4.9500000000000002E-002   -0.95781732140666631     
   4.9800000000000011E-002    -1.1519923171836142     
   5.0100000000000006E-002    -1.3106854025382102     
   5.0400000000000000E-002    -1.4311900816806682     
   5.0700000000000009E-002    -1.5134106330914174     
   5.1000000000000004E-002    -1.5592052107029792     
   5.1299999999999998E-002    -1.5716610149305750     
   5.1600000000000007E-002    -1.5546968497383267     
   5.1900000000000002E-002    -1.5118129028720841     
   5.2200000000000010E-002    -1.4458863216300319     
   5.2500000000000005E-002    -1.3588250411993239     
   5.2800000000000000E-002    -1.2510788207949255     
   5.3099999999999994E-002    -1.1222500998822769     
   5.3400000000000003E-002   -0.97133041334994941     
   5.3699999999999998E-002   -0.79701890544442855     
   5.4000000000000006E-002   -0.59874256089762024     
   5.4300000000000001E-002   -0.37709409468968991     
   5.4599999999999996E-002   -0.13423186593607300     
   5.4900000000000004E-002    0.12554039923072702     
   5.5199999999999999E-002    0.39598944085355381     
   5.5499999999999994E-002    0.66906453997591153     
   5.5800000000000002E-002    0.93534402062361788     
   5.6099999999999997E-002     1.1845066787048064     
   5.6400000000000006E-002     1.4064037860451166     
   5.6700000000000000E-002     1.5917338406982935     
   5.6999999999999995E-002     1.7324777761669821     
   5.7300000000000004E-002     1.8231168027399050     
   5.7599999999999998E-002     1.8606267678142911     
   5.7900000000000007E-002     1.8447057939815328     
   5.8200000000000002E-002     1.7780242492041824     
   5.8499999999999996E-002     1.6655862241595027     
   5.8800000000000005E-002     1.5145287559303413     
   5.9100000000000000E-002     1.3335864149399745     
   5.9400000000000008E-002     1.1318595295511218     
   5.9700000000000003E-002    0.91869457375398778     
   6.0000000000000012E-002    0.70270771592297621     
   6.0300000000000006E-002    0.49101047020791655     
   6.0600000000000001E-002    0.28901955556618525     
   6.0900000000000010E-002    0.10018947433741235     
   6.1200000000000004E-002    -7.4231879969342357E-002
   6.1500000000000013E-002   -0.23475857353325913     
   6.1800000000000008E-002   -0.38356566464060637     
   6.2100000000000002E-002   -0.52362311881069012     
   6.2399999999999997E-002   -0.65804845857109195     
   6.2700000000000006E-002   -0.78986112031494327     
   6.3000000000000000E-002   -0.92064558404986740     
   6.3300000000000009E-002    -1.0503653384066700     
   6.3600000000000004E-002    -1.1770708015617899     
   6.3899999999999998E-002    -1.2966051152849671     
   6.4199999999999993E-002    -1.4029230845951277     
   6.4500000000000002E-002    -1.4882497835119282     
   6.4800000000000010E-002    -1.5441659196371058     
   6.5100000000000005E-002    -1.5623521579811950     
   6.5400000000000000E-002    -1.5352230369497972     
   6.5700000000000008E-002    -1.4572940015196638     
   6.5999999999999989E-002    -1.3257495137732955     
   6.6299999999999998E-002    -1.1409276691485992     
   6.6600000000000006E-002   -0.90699670528969145     
   6.6900000000000001E-002   -0.63141797723491644     
   6.7199999999999996E-002   -0.32466781989965537     
   6.7500000000000004E-002    -1.8706530888437656E-005
   6.7800000000000013E-002    0.32829450951648537     
   6.8099999999999994E-002    0.64530519561298461     
   6.8400000000000002E-002    0.93657071219318555     
   6.8700000000000011E-002     1.1896702598223068     
   6.8999999999999992E-002     1.3940733406675607     
   6.9300000000000000E-002     1.5426054059265029     
   6.9600000000000009E-002     1.6310385311176401     
   6.9900000000000004E-002     1.6580989648640532     
   7.0199999999999999E-002     1.6260556280078682     
   7.0500000000000007E-002     1.5391895619262961     
   7.0800000000000016E-002     1.4038767970115253     
   7.1099999999999997E-002     1.2282320936899165     
   7.1400000000000005E-002     1.0208865468862507     
   7.1700000000000000E-002    0.79134802169760499     
   7.1999999999999995E-002    0.54902289642098168     
   7.2300000000000003E-002    0.30285778270258007     
   7.2600000000000012E-002     6.2008591320021816E-002
   7.2900000000000006E-002   -0.16556998531209427     
   7.3200000000000001E-002   -0.37260733026554405     
   7.3499999999999996E-002   -0.55242615604727918     
   7.3800000000000004E-002   -0.70016199994799733     
   7.4099999999999999E-002   -0.81176933490039693     
   7.4400000000000008E-002   -0.88513306192488217     
   7.4700000000000003E-002   -0.91998318194325357     
   7.5000000000000011E-002   -0.91745880255554657     
   7.5299999999999992E-002   -0.88113415391301453     
   7.5600000000000001E-002   -0.81595093828636256     
   7.5900000000000009E-002   -0.72804445753599056     
   7.6200000000000004E-002   -0.62505391989199743     
   7.6499999999999999E-002   -0.51462169848901895     
   7.6800000000000007E-002   -0.40412882542939954     
   7.7099999999999988E-002   -0.30053782109275778     
   7.7399999999999997E-002   -0.20910297641589132     
   7.7700000000000005E-002   -0.13371689788256377     
   7.8000000000000014E-002    -7.6097676479391058E-002
   7.8299999999999995E-002    -3.5966794089059118E-002
   7.8600000000000003E-002    -1.1601047560894275E-002
   7.8900000000000012E-002     2.7125486405008004E-004
   7.9199999999999993E-002     4.0727423840657556E-003
   7.9500000000000001E-002     4.2472407696736089E-003
   7.9800000000000010E-002     5.2558050014711588E-003
   8.0100000000000018E-002     1.1234324861052788E-002
   8.0399999999999999E-002     2.5459263475156493E-002
   8.0700000000000008E-002     5.0421628438149374E-002
   8.1000000000000003E-002     8.7862042927872711E-002
   8.1299999999999997E-002    0.13868795664883002     
   8.1600000000000006E-002    0.20343625211570099     
   8.1900000000000014E-002    0.28228571823661786     
   8.2199999999999995E-002    0.37449770374077057     
   8.2500000000000004E-002    0.47891040260965412     
   8.2799999999999999E-002    0.59320572028065888     
   8.3100000000000007E-002    0.71306870989538862     
   8.3400000000000002E-002    0.83233121149624012     
   8.3700000000000011E-002    0.94200705189744527     
   8.4000000000000005E-002     1.0303365484499585     
   8.4300000000000000E-002     1.0830209414619576     
   8.4599999999999995E-002     1.0839277764738917     
   8.4900000000000003E-002     1.0162153964073612     
   8.5199999999999998E-002    0.86420514106740587     
   8.5500000000000007E-002    0.61553278331336614     
   8.5800000000000001E-002    0.26313157907973167     
   8.6100000000000010E-002   -0.19304307201905690     
   8.6399999999999991E-002   -0.74367574337596698     
   8.6699999999999999E-002    -1.3696337173521458     
   8.7000000000000008E-002    -2.0420787559553890     
   8.7300000000000003E-002    -2.7231602629595471     
   8.7599999999999997E-002    -3.3685709356208950     
   8.7900000000000006E-002    -3.9303827896985055     
   8.8200000000000014E-002    -4.3606160357226944     
   8.8499999999999995E-002    -4.6159583325834275     
   8.8800000000000004E-002    -4.6612419227790047     
   8.9100000000000013E-002    -4.4733219552040966     
   8.9399999999999993E-002    -4.0441306858175432     
   8.9700000000000002E-002    -3.3815912607724918     
   9.0000000000000011E-002    -2.5101588374188752     
   9.0299999999999991E-002    -1.4699753072112285     
   9.0600000000000000E-002   -0.31305879296310934     
   9.0900000000000009E-002    0.89933864094296712     
   9.1200000000000017E-002     2.1018078902662722     
   9.1499999999999998E-002     3.2301265806955737     
   9.1800000000000007E-002     4.2250162912891502     
   9.2100000000000001E-002     5.0373672017326347     
   9.2399999999999996E-002     5.6322880951803622     
   9.2700000000000005E-002     5.9890221694408012     
   9.3000000000000013E-002     6.1042748302938499     
   9.3300000000000008E-002     5.9907282136877580     
   9.3600000000000003E-002     5.6743019201348073     
   9.3899999999999997E-002     5.1932581873713239     
   9.4200000000000006E-002     4.5934101651429220     
   9.4500000000000001E-002     3.9244756085251842     
   9.4800000000000009E-002     3.2366335849683949     
   9.5100000000000004E-002     2.5762934361755327     
   9.5399999999999999E-002     1.9834507884985202     
   9.5699999999999993E-002     1.4894122031551940     
   9.6000000000000002E-002     1.1149412290907530     
   9.6300000000000011E-002    0.86972288405749465     
   9.6600000000000005E-002    0.75283729046460790     
   9.6900000000000000E-002    0.75284858412491218     
   9.7200000000000009E-002    0.84970247131370558     
   9.7499999999999989E-002     1.0164557271304107     
   9.7799999999999998E-002     1.2208589944382326     
   9.8100000000000007E-002     1.4280800539945226     
   9.8400000000000015E-002     1.6032899325242322     
   9.8699999999999996E-002     1.7119191449558244     
   9.9000000000000005E-002     1.7245418733090379     
   9.9300000000000013E-002     1.6174165670316845     
   9.9599999999999994E-002     1.3726431252219196     
   9.9900000000000003E-002    0.98270892907707363     
  0.10020000000000001         0.44850689500470042     
  0.10049999999999999        -0.21952716349305401     
  0.10080000000000000         -1.0007159924455760     
  0.10110000000000001         -1.8675120058978154     
  0.10140000000000000         -2.7843879487018279     
  0.10170000000000000         -3.7111171231809652     
  0.10200000000000001         -4.6061955893707056     
  0.10230000000000002         -5.4272249044049783     
  0.10260000000000000         -6.1356315381699371     
  0.10290000000000001         -6.6979367167771535     
  0.10320000000000000         -7.0883753340821700     
  0.10350000000000001         -7.2903227972300213     
  0.10380000000000000         -7.2966253527264593     
  0.10410000000000001         -7.1106241731644459     
  0.10440000000000001         -6.7448796291304669     
  0.10470000000000000         -6.2203381659806132     
  0.10500000000000000         -5.5650150535159115     
  0.10530000000000000         -4.8108560938018243     
  0.10560000000000000         -3.9932063792648016     
  0.10590000000000001         -3.1482960404002776     
  0.10620000000000000         -2.3099425067394348     
  0.10650000000000001         -1.5096558018792676     
  0.10679999999999999        -0.77409019206824858     
  0.10710000000000000        -0.12346964009563055     
  0.10740000000000001         0.42672337040901764     
  0.10770000000000000         0.86964425501883758     
  0.10800000000000000          1.2031331769968414     
  0.10830000000000001          1.4304523955754176     
  0.10859999999999999          1.5591839680463266     
  0.10890000000000000          1.5987067181171530     
  0.10920000000000001          1.5585585403458988     
  0.10950000000000001          1.4462147720002558     
  0.10979999999999999          1.2662201244331091     
  0.11009999999999999          1.0190528323521506     
  0.11040000000000001         0.70082599892378594     
  0.11070000000000001         0.30621905488934165     
  0.11100000000000000        -0.16988765517127724     
  0.11130000000000000        -0.72812417016009490     
  0.11160000000000002         -1.3590806172293730     
  0.11190000000000001         -2.0409515452689337     
  0.11220000000000001         -2.7329937071496935     
  0.11250000000000000         -3.3751559347830575     
  0.11280000000000000         -3.8895343893795604     
  0.11309999999999999         -4.1818697346206708     
  0.11340000000000001         -4.1518366967106601     
  0.11369999999999998         -3.7008130002059905     
  0.11400000000000000         -2.7455688224942136     
  0.11430000000000000         -1.2340303342470464     
  0.11460000000000002         0.84550525060804949     
  0.11489999999999999          3.4518976783399111     
  0.11520000000000001          6.4832569376570905     
  0.11550000000000001          9.7817420693041832     
  0.11580000000000000          13.134976672273950     
  0.11609999999999999          16.291292433734277     
  0.11640000000000002          18.981254461597175     
  0.11670000000000001          20.935713221652588     
  0.11700000000000001          21.916932207356396     
  0.11730000000000000          21.742388041770472     
  0.11760000000000000          20.302816088138709     
  0.11789999999999999          17.584868184502657     
  0.11820000000000001          13.673173176131737     
  0.11850000000000001          8.7505008784887366     
  0.11880000000000000          3.0901192555814871     
  0.11910000000000000         -2.9696951064860553     
  0.11940000000000002         -9.0460677423736939     
  0.11970000000000001         -14.745078278180189     
  0.12000000000000001         -19.695024451444386     
  0.12030000000000000         -23.570508885863667     
  0.12060000000000000         -26.123308702027458     
  0.12089999999999999         -27.198151024225464     
  0.12119999999999999         -26.737864890287497     
  0.12150000000000001         -24.791931757384546     
  0.12180000000000001         -21.500338752031372     
  0.12210000000000000         -17.080700821913410     
  0.12239999999999999         -11.812423102373590     
  0.12270000000000002         -6.0058166519098872     
  0.12300000000000001          1.5735170385966946E-002
  0.12330000000000001          5.9373472558902973     
  0.12360000000000000          11.474799874801644     
  0.12390000000000000          16.383071760635104     
  0.12419999999999999          20.467762377377497     
  0.12450000000000001          23.588795839721925     
  0.12480000000000001          25.658792260630857     
  0.12509999999999999          26.641435425825954     
  0.12540000000000001          26.545865893511337     
  0.12570000000000003          25.419876382854063     
  0.12600000000000000          23.344340228363340     
  0.12630000000000002          20.427189102506045     
  0.12659999999999999          16.796747408319380     
  0.12690000000000001          12.597482172553809     
  0.12719999999999998          7.9863936910759605     
  0.12750000000000000          3.1260708411775759     
  0.12780000000000002         -1.8194078959247082     
  0.12809999999999999         -6.6856614119843805     
  0.12840000000000001         -11.320073205663356     
  0.12869999999999998         -15.580169370872767     
  0.12900000000000000         -19.341021180608390     
  0.12930000000000003         -22.503202335981808     
  0.12959999999999999         -24.988206966756529     
  0.12990000000000002         -26.747891664777789     
  0.13019999999999998         -27.763357745246221     
  0.13050000000000000         -28.040541290920942     
  0.13080000000000003         -27.613237161333018     
  0.13109999999999999         -26.536024831309607     
  0.13140000000000002         -24.880267079170917     
  0.13169999999999998         -22.729605019081713     
  0.13200000000000001         -20.173374790338606     
  0.13229999999999997         -17.302098069760092     
  0.13260000000000000         -14.202199912658120     
  0.13290000000000002         -10.953006608337052     
  0.13319999999999999         -7.6232853251887462     
  0.13350000000000001         -4.2731276849464006     
  0.13380000000000003        -0.95059910820390936     
  0.13410000000000000          2.3042460778693110     
  0.13440000000000002          5.4553553445409113     
  0.13469999999999999          8.4747675600740209     
  0.13500000000000001          11.329419523772739     
  0.13529999999999998          13.986829055967133     
  0.13560000000000000          16.412760377901925     
  0.13590000000000002          18.563392348601731     
  0.13619999999999999          20.396775948789898     
  0.13650000000000001          21.868367359501018     
  0.13680000000000003          22.930751418012150     
  0.13710000000000000          23.548689910653188     
  0.13740000000000002          23.689916049277794     
  0.13769999999999999          23.336308075757611     
  0.13800000000000001          22.490398491484981     
  0.13829999999999998          21.164440555391320     
  0.13860000000000000          19.397166786886061     
  0.13890000000000002          17.244405807265487     
  0.13919999999999999          14.773089842925600     
  0.13950000000000001          12.072427299812285     
  0.13979999999999998          9.2330836075461349     
  0.14010000000000000          6.3508781050862630     
  0.14040000000000002          3.5248989513597975     
  0.14069999999999999         0.83729976708381715     
  0.14100000000000001         -1.6341171546998381     
  0.14130000000000004         -3.8296300391207803     
  0.14160000000000000         -5.7138688831925117     
  0.14189999999999997         -7.2636644770020720     
  0.14219999999999999         -8.4806554245927614     
  0.14250000000000002         -9.3861466987054953     
  0.14279999999999998         -10.011846598739297     
  0.14310000000000000         -10.405169217212954     
  0.14339999999999997         -10.618903900971336     
  0.14369999999999999         -10.705358337851582     
  0.14400000000000002         -10.717903694349230     
  0.14429999999999998         -10.699179116964530     
  0.14460000000000001         -10.682017105024272     
  0.14490000000000003         -10.687567969492138     
  0.14520000000000000         -10.720649978788314     
  0.14550000000000002         -10.772880198536020     
  0.14579999999999999         -10.823548135180346     
  0.14610000000000001         -10.841315999502983     
  0.14640000000000003         -10.786865589506847     
  0.14670000000000000         -10.619341776018343     
  0.14699999999999996         -10.297852649876429     
  0.14729999999999999         -9.7868483367850825     
  0.14760000000000001         -9.0610020304215642     
  0.14789999999999998         -8.1044682916166852     
  0.14820000000000000         -6.9187775454917517     