  -1.4999999999999999E-002     0.0000000000000000     
  -1.4700000000000000E-002     0.0000000000000000     
  -1.4400000000000000E-002     0.0000000000000000     
  -1.4100000000000000E-002     0.0000000000000000     
  -1.3800000000000000E-002     0.0000000000000000     
  -1.3500000000000000E-002     0.0000000000000000     
  -1.3200000000000000E-002     0.0000000000000000     
  -1.2899999999999998E-002     0.0000000000000000     
  -1.2600000000000000E-002     0.0000000000000000     
  -1.2299999999999998E-002     0.0000000000000000     
  -1.2000000000000000E-002     0.0000000000000000     
  -1.1699999999999999E-002     0.0000000000000000     
  -1.1399999999999999E-002     0.0000000000000000     
  -1.1099999999999999E-002     0.0000000000000000     
  -1.0799999999999999E-002     0.0000000000000000     
  -1.0499999999999999E-002     0.0000000000000000     
  -1.0199999999999999E-002     0.0000000000000000     
  -9.8999999999999991E-003     0.0000000000000000     
  -9.5999999999999992E-003     0.0000000000000000     
  -9.2999999999999992E-003     0.0000000000000000     
  -8.9999999999999993E-003     0.0000000000000000     
  -8.6999999999999994E-003     0.0000000000000000     
  -8.3999999999999995E-003     0.0000000000000000     
  -8.0999999999999996E-003     0.0000000000000000     
  -7.7999999999999988E-003     0.0000000000000000     
  -7.4999999999999997E-003     0.0000000000000000     
  -7.1999999999999998E-003     0.0000000000000000     
  -6.8999999999999981E-003     0.0000000000000000     
  -6.5999999999999982E-003     0.0000000000000000     
  -6.3000000000000000E-003     0.0000000000000000     
  -6.0000000000000001E-003     0.0000000000000000     
  -5.6999999999999985E-003     0.0000000000000000     
  -5.3999999999999986E-003     0.0000000000000000     
  -5.1000000000000004E-003     0.0000000000000000     
  -4.7999999999999987E-003     0.0000000000000000     
  -4.5000000000000005E-003     0.0000000000000000     
  -4.1999999999999989E-003     0.0000000000000000     
  -3.8999999999999990E-003     0.0000000000000000     
  -3.5999999999999990E-003     0.0000000000000000     
  -3.2999999999999991E-003     0.0000000000000000     
  -2.9999999999999992E-003     0.0000000000000000     
  -2.6999999999999993E-003     0.0000000000000000     
  -2.3999999999999994E-003     0.0000000000000000     
  -2.0999999999999977E-003     0.0000000000000000     
  -1.7999999999999995E-003     0.0000000000000000     
  -1.4999999999999979E-003     0.0000000000000000     
  -1.1999999999999997E-003     0.0000000000000000     
  -8.9999999999999976E-004     0.0000000000000000     
  -5.9999999999999810E-004     0.0000000000000000     
  -2.9999999999999992E-004     0.0000000000000000     
   0.0000000000000000          0.0000000000000000     
   3.0000000000000165E-004     0.0000000000000000     
   5.9999999999999984E-004     0.0000000000000000     
   9.0000000000000149E-004     0.0000000000000000     
   1.2000000000000031E-003     0.0000000000000000     
   1.5000000000000013E-003     0.0000000000000000     
   1.8000000000000030E-003     0.0000000000000000     
   2.1000000000000012E-003     0.0000000000000000     
   2.3999999999999994E-003     0.0000000000000000     
   2.7000000000000010E-003     0.0000000000000000     
   2.9999999999999992E-003     0.0000000000000000     
   3.3000000000000008E-003     0.0000000000000000     
   3.6000000000000025E-003     0.0000000000000000     
   3.9000000000000007E-003     0.0000000000000000     
   4.2000000000000023E-003     0.0000000000000000     
   4.5000000000000005E-003     0.0000000000000000     
   4.7999999999999987E-003     0.0000000000000000     
   5.1000000000000004E-003     0.0000000000000000     
   5.4000000000000020E-003     0.0000000000000000     
   5.7000000000000037E-003     0.0000000000000000     
   5.9999999999999984E-003     0.0000000000000000     
   6.3000000000000000E-003     0.0000000000000000     
   6.6000000000000017E-003     0.0000000000000000     
   6.9000000000000034E-003     0.0000000000000000     
   7.2000000000000015E-003     0.0000000000000000     
   7.5000000000000032E-003     0.0000000000000000     
   7.8000000000000014E-003     0.0000000000000000     
   8.0999999999999996E-003     0.0000000000000000     
   8.4000000000000012E-003     0.0000000000000000     
   8.7000000000000029E-003     0.0000000000000000     
   9.0000000000000011E-003     0.0000000000000000     
   9.2999999999999992E-003     0.0000000000000000     
   9.6000000000000009E-003     0.0000000000000000     
   9.8999999999999991E-003     0.0000000000000000     
   1.0200000000000001E-002     0.0000000000000000     
   1.0500000000000002E-002     0.0000000000000000     
   1.0800000000000004E-002     0.0000000000000000     
   1.1099999999999999E-002     0.0000000000000000     
   1.1400000000000000E-002     0.0000000000000000     
   1.1700000000000002E-002     0.0000000000000000     
   1.2000000000000004E-002     0.0000000000000000     
   1.2300000000000002E-002     0.0000000000000000     
   1.2600000000000000E-002     0.0000000000000000     
   1.2900000000000002E-002     0.0000000000000000     
   1.3200000000000000E-002     0.0000000000000000     
   1.3500000000000002E-002     0.0000000000000000     
   1.3800000000000003E-002     0.0000000000000000     
   1.4100000000000001E-002     0.0000000000000000     
   1.4400000000000000E-002     0.0000000000000000     
   1.4700000000000001E-002     0.0000000000000000     
   1.4999999999999999E-002     0.0000000000000000     
   1.5300000000000001E-002     0.0000000000000000     
   1.5600000000000003E-002     0.0000000000000000     
   1.5899999999999997E-002     0.0000000000000000     
   1.6199999999999999E-002     0.0000000000000000     
   1.6500000000000001E-002     0.0000000000000000     
   1.6800000000000002E-002     0.0000000000000000     
   1.7100000000000004E-002     0.0000000000000000     
   1.7400000000000006E-002     0.0000000000000000     
   1.7700000000000000E-002     0.0000000000000000     
   1.8000000000000002E-002     0.0000000000000000     
   1.8300000000000004E-002     0.0000000000000000     
   1.8600000000000005E-002     0.0000000000000000     
   1.8900000000000000E-002     0.0000000000000000     
   1.9200000000000002E-002     0.0000000000000000     
   1.9500000000000003E-002     0.0000000000000000     
   1.9799999999999998E-002     0.0000000000000000     
   2.0100000000000000E-002     0.0000000000000000     
   2.0400000000000001E-002     0.0000000000000000     
   2.0700000000000003E-002     0.0000000000000000     
   2.0999999999999998E-002     0.0000000000000000     
   2.1299999999999999E-002     0.0000000000000000     
   2.1600000000000001E-002     0.0000000000000000     
   2.1900000000000003E-002     0.0000000000000000     
   2.2200000000000004E-002     0.0000000000000000     
   2.2500000000000006E-002     0.0000000000000000     
   2.2800000000000001E-002     0.0000000000000000     
   2.3100000000000002E-002     0.0000000000000000     
   2.3400000000000004E-002     0.0000000000000000     
   2.3699999999999999E-002     0.0000000000000000     
   2.4000000000000000E-002     0.0000000000000000     
   2.4300000000000002E-002     0.0000000000000000     
   2.4599999999999997E-002     0.0000000000000000     
   2.4900000000000005E-002     0.0000000000000000     
   2.5200000000000000E-002     2.7624700042922605E-044
   2.5499999999999995E-002    -5.0070206949963161E-043
   2.5800000000000003E-002     1.5060000109612384E-042
   2.6099999999999998E-002    -3.4188994741831672E-036
   2.6400000000000007E-002     2.4210983988806956E-035
   2.6700000000000002E-002     1.1548097458158064E-036
   2.6999999999999996E-002    -1.0239611589294502E-034
   2.7300000000000005E-002     4.1938289059741828E-034
   2.7600000000000000E-002    -5.0984111801653970E-034
   2.7900000000000008E-002     1.0386067378862113E-033
   2.8200000000000003E-002    -8.7985680733865317E-033
   2.8499999999999998E-002     4.7952244118766166E-032
   2.8800000000000006E-002    -1.9201782682305059E-031
   2.9100000000000001E-002     6.4018739751970790E-031
   2.9400000000000003E-002    -1.8592276419539692E-030
   2.9700000000000004E-002     4.7343088985998492E-030
   3.0000000000000006E-002    -1.0306928014997742E-029
   3.0300000000000001E-002     1.7539036821523881E-029
   3.0600000000000002E-002    -1.4784639447474687E-029
   3.0900000000000004E-002    -4.4151146715377702E-029
   3.1199999999999999E-002     2.9199203519385708E-028
   3.1500000000000007E-002    -1.0259855906912395E-027
   3.1800000000000002E-002     2.7279323096489529E-027
   3.2099999999999997E-002    -5.6956373000233702E-027
   3.2400000000000005E-002     8.4451207039495764E-027
   3.2700000000000000E-002    -3.4452150742925652E-027
   3.3000000000000002E-002    -3.0722330813988182E-026
   3.3300000000000003E-002     1.3647898088153783E-025
   3.3599999999999998E-002    -3.6316868406585865E-025
   3.3900000000000000E-002     6.8053643844029522E-025
   3.4200000000000001E-002    -7.4318015141228871E-025
   3.4500000000000003E-002    -5.0415907463257565E-025
   3.4799999999999998E-002     5.0454538103006696E-024
   3.5099999999999999E-002    -1.4693596848454100E-023
   3.5400000000000001E-002     2.6572559750082770E-023
   3.5699999999999996E-002    -2.3820293412935816E-023
   3.6000000000000004E-002    -3.3270013248772483E-023
   3.6299999999999999E-002     1.9411014526100977E-022
   3.6600000000000008E-002    -4.4217157706424182E-022
   3.6900000000000002E-002     5.3252762198411003E-022
   3.7199999999999997E-002     1.5572050584825638E-022
   3.7500000000000006E-002    -2.3701170084408672E-021
   3.7800000000000000E-002     5.7139838551419603E-021
   3.8100000000000009E-002    -6.2188194131385797E-021
   3.8400000000000004E-002    -5.0962301667037994E-021
   3.8699999999999998E-002     3.6418213230318567E-020
   3.9000000000000007E-002    -7.3715634919001070E-020
   3.9300000000000002E-002     4.5128196089492643E-020
   3.9600000000000003E-002     1.9366450157637429E-019
   3.9900000000000005E-002    -7.6062998161171924E-019
   4.0200000000000000E-002     1.3937453910691702E-018
   4.0500000000000001E-002    -7.3635180408108413E-019
   4.0800000000000003E-002    -4.5665373991841923E-018
   4.1100000000000005E-002     1.9785905599025760E-017
   4.1399999999999999E-002    -4.6698248936055384E-017
   4.1700000000000008E-002     6.0807647914490225E-017
   4.2000000000000003E-002     4.9359337331909393E-017
   4.2299999999999997E-002    -5.7116964527960636E-016
   4.2600000000000006E-002     1.8730401929165309E-015
   4.2900000000000001E-002    -3.3516544552073836E-015
   4.3200000000000002E-002     1.2344635113354244E-016
   4.3500000000000004E-002     2.1343263220587566E-014
   4.3799999999999999E-002    -7.4685711485770616E-014
   4.4100000000000000E-002     1.1388807566944552E-013
   4.4400000000000002E-002     1.0061442391287531E-013
   4.4700000000000004E-002    -1.0084145429539432E-012
   4.4999999999999998E-002     2.3665295391985368E-012
   4.5300000000000000E-002    -6.9756691400728793E-013
   4.5600000000000002E-002    -1.1861724045922604E-011
   4.5899999999999996E-002     3.4091155876173018E-011
   4.6200000000000005E-002    -1.5482290974263631E-011
   4.6500000000000000E-002    -1.5190306537186302E-010
   4.6799999999999994E-002     4.0215558603774343E-010
   4.7100000000000003E-002     1.9904232362581571E-011
   4.7399999999999998E-002    -2.1157885420402504E-009
   4.7700000000000006E-002     3.3030343116177935E-009
   4.8000000000000001E-002     5.8596976924810817E-009
   4.8300000000000010E-002    -2.3588537304527206E-008
   4.8600000000000004E-002    -5.2390228384392688E-009
   4.8899999999999999E-002     1.1211991953495948E-007
   4.9200000000000008E-002    -5.3154927801072511E-008
   4.9500000000000002E-002    -5.1144235920587497E-007
   4.9800000000000011E-002     6.8166326020842918E-007
   5.0100000000000006E-002     5.7522226889516414E-006
   5.0400000000000000E-002     1.3216583607237710E-005
   5.0700000000000009E-002     1.9619228776981296E-005
   5.1000000000000004E-002     2.6177635002219430E-005
   5.1299999999999998E-002     3.8548979075021060E-005
   5.1600000000000007E-002     5.9841293515831898E-005
   5.1900000000000002E-002     9.0049927609325958E-005
   5.2200000000000010E-002     1.3259643861673626E-004
   5.2500000000000005E-002     1.9674167207882367E-004
   5.2800000000000000E-002     2.9409088359135850E-004
   5.3099999999999994E-002     4.3536890771902814E-004
   5.3400000000000003E-002     6.3117604272103949E-004
   5.3699999999999998E-002     8.9623248244375309E-004
   5.4000000000000006E-002     1.2506161449563598E-003
   5.4300000000000001E-002     1.7154662475576791E-003
   5.4599999999999996E-002     2.3118122287367933E-003
   5.4900000000000004E-002     3.0635895464311055E-003
   5.5199999999999999E-002     3.9948737056283495E-003
   5.5499999999999994E-002     5.1194573602764814E-003
   5.5800000000000002E-002     6.4312983233337706E-003
   5.6099999999999997E-002     7.9073812895474101E-003
   5.6400000000000006E-002     9.5123108815919413E-003
   5.6700000000000000E-002     1.1182631436670691E-002
   5.6999999999999995E-002     1.2807190538844803E-002
   5.7300000000000004E-002     1.4235194027512528E-002
   5.7599999999999998E-002     1.5290954419835788E-002
   5.7900000000000007E-002     1.5770318356896382E-002
   5.8200000000000002E-002     1.5438192078754987E-002
   5.8499999999999996E-002     1.4050581172604482E-002
   5.8800000000000005E-002     1.1394683078826405E-002
   5.9100000000000000E-002     7.3225176149182385E-003
   5.9400000000000008E-002     1.7716139774904970E-003
   5.9700000000000003E-002    -5.2073829949351386E-003
   6.0000000000000012E-002    -1.3410066178744486E-002
   6.0300000000000006E-002    -2.2459185688022919E-002
   6.0600000000000001E-002    -3.1804694977264986E-002
   6.0900000000000010E-002    -4.0754142688418198E-002
   6.1200000000000004E-002    -4.8510502971803190E-002
   6.1500000000000013E-002    -5.4248504814238818E-002
   6.1800000000000008E-002    -5.7214846076765143E-002
   6.2100000000000002E-002    -5.6853162079198501E-002
   6.2399999999999997E-002    -5.2903636139956786E-002
   6.2700000000000006E-002    -4.5504133755631386E-002
   6.3000000000000000E-002    -3.5282876649013924E-002
   6.3300000000000009E-002    -2.3389357097147338E-002
   6.3600000000000004E-002    -1.1456731134679045E-002
   6.3899999999999998E-002    -1.5225599696596739E-003
   6.4199999999999993E-002     4.1788933194894925E-003
   6.4500000000000002E-002     3.4040701133736593E-003
   6.4800000000000010E-002    -5.8130317550725780E-003
   6.5100000000000005E-002    -2.4854530870208204E-002
   6.5400000000000000E-002    -5.4260050946944270E-002
   6.5700000000000008E-002    -9.3518466397880209E-002
   6.5999999999999989E-002   -0.14093838562095554     
   6.6299999999999998E-002   -0.19364082613696834     
   6.6600000000000006E-002   -0.24768858833036458     
   6.6900000000000001E-002   -0.29831990191867852     
   6.7199999999999996E-002   -0.34036188846807858     
   6.7500000000000004E-002   -0.36867922044341678     
   6.7800000000000013E-002   -0.37863841158639738     
   6.8099999999999994E-002   -0.36665236494368370     
   6.8400000000000002E-002   -0.33062740772737714     
   6.8700000000000011E-002   -0.27023580372136546     
   6.8999999999999992E-002   -0.18708668453862698     
   6.9300000000000000E-002    -8.4810293314878021E-002
   6.9600000000000009E-002     3.1256694226542293E-002
   6.9900000000000004E-002    0.15433651108507571     
   7.0199999999999999E-002    0.27670630643657290     
   7.0500000000000007E-002    0.39032330895091261     
   7.0800000000000016E-002    0.48747199538374147     
   7.1099999999999997E-002    0.56129449373991425     
   7.1400000000000005E-002    0.60648572236917397     
   7.1700000000000000E-002    0.61963885854994227     
   7.1999999999999995E-002    0.59956502799703060     
   7.2300000000000003E-002    0.54750883522893024     
   7.2600000000000012E-002    0.46692723040652817     
   7.2900000000000006E-002    0.36342787807503929     
   7.3200000000000001E-002    0.24429968120404855     
   7.3499999999999996E-002    0.11801371151503973     
   7.3800000000000004E-002    -6.3326643988902637E-003
   7.4099999999999999E-002   -0.11980287462854008     
   7.4400000000000008E-002   -0.21411348567612135     
   7.4700000000000003E-002   -0.28240453839360213     
   7.5000000000000011E-002   -0.31965770913728930     
   7.5299999999999992E-002   -0.32318356182046015     
   7.5600000000000001E-002   -0.29283314446030684     
   7.5900000000000009E-002   -0.23106613216099306     
   7.6200000000000004E-002   -0.14280919157510283     
   7.6499999999999999E-002    -3.5173663514540002E-002
   7.6800000000000007E-002     8.3049601322636987E-002
   7.7099999999999988E-002    0.20201840083720538     
   7.7399999999999997E-002    0.31161237293045319     
   7.7700000000000005E-002    0.40211362101383152     
   7.8000000000000014E-002    0.46501988523346155     
   7.8299999999999995E-002    0.49373051744492313     
   7.8600000000000003E-002    0.48408955401769138     
   7.8900000000000012E-002    0.43473708525178179     
   7.9199999999999993E-002    0.34732398105728601     
   7.9500000000000001E-002    0.22637228201426909     
   7.9800000000000010E-002     7.9099857351522612E-002
   8.0100000000000018E-002    -8.5214801704943194E-002
   8.0399999999999999E-002   -0.25588686213697037     
   8.0700000000000008E-002   -0.42143164135016287     
   8.1000000000000003E-002   -0.57060546813076274     
   8.1299999999999997E-002   -0.69306648952762295     
   8.1600000000000006E-002   -0.78003044122152798     
   8.1900000000000014E-002   -0.82507009476183524     
   8.2199999999999995E-002   -0.82425386820069091     
   8.2500000000000004E-002   -0.77648861235453026     
   8.2799999999999999E-002   -0.68349266955200405     
   8.3100000000000007E-002   -0.54956955476808467     
   8.3400000000000002E-002   -0.38128516667292223     
   8.3700000000000011E-002   -0.18689737120332764     
   8.4000000000000005E-002     2.4007212448003978E-002
   8.4300000000000000E-002    0.24127028942470247     
   8.4599999999999995E-002    0.45463607031805220     
   8.4900000000000003E-002    0.65440780511409413     
   8.5199999999999998E-002    0.83179903895817164     
   8.5500000000000007E-002    0.97943676661514267     
   8.5800000000000001E-002     1.0915755174573853     
   8.6100000000000010E-002     1.1643244193641369     
   8.6399999999999991E-002     1.1958505101675982     
   8.6699999999999999E-002     1.1862147056991783     
   8.7000000000000008E-002     1.1373608325117612     
   8.7300000000000003E-002     1.0531118131910155     
   8.7599999999999997E-002    0.93857069939225968     
   8.7900000000000006E-002    0.80016793813824028     
   8.8200000000000014E-002    0.64489777694613037     
   8.8499999999999995E-002    0.48021550523423312     
   8.8800000000000004E-002    0.31332595378152917     
   8.9100000000000013E-002    0.15090126667184306     
   8.9399999999999993E-002    -1.5807260249951635E-003
   8.9700000000000002E-002   -0.13967580968172444     
   9.0000000000000011E-002   -0.26087659822115461     
   9.0299999999999991E-002   -0.36403316802698826     
   9.0600000000000000E-002   -0.44995272970999378     
   9.0900000000000009E-002   -0.52048207360539378     
   9.1200000000000017E-002   -0.57896019218630634     
   9.1499999999999998E-002   -0.62890745511707380     
   9.1800000000000007E-002   -0.67431552584211374     
   9.2100000000000001E-002   -0.71833725185444131     
   9.2399999999999996E-002   -0.76362384776807435     
   9.2700000000000005E-002   -0.81091280207386118     
   9.3000000000000013E-002   -0.85981829393296572     
   9.3300000000000008E-002   -0.90797246936126985     
   9.3600000000000003E-002   -0.95160777832198973     
   9.3899999999999997E-002   -0.98576779662244374     
   9.4200000000000006E-002    -1.0050790462431893     
   9.4500000000000001E-002    -1.0038429654452399     
   9.4800000000000009E-002   -0.97764785663464848     
   9.5100000000000004E-002   -0.92309553984139225     
   9.5399999999999999E-002   -0.83931006490369653     
   9.5699999999999993E-002   -0.72726704073132920     
   9.6000000000000002E-002   -0.59118945620056473     
   9.6300000000000011E-002   -0.43705684938790823     
   9.6600000000000005E-002   -0.27338851213756649     
   9.6900000000000000E-002   -0.10965414000443502     
   9.7200000000000009E-002     4.4021982191469314E-002
   9.7499999999999989E-002    0.17836153812223365     
   9.7799999999999998E-002    0.28511909308356698     
   9.8100000000000007E-002    0.35880587487209392     
   9.8400000000000015E-002    0.39660881237161727     
   9.8699999999999996E-002    0.39926315845541321     
   9.9000000000000005E-002    0.37049345836474090     
   9.9300000000000013E-002    0.31746606778303060     
   9.9599999999999994E-002    0.24900155038638133     
   9.9900000000000003E-002    0.17593786334972625     
  0.10020000000000001         0.10880493480647507     
  0.10049999999999999          5.7641632310062640E-002
  0.10080000000000000          3.0229910579716711E-002
  0.10110000000000001          3.1911420586491643E-002
  0.10140000000000000          6.4132027727220250E-002
  0.10170000000000000         0.12519895080892107     
  0.10200000000000001         0.20953283016901464     
  0.10230000000000002         0.30922445714225283     
  0.10260000000000000         0.41375341839186364     
  0.10290000000000001         0.51228797030154927     
  0.10320000000000000         0.59386646114320851     
  0.10350000000000001         0.64916985370476521     
  0.10380000000000000         0.67120777487752659     
  0.10410000000000001         0.65610753209362105     
  0.10440000000000001         0.60296009509176940     
  0.10470000000000000         0.51467262079258869     
  0.10500000000000000         0.39630235488833393     
  0.10530000000000000         0.25507692690596501     
  0.10560000000000000          9.9493634658274530E-002
  0.10590000000000001         -6.2342862111769017E-002
  0.10620000000000000        -0.22281006064838241     
  0.10650000000000001        -0.37533591569527447     
  0.10679999999999999        -0.51580179838061890     
  0.10710000000000000        -0.64074260790029303     
  0.10740000000000001        -0.74860960704065127     
  0.10770000000000000        -0.83828985816606794     
  0.10800000000000000        -0.90860950755436742     
  0.10830000000000001        -0.95770889054364050     
  0.10859999999999999        -0.98309629465351100     
  0.10890000000000000        -0.98040889846627988     
  0.10920000000000001        -0.94497310169576465     
  0.10950000000000001        -0.87131475419057747     
  0.10979999999999999        -0.75445621232119220     
  0.11009999999999999        -0.59131359111720805     
  0.11040000000000001        -0.38119955948994760     
  0.11070000000000001        -0.12713021659249052     
  0.11100000000000000         0.16330913589170948     
  0.11130000000000000         0.47847411959289443     
  0.11160000000000002         0.80179352586195385     
  0.11190000000000001          1.1140810366514839     
  0.11220000000000001          1.3937096727500256     
  0.11250000000000000          1.6189166456432669     
  0.11280000000000000          1.7698916360995454     
  0.11309999999999999          1.8305005009673321     
  0.11340000000000001          1.7901487528244882     
  0.11369999999999998          1.6454563311360408     
  0.11400000000000000          1.4003250751311713     
  0.11430000000000000          1.0670575025515561     
  0.11460000000000002         0.66478682376921572     
  0.11489999999999999         0.21901509476505671     
  0.11520000000000001        -0.24120208860941089     
  0.11550000000000001        -0.68426484684191113     
  0.11580000000000000         -1.0799933806654409     
  0.11609999999999999         -1.4004806461430446     
  0.11640000000000002         -1.6239502644776169     
  0.11670000000000001         -1.7349422211561787     
  0.11700000000000001         -1.7266543145826398     
  0.11730000000000000         -1.6004771211281821     
  0.11760000000000000         -1.3667757693255722     
  0.11789999999999999         -1.0429328812848258     
  0.11820000000000001        -0.65269590144463230     
  0.11850000000000001        -0.22383402344744699     
  0.11880000000000000         0.21369752906734357     
  0.11910000000000000         0.63061548514516330     
  0.11940000000000002         0.99923648210448845     
  0.11970000000000001          1.2970894788204734     
  0.12000000000000001          1.5064919228078519     
  0.12030000000000000          1.6173700327653486     
  0.12060000000000000          1.6262016512227464     
  0.12089999999999999          1.5372280061856587     
  0.12119999999999999          1.3606778513206108     
  0.12150000000000001          1.1132259438944263     
  0.12180000000000001         0.81498903092019470     
  0.12210000000000000         0.48915743246577281     
  0.12239999999999999         0.15965707929412781     
  0.12270000000000002        -0.15079924606962963     
  0.12300000000000001        -0.42163412742700307     
  0.12330000000000001        -0.63624813296650440     
  0.12360000000000000        -0.78314920390417975     
  0.12390000000000000        -0.85597713730162628     
  0.12419999999999999        -0.85414822504103771     
  0.12450000000000001        -0.78214539244137671     
  0.12480000000000001        -0.64927805085581347     
  0.12509999999999999        -0.46823307923613433     
  0.12540000000000001        -0.25412541124134258     
  0.12570000000000003         -2.3177527971728371E-002
  0.12600000000000000         0.20837992379639556     
  0.12630000000000002         0.42568226431582445     
  0.12659999999999999         0.61568512501509143     
  0.12690000000000001         0.76808997066777240     
  0.12719999999999998         0.87547763237942922     
  0.12750000000000000         0.93317981484771506     
  0.12780000000000002         0.93934919153058427     
  0.12809999999999999         0.89442332035072170     
  0.12840000000000001         0.80068368838512505     
  0.12869999999999998         0.66178149761150673     
  0.12900000000000000         0.48284903583194283     
  0.12930000000000003         0.26924613167414768     
  0.12959999999999999          2.7544467303806098E-002
  0.12990000000000002        -0.23554911401210232     
  0.13019999999999998        -0.51244599663615642     
  0.13050000000000000        -0.79503328986022681     
  0.13080000000000003         -1.0745977333376151     
  0.13109999999999999         -1.3417871198049471     
  0.13140000000000002         -1.5865988957065245     
  0.13169999999999998         -1.7990086325532721     
  0.13200000000000001         -1.9685619140074750     
  0.13229999999999997         -2.0858912739016797     
  0.13260000000000000         -2.1421489988018942     
  0.13290000000000002         -2.1303503778487434     
  0.13319999999999999         -2.0453934919125705     
  0.13350000000000001         -1.8851036059369548     
  0.13380000000000003         -1.6502344802883926     
  0.13410000000000000         -1.3452372707338403     
  0.13440000000000002        -0.97804267346881613     
  0.13469999999999999        -0.56065256053616896     
  0.13500000000000001        -0.10818103111407892     
  0.13529999999999998         0.36017147060255778     
  0.13560000000000000         0.82383287796784022     
  0.13590000000000002          1.2594699990159892     
  0.13619999999999999          1.6438778809859778     
  0.13650000000000001          1.9546759332746479     
  0.13680000000000003          2.1717651118628609     
  0.13710000000000000          2.2792487385793669     
  0.13740000000000002          2.2668013815130408     
  0.13769999999999999          2.1311290494578672     
  0.13800000000000001          1.8766250815755470     
  0.13829999999999998          1.5160291364043383     
  0.13860000000000000          1.0709898593120919     
  0.13890000000000002         0.56918705181286644     
  0.13919999999999999          4.5551259848129799E-002
  0.13950000000000001        -0.46244326736303465     
  0.13979999999999998        -0.91558070025568661     
  0.14010000000000000         -1.2767239955814373     
  0.14040000000000002         -1.5136580641573336     
  0.14069999999999999         -1.6012919132760663     
  0.14100000000000001         -1.5246570280261045     
  0.14130000000000004         -1.2798296345764455     
  0.14160000000000000        -0.87483031275363343     
  0.14189999999999997        -0.32984915257134229     
  0.14219999999999999         0.32455162347213590     
  0.14250000000000002          1.0482523669674082     
  0.14279999999999998          1.7949322811328383     
  0.14310000000000000          2.5142903796451823     
  0.14339999999999997          3.1560464482517530     
  0.14369999999999999          3.6721373271633402     
  0.14400000000000002          4.0207906498934660     
  0.14429999999999998          4.1683522028578555     
  0.14460000000000001          4.0920520574881110     
  0.14490000000000003          3.7816475128252685     
  0.14520000000000000          3.2398231620065454     
  0.14550000000000002          2.4827137440849341     
  0.14579999999999999          1.5395549800937918     
  0.14610000000000001         0.45058003576335753     
  0.14640000000000003        -0.73395140844153850     
  0.14670000000000000         -1.9574832159010642     
  0.14699999999999996         -3.1592000214546481     
  0.14729999999999999         -4.2781811677839423     
  0.14760000000000001         -5.2564026049459622     
  0.14789999999999998         -6.0427442888437701     
  0.14820000000000000         -6.5942803838489672     