  -1.4999999999999999E-002     0.0000000000000000     
  -1.4700000000000000E-002     0.0000000000000000     
  -1.4400000000000000E-002     0.0000000000000000     
  -1.4100000000000000E-002     0.0000000000000000     
  -1.3800000000000000E-002     0.0000000000000000     
  -1.3500000000000000E-002     0.0000000000000000     
  -1.3200000000000000E-002     0.0000000000000000     
  -1.2899999999999998E-002     0.0000000000000000     
  -1.2600000000000000E-002     0.0000000000000000     
  -1.2299999999999998E-002     0.0000000000000000     
  -1.2000000000000000E-002     0.0000000000000000     
  -1.1699999999999999E-002     0.0000000000000000     
  -1.1399999999999999E-002     0.0000000000000000     
  -1.1099999999999999E-002     0.0000000000000000     
  -1.0799999999999999E-002     0.0000000000000000     
  -1.0499999999999999E-002     0.0000000000000000     
  -1.0199999999999999E-002     0.0000000000000000     
  -9.8999999999999991E-003     0.0000000000000000     
  -9.5999999999999992E-003     0.0000000000000000     
  -9.2999999999999992E-003     0.0000000000000000     
  -8.9999999999999993E-003     0.0000000000000000     
  -8.6999999999999994E-003     0.0000000000000000     
  -8.3999999999999995E-003     0.0000000000000000     
  -8.0999999999999996E-003     0.0000000000000000     
  -7.7999999999999988E-003     0.0000000000000000     
  -7.4999999999999997E-003     0.0000000000000000     
  -7.1999999999999998E-003     0.0000000000000000     
  -6.8999999999999981E-003     0.0000000000000000     
  -6.5999999999999982E-003     0.0000000000000000     
  -6.3000000000000000E-003     0.0000000000000000     
  -6.0000000000000001E-003     0.0000000000000000     
  -5.6999999999999985E-003     0.0000000000000000     
  -5.3999999999999986E-003     0.0000000000000000     
  -5.1000000000000004E-003     0.0000000000000000     
  -4.7999999999999987E-003     0.0000000000000000     
  -4.5000000000000005E-003     0.0000000000000000     
  -4.1999999999999989E-003     0.0000000000000000     
  -3.8999999999999990E-003     0.0000000000000000     
  -3.5999999999999990E-003     0.0000000000000000     
  -3.2999999999999991E-003     0.0000000000000000     
  -2.9999999999999992E-003     0.0000000000000000     
  -2.6999999999999993E-003     0.0000000000000000     
  -2.3999999999999994E-003     0.0000000000000000     
  -2.0999999999999977E-003     0.0000000000000000     
  -1.7999999999999995E-003     0.0000000000000000     
  -1.4999999999999979E-003     0.0000000000000000     
  -1.1999999999999997E-003     0.0000000000000000     
  -8.9999999999999976E-004     0.0000000000000000     
  -5.9999999999999810E-004     0.0000000000000000     
  -2.9999999999999992E-004     0.0000000000000000     
   0.0000000000000000          0.0000000000000000     
   3.0000000000000165E-004     0.0000000000000000     
   5.9999999999999984E-004     0.0000000000000000     
   9.0000000000000149E-004     0.0000000000000000     
   1.2000000000000031E-003     0.0000000000000000     
   1.5000000000000013E-003     0.0000000000000000     
   1.8000000000000030E-003     0.0000000000000000     
   2.1000000000000012E-003     0.0000000000000000     
   2.3999999999999994E-003     0.0000000000000000     
   2.7000000000000010E-003     0.0000000000000000     
   2.9999999999999992E-003     0.0000000000000000     
   3.3000000000000008E-003     0.0000000000000000     
   3.6000000000000025E-003     0.0000000000000000     
   3.9000000000000007E-003     0.0000000000000000     
   4.2000000000000023E-003     0.0000000000000000     
   4.5000000000000005E-003     0.0000000000000000     
   4.7999999999999987E-003     0.0000000000000000     
   5.1000000000000004E-003     0.0000000000000000     
   5.4000000000000020E-003     0.0000000000000000     
   5.7000000000000037E-003     0.0000000000000000     
   5.9999999999999984E-003     0.0000000000000000     
   6.3000000000000000E-003     0.0000000000000000     
   6.6000000000000017E-003     0.0000000000000000     
   6.9000000000000034E-003     0.0000000000000000     
   7.2000000000000015E-003     0.0000000000000000     
   7.5000000000000032E-003     0.0000000000000000     
   7.8000000000000014E-003     0.0000000000000000     
   8.0999999999999996E-003     0.0000000000000000     
   8.4000000000000012E-003     0.0000000000000000     
   8.7000000000000029E-003     0.0000000000000000     
   9.0000000000000011E-003     0.0000000000000000     
   9.2999999999999992E-003     0.0000000000000000     
   9.6000000000000009E-003     0.0000000000000000     
   9.8999999999999991E-003     0.0000000000000000     
   1.0200000000000001E-002     0.0000000000000000     
   1.0500000000000002E-002     0.0000000000000000     
   1.0800000000000004E-002     0.0000000000000000     
   1.1099999999999999E-002     0.0000000000000000     
   1.1400000000000000E-002     0.0000000000000000     
   1.1700000000000002E-002     0.0000000000000000     
   1.2000000000000004E-002     0.0000000000000000     
   1.2300000000000002E-002     0.0000000000000000     
   1.2600000000000000E-002     0.0000000000000000     
   1.2900000000000002E-002     0.0000000000000000     
   1.3200000000000000E-002     0.0000000000000000     
   1.3500000000000002E-002     0.0000000000000000     
   1.3800000000000003E-002     0.0000000000000000     
   1.4100000000000001E-002     0.0000000000000000     
   1.4400000000000000E-002     0.0000000000000000     
   1.4700000000000001E-002     0.0000000000000000     
   1.4999999999999999E-002     0.0000000000000000     
   1.5300000000000001E-002     0.0000000000000000     
   1.5600000000000003E-002     0.0000000000000000     
   1.5899999999999997E-002     0.0000000000000000     
   1.6199999999999999E-002     0.0000000000000000     
   1.6500000000000001E-002     1.3358413428105678E-037
   1.6800000000000002E-002    -7.0025787355086390E-037
   1.7100000000000004E-002     1.1483252736858152E-036
   1.7400000000000006E-002     1.5228916191361614E-036
   1.7700000000000000E-002    -1.0096604863741757E-035
   1.8000000000000002E-002     1.3538383449840256E-035
   1.8300000000000004E-002    -2.4053155670849422E-035
   1.8600000000000005E-002    -9.0625992163143764E-036
   1.8900000000000000E-002     3.9318667272129842E-035
   1.9200000000000002E-002    -1.4593577735433332E-035
   1.9500000000000003E-002     1.1126580954201794E-034
   1.9799999999999998E-002    -6.6095517365806396E-034
   2.0100000000000000E-002     1.6247722699318910E-033
   2.0400000000000001E-002    -1.2052718213382740E-033
   2.0700000000000003E-002    -1.3788361713234394E-033
   2.0999999999999998E-002     4.5658026982921296E-033
   2.1299999999999999E-002    -2.9289715647185804E-033
   2.1600000000000001E-002    -5.2465843260824510E-033
   2.1900000000000003E-002     1.0222553304793841E-032
   2.2200000000000004E-002     6.6674467321398864E-033
   2.2500000000000006E-002    -3.9346352375861815E-032
   2.2800000000000001E-002     3.2813855683327287E-032
   2.3100000000000002E-002     5.5117160686877070E-032
   2.3400000000000004E-002    -1.1108096450125371E-031
   2.3699999999999999E-002    -1.4409301776093202E-031
   2.4000000000000000E-002     8.1151362324690148E-031
   2.4300000000000002E-002    -1.4351154748250334E-030
   2.4599999999999997E-002     1.4582537624786892E-030
   2.4900000000000005E-002    -1.4882578728607933E-030
   2.5200000000000000E-002     2.4288489271258335E-030
   2.5499999999999995E-002     2.5110285822853953E-030
   2.5800000000000003E-002    -4.5133095339582981E-029
   2.6099999999999998E-002     2.0521517838568594E-028
   2.6400000000000007E-002    -6.3164378504972896E-028
   2.6700000000000002E-002     1.5347132078962805E-027
   2.6999999999999996E-002    -3.0151424187870850E-027
   2.7300000000000005E-002     4.3132144398419408E-027
   2.7600000000000000E-002    -1.7013281180019346E-027
   2.7900000000000008E-002    -1.5537389372498423E-026
   2.8200000000000003E-002     6.9023214858851163E-026
   2.8499999999999998E-002    -1.8442992819122234E-025
   2.8800000000000006E-002     3.4331496376895719E-025
   2.9100000000000001E-002    -3.3583380029271802E-025
   2.9400000000000003E-002    -5.2277975977909479E-025
   2.9700000000000004E-002     3.6046764071477946E-024
   3.0000000000000006E-002    -1.0202961470947123E-023
   3.0300000000000001E-002     1.7960633138120828E-023
   3.0600000000000002E-002    -1.2911522652841291E-023
   3.0900000000000004E-002    -4.2016213449429586E-023
   3.1199999999999999E-002     2.1978082291668164E-022
   3.1500000000000007E-002    -6.3819553819127184E-022
   3.1800000000000002E-002     1.4012543939353007E-021
   3.2099999999999997E-002    -2.1912965882091864E-021
   3.2400000000000005E-002     1.0070973223622057E-021
   3.2700000000000000E-002     7.9661348359767809E-021
   3.3000000000000002E-002    -3.6439601776699313E-020
   3.3300000000000003E-002     1.0588274052794462E-019
   3.3599999999999998E-002    -2.5881963180588549E-019
   3.3900000000000000E-002     5.3848451407847800E-019
   3.4200000000000001E-002    -6.9705253374070673E-019
   3.4500000000000003E-002    -9.5190436560715944E-019
   3.4799999999999998E-002     1.0061564102326149E-017
   3.5099999999999999E-002    -3.8219356020836721E-017
   3.5400000000000001E-002     9.1060812505365200E-017
   3.5699999999999996E-002    -9.7897522370710185E-017
   3.6000000000000004E-002    -2.8270835575299684E-016
   3.6299999999999999E-002     1.8259450352803084E-015
   3.6600000000000008E-002    -4.7705057995159165E-015
   3.6900000000000002E-002     4.3588773355723068E-015
   3.7199999999999997E-002     1.6315251438454909E-014
   3.7500000000000006E-002    -7.8010231282542918E-014
   3.7800000000000000E-002     1.3717447244486339E-013
   3.8100000000000009E-002     4.7447574293977723E-014
   3.8400000000000004E-002    -8.6551882115515370E-013
   3.8699999999999998E-002     1.9951154006042819E-012
   3.9000000000000007E-002    -6.5011473488631227E-013
   3.9300000000000002E-002    -7.9056274083935126E-012
   3.9600000000000003E-002     2.0626214489608779E-011
   3.9900000000000005E-002    -9.8160598413833096E-012
   4.0200000000000000E-002    -6.4423881594587331E-011
   4.0500000000000001E-002     1.6169118729158102E-010
   4.0800000000000003E-002    -6.6549868278271526E-011
   4.1100000000000005E-002    -4.1505484997463991E-010
   4.1399999999999999E-002     9.5439063750159340E-010
   4.1700000000000008E-002    -7.3463409431821925E-010
   4.2000000000000003E-002    -1.1628642350125872E-009
   4.2299999999999997E-002     7.8105591315032362E-009
   4.2600000000000006E-002    -1.9899361970949646E-008
   4.2900000000000001E-002    -2.1738870356326169E-008
   4.3200000000000002E-002     1.6047989828768062E-007
   4.3500000000000004E-002    -7.7806987910225148E-008
   4.3799999999999999E-002    -6.9076443366686212E-007
   4.4100000000000000E-002     4.5144450577771491E-006
   4.4400000000000002E-002     2.5819506455779307E-005
   4.4700000000000004E-002     6.1103745102603573E-005
   4.4999999999999998E-002     9.1398439881932035E-005
   4.5300000000000000E-002     1.0877853787083305E-004
   4.5600000000000002E-002     1.3809223018489966E-004
   4.5899999999999996E-002     2.1397306883723564E-004
   4.6200000000000005E-002     3.4848440605591223E-004
   4.6500000000000000E-002     5.3801176214744750E-004
   4.6799999999999994E-002     7.9306578906289979E-004
   4.7100000000000003E-002     1.1494780001133778E-003
   4.7399999999999998E-002     1.6552311539489975E-003
   4.7700000000000006E-002     2.3560374973826070E-003
   4.8000000000000001E-002     3.2961114431373424E-003
   4.8300000000000010E-002     4.5269385966945908E-003
   4.8600000000000004E-002     6.1083399701404670E-003
   4.8899999999999999E-002     8.0969075123438778E-003
   4.9200000000000008E-002     1.0526527548882916E-002
   4.9500000000000002E-002     1.3393900042240805E-002
   4.9800000000000011E-002     1.6654275469256057E-002
   5.0100000000000006E-002     2.0208263208673263E-002
   5.0400000000000000E-002     2.3865200812850290E-002
   5.0700000000000009E-002     2.7309041267581498E-002
   5.1000000000000004E-002     3.0080616196849125E-002
   5.1299999999999998E-002     3.1575868505145641E-002
   5.1600000000000007E-002     3.1055347955022711E-002
   5.1900000000000002E-002     2.7645215371533437E-002
   5.2200000000000010E-002     2.0355129350765448E-002
   5.2500000000000005E-002     8.1545665130595517E-003
   5.2800000000000000E-002    -9.8789254916265834E-003
   5.3099999999999994E-002    -3.4437300140856247E-002
   5.3400000000000003E-002    -6.5878476907059919E-002
   5.3699999999999998E-002   -0.10406083283972316     
   5.4000000000000006E-002   -0.14812123397955174     
   5.4300000000000001E-002   -0.19632085776829306     
   5.4599999999999996E-002   -0.24600654130210875     
   5.4900000000000004E-002   -0.29359703902067735     
   5.5199999999999999E-002   -0.33461937462210550     
   5.5499999999999994E-002   -0.36391468189268994     
   5.5800000000000002E-002   -0.37601674580602706     
   5.6099999999999997E-002   -0.36558375608537885     
   5.6400000000000006E-002   -0.32789985482177608     
   5.6700000000000000E-002   -0.25950897064137146     
   5.6999999999999995E-002   -0.15874946639352611     
   5.7300000000000004E-002    -2.6323227008034356E-002
   5.7599999999999998E-002    0.13437254415068903     
   5.7900000000000007E-002    0.31707765604315041     
   5.8200000000000002E-002    0.51273380115302736     
   5.8499999999999996E-002    0.71002759866440179     
   5.8800000000000005E-002    0.89583784628262131     
   5.9100000000000000E-002     1.0563170142175651     
   5.9400000000000008E-002     1.1780200875461670     
   5.9700000000000003E-002     1.2489484710711229     
   6.0000000000000012E-002     1.2598053162656175     
   6.0300000000000006E-002     1.2048961297075214     
   6.0600000000000001E-002     1.0829626041676299     
   6.0900000000000010E-002    0.89748191569636249     
   6.1200000000000004E-002    0.65652217517918210     
   6.1500000000000013E-002    0.37255122975829547     
   6.1800000000000008E-002     6.1389211724836329E-002
   6.2100000000000002E-002   -0.25886025473203117     
   6.2399999999999997E-002   -0.56909757242848036     
   6.2700000000000006E-002   -0.85086525477601938     
   6.3000000000000000E-002    -1.0873458529422440     
   6.3300000000000009E-002    -1.2649724276859933     
   6.3600000000000004E-002    -1.3741169684183132     
   6.3899999999999998E-002    -1.4097257607564595     
   6.4199999999999993E-002    -1.3717931376819290     
   6.4500000000000002E-002    -1.2648715358415923     
   6.4800000000000010E-002    -1.0979490673071164     
   6.5100000000000005E-002   -0.88352054080923681     
   6.5400000000000000E-002   -0.63674368775097689     
   6.5700000000000008E-002   -0.37452510665750866     
   6.5999999999999989E-002   -0.11401367213428421     
   6.6299999999999998E-002    0.12815961558081826     
   6.6600000000000006E-002    0.33690304327423332     
   6.6900000000000001E-002    0.49977340486288280     
   6.7199999999999996E-002    0.60735302626410537     
   6.7500000000000004E-002    0.65398507741991474     
   6.7800000000000013E-002    0.63793862778402755     
   6.8099999999999994E-002    0.56145388770123839     
   6.8400000000000002E-002    0.43059815139471419     
   6.8700000000000011E-002    0.25472658149035499     
   6.8999999999999992E-002     4.5926786260392038E-002
   6.9300000000000000E-002   -0.18177524921299545     
   6.9600000000000009E-002   -0.41325742149011035     
   6.9900000000000004E-002   -0.63343981463196974     
   7.0199999999999999E-002   -0.82808291989243499     
   7.0500000000000007E-002   -0.98469255432494252     
   7.0800000000000016E-002    -1.0934852254634042     
   7.1099999999999997E-002    -1.1476637058829988     
   7.1400000000000005E-002    -1.1440508066851525     
   7.1700000000000000E-002    -1.0828811542453338     
   7.1999999999999995E-002   -0.96779064460367992     
   7.2300000000000003E-002   -0.80540566378406298     
   7.2600000000000012E-002   -0.60461008115883030     
   7.2900000000000006E-002   -0.37585870456496973     
   7.3200000000000001E-002   -0.13017601976265858     
   7.3499999999999996E-002    0.12142013955173507     
   7.3800000000000004E-002    0.36897562571077724     
   7.4099999999999999E-002    0.60390154185067457     
   7.4400000000000008E-002    0.81937345079634483     
   7.4700000000000003E-002     1.0108437606400227     
   7.5000000000000011E-002     1.1752374885744381     
   7.5299999999999992E-002     1.3111962961273782     
   7.5600000000000001E-002     1.4184187633596115     
   7.5900000000000009E-002     1.4968516007206207     
   7.6200000000000004E-002     1.5466880923861375     
   7.6499999999999999E-002     1.5673372042812264     
   7.6800000000000007E-002     1.5575771946172094     
   7.7099999999999988E-002     1.5155443021702539     
   7.7399999999999997E-002     1.4386130602762404     
   7.7700000000000005E-002     1.3242846954423722     
   7.8000000000000014E-002     1.1705248775636043     
   7.8299999999999995E-002    0.97672679052924449     
   7.8600000000000003E-002    0.74431889380967331     
   7.8900000000000012E-002    0.47715892655772718     
   7.9199999999999993E-002    0.18238335474430462     
   7.9500000000000001E-002   -0.13024341062146497     
   7.9800000000000010E-002   -0.44810550164527013     
   8.0100000000000018E-002   -0.75666013172491708     
   8.0399999999999999E-002    -1.0405626410251623     
   8.0700000000000008E-002    -1.2844751671226082     
   8.1000000000000003E-002    -1.4747271079089916     
   8.1299999999999997E-002    -1.6002758383257971     
   8.1600000000000006E-002    -1.6537899315833897     
   8.1900000000000014E-002    -1.6323686784736604     
   8.2199999999999995E-002    -1.5376534290704771     
   8.2500000000000004E-002    -1.3760216074690144     
   8.2799999999999999E-002    -1.1576370012660846     
   8.3100000000000007E-002   -0.89586657013114901     
   8.3400000000000002E-002   -0.60612026765121119     
   8.3700000000000011E-002   -0.30421223769659633     
   8.4000000000000005E-002    -5.6931275073758697E-003
   8.4300000000000000E-002    0.27574194997243484     
   8.4599999999999995E-002    0.52896982349927901     
   8.4900000000000003E-002    0.74574773065078792     
   8.5199999999999998E-002    0.92123941536172915     
   8.5500000000000007E-002     1.0536331539874950     
   8.5800000000000001E-002     1.1436673797642158     
   8.6100000000000010E-002     1.1940555406465665     
   8.6399999999999991E-002     1.2086210649502716     
   8.6699999999999999E-002     1.1913895599713356     
   8.7000000000000008E-002     1.1460248430401223     
   8.7300000000000003E-002     1.0752109597399331     
   8.7599999999999997E-002    0.98031878332127231     
   8.7900000000000006E-002    0.86164820590905999     
   8.8200000000000014E-002    0.71835337135803790     
   8.8499999999999995E-002    0.54914673316861096     
   8.8800000000000004E-002    0.35319857641517455     
   8.9100000000000013E-002    0.13046101332417043     
   8.9399999999999993E-002   -0.11727528021740502     
   8.9700000000000002E-002   -0.38578693729528385     
   9.0000000000000011E-002   -0.66860452039690943     
   9.0299999999999991E-002   -0.95612138660070789     
   9.0600000000000000E-002    -1.2365911960512705     
   9.0900000000000009E-002    -1.4966801894108326     
   9.1200000000000017E-002    -1.7220814419727093     
   9.1499999999999998E-002    -1.8991047509317700     
   9.1800000000000007E-002    -2.0156865531361228     
   9.2100000000000001E-002    -2.0624534784769910     
   9.2399999999999996E-002    -2.0340903455505535     
   9.2700000000000005E-002    -1.9296873108546988     
   9.3000000000000013E-002    -1.7531942172530137     
   9.3300000000000008E-002    -1.5134806965779661     
   9.3600000000000003E-002    -1.2232973970727936     
   9.3899999999999997E-002   -0.89872786712418451     
   9.4200000000000006E-002   -0.55796995486394141     
   9.4500000000000001E-002   -0.21953933571939593     
   9.4800000000000009E-002     9.8885911396844495E-002
   9.5100000000000004E-002    0.38199199224997621     
   9.5399999999999999E-002    0.61813105534246693     
   9.5699999999999993E-002    0.79963929890270768     
   9.6000000000000002E-002    0.92394162112402700     
   9.6300000000000011E-002    0.99312497540078670     
   9.6600000000000005E-002     1.0135444767405326     
   9.6900000000000000E-002    0.99528244970323732     
   9.7200000000000009E-002    0.95059547320019266     
   9.7499999999999989E-002    0.89313688355347809     
   9.7799999999999998E-002    0.83615238115699986     
   9.8100000000000007E-002    0.79132503521802455     
   9.8400000000000015E-002    0.76793656122196607     
   9.8699999999999996E-002    0.77173089475449619     
   9.9000000000000005E-002    0.80474748566062981     
   9.9300000000000013E-002    0.86496188770936944     
   9.9599999999999994E-002    0.94720763372357353     
   9.9900000000000003E-002     1.0436901116261577     
  0.10020000000000001          1.1444846447997388     
  0.10049999999999999          1.2394229941586969     
  0.10080000000000000          1.3186685497402661     
  0.10110000000000001          1.3737979804251659     
  0.10140000000000000          1.3985399318489782     
  0.10170000000000000          1.3888641538450419     
  0.10200000000000001          1.3439287960987905     
  0.10230000000000002          1.2648082269797296     
  0.10260000000000000          1.1544948309966736     
  0.10290000000000001          1.0177597342903248     
  0.10320000000000000         0.85940074274632117     
  0.10350000000000001         0.68487900446720240     
  0.10380000000000000         0.49910304238130887     
  0.10410000000000001         0.30610212133021020     
  0.10440000000000001         0.10969771029665845     
  0.10470000000000000         -8.7380024662973371E-002
  0.10500000000000000        -0.28280368385461169     
  0.10530000000000000        -0.47396880566957855     
  0.10560000000000000        -0.65900805465895340     
  0.10590000000000001        -0.83516772597078648     
  0.10620000000000000        -0.99966184048398232     
  0.10650000000000001         -1.1497510053353719     
  0.10679999999999999         -1.2823123392879952     
  0.10710000000000000         -1.3947099179824041     
  0.10740000000000001         -1.4845236154474284     
  0.10770000000000000         -1.5501775871569456     
  0.10800000000000000         -1.5910743897969808     
  0.10830000000000001         -1.6073251906427455     
  0.10859999999999999         -1.6001856811803479     
  0.10890000000000000         -1.5716192418442749     
  0.10920000000000001         -1.5242103623365781     
  0.10950000000000001         -1.4609940822922856     
  0.10979999999999999         -1.3850136734850229     
  0.11009999999999999         -1.2992797701708483     
  0.11040000000000001         -1.2063820813861545     
  0.11070000000000001         -1.1082712784600550     
  0.11100000000000000         -1.0066446897929697     
  0.11130000000000000        -0.90206516439671569     
  0.11160000000000002        -0.79475231661857881     
  0.11190000000000001        -0.68451171863961646     
  0.11220000000000001        -0.57031843814660754     
  0.11250000000000000        -0.45142013344180532     
  0.11280000000000000        -0.32666622242316534     
  0.11309999999999999        -0.19528661279476994     
  0.11340000000000001         -5.7262052378264247E-002
  0.11369999999999998          8.7464412509152267E-002
  0.11400000000000000         0.23729574621378213     
  0.11430000000000000         0.39028949595729356     
  0.11460000000000002         0.54369868731457427     
  0.11489999999999999         0.69335435595247785     
  0.11520000000000001         0.83529913590185900     
  0.11550000000000001         0.96483978825464578     
  0.11580000000000000          1.0776640841721168     
  0.11609999999999999          1.1701774257133191     
  0.11640000000000002          1.2393406989910503     
  0.11670000000000001          1.2842329136157897     
  0.11700000000000001          1.3047343407748222     
  0.11730000000000000          1.3029748560041328     
  0.11760000000000000          1.2826977231868124     
  0.11789999999999999          1.2484104325676317     
  0.11820000000000001          1.2063263306413743     
  0.11850000000000001          1.1624623324126735     
  0.11880000000000000          1.1225467174772141     
  0.11910000000000000          1.0919026771677771     
  0.11940000000000002          1.0736526303659517     
  0.11970000000000001          1.0696396660227101     
  0.12000000000000001          1.0789250672766912     
  0.12030000000000000          1.0983425371401059     
  0.12060000000000000          1.1226793826754511     
  0.12089999999999999          1.1442024432872169     
  0.12119999999999999          1.1539992191260091     
  0.12150000000000001          1.1419292814820317     
  0.12180000000000001          1.0972705586142690     
  0.12210000000000000          1.0102386498178171     
  0.12239999999999999         0.87169738742495761     
  0.12270000000000002         0.67470596650913262     
  0.12300000000000001         0.41491796526370450     
  0.12330000000000001          9.1321578499401396E-002
  0.12360000000000000        -0.29307873905225207     
  0.12390000000000000        -0.73099174328107619     
  0.12419999999999999         -1.2107412360154703     
  0.12450000000000001         -1.7158186368083255     
  0.12480000000000001         -2.2260185806778727     
  0.12509999999999999         -2.7176528874509471     
  0.12540000000000001         -3.1646348787093910     
  0.12570000000000003         -3.5402863076689952     
  0.12600000000000000         -3.8186203597250969     
  0.12630000000000002         -3.9762634899330207     
  0.12659999999999999         -3.9946607052590934     
  0.12690000000000001         -3.8610521397605622     
  0.12719999999999998         -3.5705105785711897     
  0.12750000000000000         -3.1266261088283569     
  0.12780000000000002         -2.5412312562898514     
  0.12809999999999999         -1.8349932742322177     
  0.12840000000000001         -1.0359503769877092     
  0.12869999999999998        -0.17734903057054052     
  0.12900000000000000         0.70295187026362282     
  0.12930000000000003          1.5663428772573573     
  0.12959999999999999          2.3745738015679416     
  0.12990000000000002          3.0924743589389800     
  0.13019999999999998          3.6906397722076356     
  0.13050000000000000          4.1448278266796565     
  0.13080000000000003          4.4393035820084830     
  0.13109999999999999          4.5661121029860698     
  0.13140000000000002          4.5243051319493688     
  0.13169999999999998          4.3214658628103031     
  0.13200000000000001          3.9705769299450830     
  0.13229999999999997          3.4906212986472349     
  0.13260000000000000          2.9048821620463352     
  0.13290000000000002          2.2391058938732362     
  0.13319999999999999          1.5216090176251513     
  0.13350000000000001         0.78081197386640522     
  0.13380000000000003          4.5221346335702850E-002
  0.13410000000000000        -0.65766143686867284     
  0.13440000000000002         -1.3032039655403975     
  0.13469999999999999         -1.8685399297074716     
  0.13500000000000001         -2.3350569997024255     
  0.13529999999999998         -2.6882621537055766     
  0.13560000000000000         -2.9176975763310615     
  0.13590000000000002         -3.0191572666309110     
  0.13619999999999999         -2.9928082706490344     
  0.13650000000000001         -2.8448716093628059     
  0.13680000000000003         -2.5871292803633401     
  0.13710000000000000         -2.2356903442501599     
  0.13740000000000002         -1.8121895968186470     
  0.13769999999999999         -1.3411513036947282     
  0.13800000000000001        -0.84979529820754007     
  0.13829999999999998        -0.36727755913682480     
  0.13860000000000000          7.8065639865610353E-002
  0.13890000000000002         0.45925254385722114     
  0.13919999999999999         0.75255696314301646     
  0.13950000000000001         0.93984316935976353     
  0.13979999999999998          1.0090687161600762     
  0.14010000000000000         0.95617485123725743     
  0.14040000000000002         0.78610891491259760     
  0.14069999999999999         0.51259371381056906     
  0.14100000000000001         0.15886914052404327     
  0.14130000000000004        -0.24407899561666718     
  0.14160000000000000        -0.65908942820681982     
  0.14189999999999997         -1.0446272558777685     
  0.14219999999999999         -1.3585959483500656     
  0.14250000000000002         -1.5610284537099195     
  0.14279999999999998         -1.6181193998123342     
  0.14310000000000000         -1.5058673571588612     
  0.14339999999999997         -1.2120404269073008     
  0.14369999999999999        -0.73930348802340873     
  0.14400000000000002        -0.10562860947877106     
  0.14429999999999998         0.65631407777405348     
  0.14460000000000001          1.4998818997817358     
  0.14490000000000003          2.3687383366381356     
  0.14520000000000000          3.2005002400328806     
  0.14550000000000002          3.9313410781642046     
  0.14579999999999999          4.5023283089817081     
  0.14610000000000001          4.8633738288558455     
  0.14640000000000003          4.9787626090016133     
  0.14670000000000000          4.8301219061657390     
  0.14699999999999996          4.4177857723846650     
  0.14729999999999999          3.7623184858477670     
  0.14760000000000001          2.9012721204211505     
  0.14789999999999998          1.8875762830831069     
  0.14820000000000000         0.78382453251157003     