  -1.4999999999999999E-002     0.0000000000000000     
  -1.4700000000000000E-002     0.0000000000000000     
  -1.4400000000000000E-002     0.0000000000000000     
  -1.4100000000000000E-002     0.0000000000000000     
  -1.3800000000000000E-002     0.0000000000000000     
  -1.3500000000000000E-002     0.0000000000000000     
  -1.3200000000000000E-002     0.0000000000000000     
  -1.2899999999999998E-002     0.0000000000000000     
  -1.2600000000000000E-002     0.0000000000000000     
  -1.2299999999999998E-002     0.0000000000000000     
  -1.2000000000000000E-002     0.0000000000000000     
  -1.1699999999999999E-002     0.0000000000000000     
  -1.1399999999999999E-002     0.0000000000000000     
  -1.1099999999999999E-002     0.0000000000000000     
  -1.0799999999999999E-002     0.0000000000000000     
  -1.0499999999999999E-002     0.0000000000000000     
  -1.0199999999999999E-002     0.0000000000000000     
  -9.8999999999999991E-003     0.0000000000000000     
  -9.5999999999999992E-003     0.0000000000000000     
  -9.2999999999999992E-003     0.0000000000000000     
  -8.9999999999999993E-003     0.0000000000000000     
  -8.6999999999999994E-003     0.0000000000000000     
  -8.3999999999999995E-003     0.0000000000000000     
  -8.0999999999999996E-003     0.0000000000000000     
  -7.7999999999999988E-003     0.0000000000000000     
  -7.4999999999999997E-003     0.0000000000000000     
  -7.1999999999999998E-003     0.0000000000000000     
  -6.8999999999999981E-003     0.0000000000000000     
  -6.5999999999999982E-003     0.0000000000000000     
  -6.3000000000000000E-003     0.0000000000000000     
  -6.0000000000000001E-003     0.0000000000000000     
  -5.6999999999999985E-003     0.0000000000000000     
  -5.3999999999999986E-003     0.0000000000000000     
  -5.1000000000000004E-003     0.0000000000000000     
  -4.7999999999999987E-003     0.0000000000000000     
  -4.5000000000000005E-003     0.0000000000000000     
  -4.1999999999999989E-003     0.0000000000000000     
  -3.8999999999999990E-003     0.0000000000000000     
  -3.5999999999999990E-003     0.0000000000000000     
  -3.2999999999999991E-003     0.0000000000000000     
  -2.9999999999999992E-003     0.0000000000000000     
  -2.6999999999999993E-003     0.0000000000000000     
  -2.3999999999999994E-003     0.0000000000000000     
  -2.0999999999999977E-003     0.0000000000000000     
  -1.7999999999999995E-003     0.0000000000000000     
  -1.4999999999999979E-003     0.0000000000000000     
  -1.1999999999999997E-003     0.0000000000000000     
  -8.9999999999999976E-004     0.0000000000000000     
  -5.9999999999999810E-004     0.0000000000000000     
  -2.9999999999999992E-004     0.0000000000000000     
   0.0000000000000000          0.0000000000000000     
   3.0000000000000165E-004     0.0000000000000000     
   5.9999999999999984E-004     0.0000000000000000     
   9.0000000000000149E-004     0.0000000000000000     
   1.2000000000000031E-003     0.0000000000000000     
   1.5000000000000013E-003     0.0000000000000000     
   1.8000000000000030E-003     0.0000000000000000     
   2.1000000000000012E-003     0.0000000000000000     
   2.3999999999999994E-003     0.0000000000000000     
   2.7000000000000010E-003     0.0000000000000000     
   2.9999999999999992E-003     0.0000000000000000     
   3.3000000000000008E-003     0.0000000000000000     
   3.6000000000000025E-003     0.0000000000000000     
   3.9000000000000007E-003     0.0000000000000000     
   4.2000000000000023E-003     0.0000000000000000     
   4.5000000000000005E-003     0.0000000000000000     
   4.7999999999999987E-003     0.0000000000000000     
   5.1000000000000004E-003     0.0000000000000000     
   5.4000000000000020E-003     0.0000000000000000     
   5.7000000000000037E-003     0.0000000000000000     
   5.9999999999999984E-003     0.0000000000000000     
   6.3000000000000000E-003     0.0000000000000000     
   6.6000000000000017E-003     0.0000000000000000     
   6.9000000000000034E-003     0.0000000000000000     
   7.2000000000000015E-003     0.0000000000000000     
   7.5000000000000032E-003     0.0000000000000000     
   7.8000000000000014E-003     0.0000000000000000     
   8.0999999999999996E-003     0.0000000000000000     
   8.4000000000000012E-003     0.0000000000000000     
   8.7000000000000029E-003     0.0000000000000000     
   9.0000000000000011E-003     0.0000000000000000     
   9.2999999999999992E-003     0.0000000000000000     
   9.6000000000000009E-003     0.0000000000000000     
   9.8999999999999991E-003     0.0000000000000000     
   1.0200000000000001E-002     0.0000000000000000     
   1.0500000000000002E-002     0.0000000000000000     
   1.0800000000000004E-002     0.0000000000000000     
   1.1099999999999999E-002     0.0000000000000000     
   1.1400000000000000E-002     0.0000000000000000     
   1.1700000000000002E-002     0.0000000000000000     
   1.2000000000000004E-002     0.0000000000000000     
   1.2300000000000002E-002     0.0000000000000000     
   1.2600000000000000E-002     0.0000000000000000     
   1.2900000000000002E-002     0.0000000000000000     
   1.3200000000000000E-002     0.0000000000000000     
   1.3500000000000002E-002     0.0000000000000000     
   1.3800000000000003E-002     0.0000000000000000     
   1.4100000000000001E-002     0.0000000000000000     
   1.4400000000000000E-002     0.0000000000000000     
   1.4700000000000001E-002     0.0000000000000000     
   1.4999999999999999E-002    -1.7135672805043037E-037
   1.5300000000000001E-002    -2.9261321288999926E-036
   1.5600000000000003E-002    -3.2653573018068535E-036
   1.5899999999999997E-002     2.1447479489343934E-035
   1.6199999999999999E-002    -2.8593417780625723E-035
   1.6500000000000001E-002     1.1004094731473174E-034
   1.6800000000000002E-002    -7.0600818029305280E-035
   1.7100000000000004E-002    -4.4024904455735810E-034
   1.7400000000000006E-002     8.3190968996627997E-034
   1.7700000000000000E-002    -7.7978569600066082E-034
   1.8000000000000002E-002    -1.0757942228461264E-033
   1.8300000000000004E-002     2.6285837994520316E-033
   1.8600000000000005E-002     1.8547263088389997E-034
   1.8900000000000000E-002    -7.0578839845280431E-033
   1.9200000000000002E-002     7.7481648157700624E-033
   1.9500000000000003E-002     1.2504636522017492E-032
   1.9799999999999998E-002    -3.9665392357850584E-032
   2.0100000000000000E-002     1.5398205969426551E-032
   2.0400000000000001E-002     9.3405325091684923E-032
   2.0700000000000003E-002    -1.6589621080869365E-031
   2.0999999999999998E-002    -3.7736367517052051E-032
   2.1299999999999999E-002     4.7879903503261040E-031
   2.1600000000000001E-002    -4.7656047026510592E-031
   2.1900000000000003E-002    -6.7600598594899490E-031
   2.2200000000000004E-002     2.0465853589123855E-030
   2.2500000000000006E-002    -7.1656805485765708E-031
   2.2800000000000001E-002    -4.3347976823585298E-030
   2.3100000000000002E-002     6.8923687344105428E-030
   2.3400000000000004E-002     2.9191785699632062E-030
   2.3699999999999999E-002    -2.1372812356453730E-029
   2.4000000000000000E-002     2.0277294993807216E-029
   2.4300000000000002E-002     2.3196013580509711E-029
   2.4599999999999997E-002    -6.5580791523395478E-029
   2.4900000000000005E-002    -2.0797879211149295E-030
   2.5200000000000000E-002     2.0505982024176744E-028
   2.5499999999999995E-002    -2.9215463911992359E-028
   2.5800000000000003E-002    -2.0217219989986829E-028
   2.6099999999999998E-002     1.5425157368432792E-027
   2.6400000000000007E-002    -3.5456518438029084E-027
   2.6700000000000002E-002     6.3267321621191472E-027
   2.6999999999999996E-002    -1.2155341918521062E-026
   2.7300000000000005E-002     2.6636962402585604E-026
   2.7600000000000000E-002    -5.0590467430926150E-026
   2.7900000000000008E-002     3.3353091594006737E-026
   2.8200000000000003E-002     2.5064246107397002E-025
   2.8499999999999998E-002    -1.2949279447639390E-024
   2.8800000000000006E-002     3.4303509488831986E-024
   2.9100000000000001E-002    -5.6559803977744966E-024
   2.9400000000000003E-002     6.5556014188380526E-024
   2.9700000000000004E-002    -1.2091258987225052E-023
   3.0000000000000006E-002     3.2535141756987233E-023
   3.0300000000000001E-002     8.4884998640235856E-024
   3.0600000000000002E-002    -4.8148137977389659E-022
   3.0900000000000004E-002     1.9618893628336156E-021
   3.1199999999999999E-002    -4.2084956924544889E-021
   3.1500000000000007E-002     6.1203128310457103E-021
   3.1800000000000002E-002    -1.1583046570194009E-020
   3.2099999999999997E-002     2.5415063690844863E-020
   3.2400000000000005E-002     3.9398658183661989E-020
   3.2700000000000000E-002    -5.7970201183359716E-019
   3.3000000000000002E-002     2.1663671732863035E-018
   3.3300000000000003E-002    -3.8659874244262432E-018
   3.3599999999999998E-002     8.7573180621243178E-020
   3.3900000000000000E-002     2.0010408671500012E-017
   3.4200000000000001E-002    -6.8191140211267942E-017
   3.4500000000000003E-002     1.5346394352978091E-016
   3.4799999999999998E-002    -2.3420420811879213E-016
   3.5099999999999999E-002    -8.2760286154370273E-017
   3.5400000000000001E-002     2.1494221643311198E-015
   3.5699999999999996E-002    -7.6419459847465108E-015
   3.6000000000000004E-002     1.2514003111979263E-014
   3.6299999999999999E-002     5.9233211164343992E-015
   3.6600000000000008E-002    -9.1318274505196562E-014
   3.6900000000000002E-002     2.4642419438138738E-013
   3.7199999999999997E-002    -2.3936964464592033E-013
   3.7500000000000006E-002    -6.2833564096580592E-013
   3.7800000000000000E-002     3.0546152181057604E-012
   3.8100000000000009E-002    -4.9960994130294034E-012
   3.8400000000000004E-002    -2.7203145340281383E-012
   3.8699999999999998E-002     3.1152313547746401E-011
   3.9000000000000007E-002    -5.7868789812312463E-011
   3.9300000000000002E-002    -1.6500579157659600E-011
   3.9600000000000003E-002     2.7636732679965325E-010
   3.9900000000000005E-002    -4.4528195802089685E-010
   4.0200000000000000E-002    -2.3736877365499409E-010
   4.0500000000000001E-002     1.8790100432756492E-009
   4.0800000000000003E-002    -2.3225833467755965E-009
   4.1100000000000005E-002    -1.1062448747355934E-009
   4.1399999999999999E-002     8.4741490042707797E-009
   4.1700000000000008E-002    -2.3649598109304388E-008
   4.2000000000000003E-002     8.2618712053731437E-009
   4.2299999999999997E-002     1.2985109569673136E-007
   4.2600000000000006E-002    -2.6783780961396515E-007
   4.2900000000000001E-002    -5.3119269409637399E-008
   4.3200000000000002E-002     6.3644374737377728E-006
   4.3500000000000004E-002     2.2336444739674813E-005
   4.3799999999999999E-002     4.0461889340363903E-005
   4.4100000000000000E-002     5.2392777013292706E-005
   4.4400000000000002E-002     6.4795566886317055E-005
   4.4700000000000004E-002     9.3518521975468756E-005
   4.4999999999999998E-002     1.4830015770928682E-004
   4.5300000000000000E-002     2.3293916261581663E-004
   4.5600000000000002E-002     3.5418281577191977E-004
   4.5899999999999996E-002     5.2760634003341268E-004
   4.6200000000000005E-002     7.7682160881271597E-004
   4.6500000000000000E-002     1.1258509070372479E-003
   4.6799999999999994E-002     1.6005946110122333E-003
   4.7100000000000003E-002     2.2405696403295749E-003
   4.7399999999999998E-002     3.0947086935880592E-003
   4.7700000000000006E-002     4.2054497216902848E-003
   4.8000000000000001E-002     5.6087999332535563E-003
   4.8300000000000010E-002     7.3461296090598684E-003
   4.8600000000000004E-002     9.4646716088306517E-003
   4.8899999999999999E-002     1.1995524777785982E-002
   4.9200000000000008E-002     1.4924731047616657E-002
   4.9500000000000002E-002     1.8188801476352646E-002
   4.9800000000000011E-002     2.1688275690629095E-002
   5.0100000000000006E-002     2.5283954387433746E-002
   5.0400000000000000E-002     2.8775034717388528E-002
   5.0700000000000009E-002     3.1887769923872787E-002
   5.1000000000000004E-002     3.4274939881111383E-002
   5.1299999999999998E-002     3.5542210872257611E-002
   5.1600000000000007E-002     3.5288137974104489E-002
   5.1900000000000002E-002     3.3144306794555933E-002
   5.2200000000000010E-002     2.8797419696041132E-002
   5.2500000000000005E-002     2.2023255662813650E-002
   5.2800000000000000E-002     1.2751946997263255E-002
   5.3099999999999994E-002     1.1198461279984312E-003
   5.3400000000000003E-002    -1.2515608969883251E-002
   5.3699999999999998E-002    -2.7578448102120196E-002
   5.4000000000000006E-002    -4.3329424358572247E-002
   5.4300000000000001E-002    -5.8932455586009486E-002
   5.4599999999999996E-002    -7.3543821756238220E-002
   5.4900000000000004E-002    -8.6440151884601482E-002
   5.5199999999999999E-002    -9.7170363705369675E-002
   5.5499999999999994E-002   -0.10570399255087246     
   5.5800000000000002E-002   -0.11251315195232968     
   5.6099999999999997E-002   -0.11863255953976318     
   5.6400000000000006E-002   -0.12565498009066825     
   5.6700000000000000E-002   -0.13560597385928341     
   5.6999999999999995E-002   -0.15069092796238803     
   5.7300000000000004E-002   -0.17300621087944723     
   5.7599999999999998E-002   -0.20417531416237869     
   5.7900000000000007E-002   -0.24494165226665543     
   5.8200000000000002E-002   -0.29480774586876562     
   5.8499999999999996E-002   -0.35177826815718310     
   5.8800000000000005E-002   -0.41217443023065603     
   5.9100000000000000E-002   -0.47065728939287232     
   5.9400000000000008E-002   -0.52051340478370023     
   5.9700000000000003E-002   -0.55410109212926262     
   6.0000000000000012E-002   -0.56349240619662300     
   6.0300000000000006E-002   -0.54128387146357415     
   6.0600000000000001E-002   -0.48136419009603504     
   6.0900000000000010E-002   -0.37982543254774814     
   6.1200000000000004E-002   -0.23560388999712978     
   6.1500000000000013E-002    -5.0985004528910277E-002
   6.1800000000000008E-002    0.16826836642832924     
   6.2100000000000002E-002    0.41291285750691609     
   6.2399999999999997E-002    0.67076968498292522     
   6.2700000000000006E-002    0.92736671677006699     
   6.3000000000000000E-002     1.1669765967164134     
   6.3300000000000009E-002     1.3738476117225187     
   6.3600000000000004E-002     1.5331797189749832     
   6.3899999999999998E-002     1.6324410741321627     
   6.4199999999999993E-002     1.6622116275256316     
   6.4500000000000002E-002     1.6171232780526315     
   6.4800000000000010E-002     1.4961665194183036     
   6.5100000000000005E-002     1.3028939900837351     
   6.5400000000000000E-002     1.0453112833236313     
   6.5700000000000008E-002    0.73513525103982802     
   6.5999999999999989E-002    0.38747004500668225     
   6.6299999999999998E-002     1.9514357699388932E-002
   6.6600000000000006E-002   -0.35030253563611202     
   6.6900000000000001E-002   -0.70341003178128703     
   6.7199999999999996E-002    -1.0223764369010266     
   6.7500000000000004E-002    -1.2916071768057193     
   6.7800000000000013E-002    -1.4984667776121998     
   6.8099999999999994E-002    -1.6337111519445067     
   6.8400000000000002E-002    -1.6923255764414160     
   6.8700000000000011E-002    -1.6733494400853384     
   6.8999999999999992E-002    -1.5800911981074932     
   6.9300000000000000E-002    -1.4198836787073685     
   6.9600000000000009E-002    -1.2033863780730663     
   6.9900000000000004E-002   -0.94422174930575453     
   7.0199999999999999E-002   -0.65786037150500354     
   7.0500000000000007E-002   -0.36085457885130584     
   7.0800000000000016E-002    -6.9591173714228405E-002
   7.1099999999999997E-002    0.20030268489245057     
   7.1400000000000005E-002    0.43544368109725817     
   7.1700000000000000E-002    0.62500085496165469     
   7.1999999999999995E-002    0.76152414507816357     
   7.2300000000000003E-002    0.84141427272908809     
   7.2600000000000012E-002    0.86470521119674115     
   7.2900000000000006E-002    0.83529949799955794     
   7.3200000000000001E-002    0.76027153038169737     
   7.3499999999999996E-002    0.64930450016455099     
   7.3800000000000004E-002    0.51385108235642907     
   7.4099999999999999E-002    0.36622648569565769     
   7.4400000000000008E-002    0.21887874633663279     
   7.4700000000000003E-002     8.2921991004478668E-002
   7.5000000000000011E-002    -3.1837717449113657E-002
   7.5299999999999992E-002   -0.11818565799555095     
   7.5600000000000001E-002   -0.17129891874723627     
   7.5900000000000009E-002   -0.18927410674735656     
   7.6200000000000004E-002   -0.17280330271764649     
   7.6499999999999999E-002   -0.12502504098888828     
   7.6800000000000007E-002    -5.0948338873785935E-002
   7.7099999999999988E-002     4.2954769287622263E-002
   7.7399999999999997E-002    0.14918366321258308     
   7.7700000000000005E-002    0.25993115498671726     
   7.8000000000000014E-002    0.36750358351839696     
   7.8299999999999995E-002    0.46455451427339595     
   7.8600000000000003E-002    0.54482811719675539     
   7.8900000000000012E-002    0.60297131623114142     
   7.9199999999999993E-002    0.63501382919755511     
   7.9500000000000001E-002    0.63850267313893039     
   7.9800000000000010E-002    0.61247326224687626     
   8.0100000000000018E-002    0.55769223653326805     
   8.0399999999999999E-002    0.47662469799438600     
   8.0700000000000008E-002    0.37313445114259203     
   8.1000000000000003E-002    0.25260366241657373     
   8.1299999999999997E-002    0.12141254904860349     
   8.1600000000000006E-002    -1.3310226611296598E-002
   8.1900000000000014E-002   -0.14430476911953752     
   8.2199999999999995E-002   -0.26452982731268743     
   8.2500000000000004E-002   -0.36810059099382136     
   8.2799999999999999E-002   -0.45036565642339560     
   8.3100000000000007E-002   -0.50874063230919420     
   8.3400000000000002E-002   -0.54262880848224870     
   8.3700000000000011E-002   -0.55352185067289594     
   8.4000000000000005E-002   -0.54491181831555457     
   8.4300000000000000E-002   -0.52184697276958147     
   8.4599999999999995E-002   -0.49032024459511603     
   8.4900000000000003E-002   -0.45658745210819501     
   8.5199999999999998E-002   -0.42652523013813709     
   8.5500000000000007E-002   -0.40471032183979061     
   8.5800000000000001E-002   -0.39446852639307278     
   8.6100000000000010E-002   -0.39702698709441453     
   8.6399999999999991E-002   -0.41155597135174771     
   8.6699999999999999E-002   -0.43556490292250566     
   8.7000000000000008E-002   -0.46483814735831441     
   8.7300000000000003E-002   -0.49452518928845668     
   8.7599999999999997E-002   -0.51920654911765873     
   8.7900000000000006E-002   -0.53378880289419128     
   8.8200000000000014E-002   -0.53413515347115781     
   8.8499999999999995E-002   -0.51709453373001391     
   8.8800000000000004E-002   -0.48117970607607319     
   8.9100000000000013E-002   -0.42618065854873027     
   8.9399999999999993E-002   -0.35334346785050813     
   8.9700000000000002E-002   -0.26474170674003750     
   9.0000000000000011E-002   -0.16310093539959528     
   9.0299999999999991E-002    -5.1310162925271206E-002
   9.0600000000000000E-002     6.7846230329868529E-002
   9.0900000000000009E-002    0.19212701747482044     
   9.1200000000000017E-002    0.31971497271142679     
   9.1499999999999998E-002    0.44943320611619614     
   9.1800000000000007E-002    0.58023369350493170     
   9.2100000000000001E-002    0.71103823691730239     
   9.2399999999999996E-002    0.84063203233865025     
   9.2700000000000005E-002    0.96665157498656917     
   9.3000000000000013E-002     1.0861934240403133     
   9.3300000000000008E-002     1.1950053987591418     
   9.3600000000000003E-002     1.2878338279669499     
   9.3899999999999997E-002     1.3589944456816960     
   9.4200000000000006E-002     1.4020092187138178     
   9.4500000000000001E-002     1.4110025159619655     
   9.4800000000000009E-002     1.3805407888238967     
   9.5100000000000004E-002     1.3069021564061203     
   9.5399999999999999E-002     1.1878027787458527     
   9.5699999999999993E-002     1.0234512498416204     
   9.6000000000000002E-002    0.81614028264007221     
   9.6300000000000011E-002    0.57032285334061683     
   9.6600000000000005E-002    0.29283736857505016     
   9.6900000000000000E-002    -8.3192386690859738E-003
   9.7200000000000009E-002   -0.32370905286147605     
   9.7499999999999989E-002   -0.64338112295099759     
   9.7799999999999998E-002   -0.95731382919789532     
   9.8100000000000007E-002    -1.2558362660268845     
   9.8400000000000015E-002    -1.5300254288887001     
   9.8699999999999996E-002    -1.7717655251744162     
   9.9000000000000005E-002    -1.9744560184936892     
   9.9300000000000013E-002    -2.1324338475637616     
   9.9599999999999994E-002    -2.2417133378879819     
   9.9900000000000003E-002    -2.2992385152302965     
  0.10020000000000001         -2.3036971860676374     
  0.10049999999999999         -2.2549209853450956     
  0.10080000000000000         -2.1543101828551579     
  0.10110000000000001         -2.0044792291783553     
  0.10140000000000000         -1.8096394573338914     
  0.10170000000000000         -1.5752852444293912     
  0.10200000000000001         -1.3081407196735975     
  0.10230000000000002         -1.0161914415919497     
  0.10260000000000000        -0.70840711180201865     
  0.10290000000000001        -0.39420961479439598     
  0.10320000000000000         -8.3708085761605183E-002
  0.10350000000000001         0.21322466659365114     
  0.10380000000000000         0.48711392868612913     
  0.10410000000000001         0.72938270925829929     
  0.10440000000000001         0.93263975757608852     
  0.10470000000000000          1.0913786129189647     
  0.10500000000000000          1.2021053176795222     
  0.10530000000000000          1.2639270460409517     
  0.10560000000000000          1.2784366615390614     
  0.10590000000000001          1.2501689453424103     
  0.10620000000000000          1.1861985616603352     
  0.10650000000000001          1.0958946420400384     
  0.10679999999999999         0.99044701080545239     
  0.10710000000000000         0.88201420472026926     
  0.10740000000000001         0.78288720772378051     
  0.10770000000000000         0.70425880132505747     
  0.10800000000000000         0.65549439049489688     
  0.10830000000000001         0.64245674422546462     
  0.10859999999999999         0.66758686458122285     
  0.10890000000000000         0.72869237703952738     
  0.10920000000000001         0.81898196586819827     
  0.10950000000000001         0.92762263144042256     
  0.10979999999999999          1.0402648649876669     
  0.11009999999999999          1.1404146866532834     
  0.11040000000000001          1.2110926808899860     
  0.11070000000000001          1.2362701654167418     
  0.11100000000000000          1.2029231195013843     
  0.11130000000000000          1.1027662949972341     
  0.11160000000000002         0.93339007035528443     
  0.11190000000000001         0.69898438845917288     
  0.11220000000000001         0.41081419814153919     
  0.11250000000000000          8.6077558647445873E-002
  0.11280000000000000        -0.25249846214778265     
  0.11309999999999999        -0.57923449123783111     
  0.11340000000000001        -0.86724372122429583     
  0.11369999999999998         -1.0911827208269289     
  0.11400000000000000         -1.2296037045605326     
  0.11430000000000000         -1.2670276563884426     
  0.11460000000000002         -1.1958019450554176     
  0.11489999999999999         -1.0168875883620481     
  0.11520000000000001        -0.74023082669398721     
  0.11550000000000001        -0.38409999158674490     
  0.11580000000000000          2.6786010831552465E-002
  0.11609999999999999         0.46232892143228155     
  0.11640000000000002         0.89079276368010785     
  0.11670000000000001          1.2801344894681332     
  0.11700000000000001          1.6014489880691294     
  0.11730000000000000          1.8310381404229548     
  0.11760000000000000          1.9517403014214039     
  0.11789999999999999          1.9543425272839043     
  0.11820000000000001          1.8379439847083712     
  0.11850000000000001          1.6092229932215361     
  0.11880000000000000          1.2818690798793417     
  0.11910000000000000         0.87517082668237700     
  0.11940000000000002         0.41209810677114489     
  0.11970000000000001         -8.2390508010905250E-002
  0.12000000000000001        -0.58297799276672491     
  0.12030000000000000         -1.0659069650008344     
  0.12060000000000000         -1.5097198159946592     
  0.12089999999999999         -1.8966872046159227     
  0.12119999999999999         -2.2128456149372395     
  0.12150000000000001         -2.4487651013450464     
  0.12180000000000001         -2.5989913044722432     
  0.12210000000000000         -2.6624286006255424     
  0.12239999999999999         -2.6410345512735254     
  0.12270000000000002         -2.5401562372387354     
  0.12300000000000001         -2.3671926944815151     
  0.12330000000000001         -2.1315365378972517     
  0.12360000000000000         -1.8436841657381788     
  0.12390000000000000         -1.5146626051801835     
  0.12419999999999999         -1.1555288155026047     
  0.12450000000000001        -0.77688539345781926     
  0.12480000000000001        -0.38883721330585630     
  0.12509999999999999         -4.0297107761980144E-004
  0.12540000000000001         0.38000270447897350     
  0.12570000000000003         0.74521104818160988     
  0.12600000000000000          1.0885544768174000     
  0.12630000000000002          1.4042382290799920     
  0.12659999999999999          1.6870036188878581     
  0.12690000000000001          1.9319938569998127     
  0.12719999999999998          2.1353859834358877     
  0.12750000000000000          2.2936522927372844     
  0.12780000000000002          2.4047016370523480     
  0.12809999999999999          2.4673178400870537     
  0.12840000000000001          2.4817658839019741     
  0.12869999999999998          2.4499489680970030     
  0.12900000000000000          2.3749511181458143     
  0.12930000000000003          2.2615728065608565     
  0.12959999999999999          2.1148060089929226     
  0.12990000000000002          1.9405247867585276     
  0.13019999999999998          1.7439008278288448     
  0.13050000000000000          1.5305415340756334     
  0.13080000000000003          1.3037802655338744     
  0.13109999999999999          1.0668429774987680     
  0.13140000000000002         0.82148857458908742     
  0.13169999999999998         0.56814838760246766     
  0.13200000000000001         0.30731558165852391     
  0.13229999999999997          3.8861752556923118E-002
  0.13260000000000000        -0.23682266159209531     
  0.13290000000000002        -0.51894061126558522     
  0.13319999999999999        -0.80570972185906398     
  0.13350000000000001         -1.0949283523451703     
  0.13380000000000003         -1.3836717474584574     
  0.13410000000000000         -1.6683132945260848     
  0.13440000000000002         -1.9461148665885115     
  0.13469999999999999         -2.2135513842757919     
  0.13500000000000001         -2.4683475884364889     
  0.13529999999999998         -2.7083043915169469     
  0.13560000000000000         -2.9320333518711683     
  0.13590000000000002         -3.1374988993119040     
  0.13619999999999999         -3.3232347922376109     
  0.13650000000000001         -3.4863794234604142     
  0.13680000000000003         -3.6238234869771850     
  0.13710000000000000         -3.7310005859121858     
  0.13740000000000002         -3.8024914854881686     
  0.13769999999999999         -3.8323826487441846     
  0.13800000000000001         -3.8147579325601848     
  0.13829999999999998         -3.7440883566962775     
  0.13860000000000000         -3.6164141955401914     
  0.13890000000000002         -3.4293645072960448     
  0.13919999999999999         -3.1832881905293915     
  0.13950000000000001         -2.8817406326032957     
  0.13979999999999998         -2.5306633920271304     
  0.14010000000000000         -2.1390918815639282     
  0.14040000000000002         -1.7184153542443832     
  0.14069999999999999         -1.2805177056327199     
  0.14100000000000001        -0.83906121684130663     
  0.14130000000000004        -0.40588513893800182     
  0.14160000000000000          7.4396111061729858E-003
  0.14189999999999997         0.39277893066833763     
  0.14219999999999999         0.74482381535338027     
  0.14250000000000002          1.0612564580265458     
  0.14279999999999998          1.3443076229115383     
  0.14310000000000000          1.5985275867140794     
  0.14339999999999997          1.8316181703567092     
  0.14369999999999999          2.0527755557686409     
  0.14400000000000002          2.2713826416257747     
  0.14429999999999998          2.4964291559876512     
  0.14460000000000001          2.7342277596201709     
  0.14490000000000003          2.9887265242077743     
  0.14520000000000000          3.2591037215721967     
  0.14550000000000002          3.5408130402630711     
  0.14579999999999999          3.8253919035788693     
  0.14610000000000001          4.1002271710373792     
  0.14640000000000003          4.3506384839279590     
  0.14670000000000000          4.5613100700358098     
  0.14699999999999996          4.7163387125132621     
  0.14729999999999999          4.8030386502756883     
  0.14760000000000001          4.8113134391552359     
  0.14789999999999998          4.7357574212219395     
  0.14820000000000000          4.5768809493969798     