  -1.4999999999999999E-002     0.0000000000000000     
  -1.4700000000000000E-002     0.0000000000000000     
  -1.4400000000000000E-002     0.0000000000000000     
  -1.4100000000000000E-002     0.0000000000000000     
  -1.3800000000000000E-002     0.0000000000000000     
  -1.3500000000000000E-002     0.0000000000000000     
  -1.3200000000000000E-002     0.0000000000000000     
  -1.2899999999999998E-002     0.0000000000000000     
  -1.2600000000000000E-002     0.0000000000000000     
  -1.2299999999999998E-002     0.0000000000000000     
  -1.2000000000000000E-002     0.0000000000000000     
  -1.1699999999999999E-002     0.0000000000000000     
  -1.1399999999999999E-002     0.0000000000000000     
  -1.1099999999999999E-002     0.0000000000000000     
  -1.0799999999999999E-002     0.0000000000000000     
  -1.0499999999999999E-002     0.0000000000000000     
  -1.0199999999999999E-002     0.0000000000000000     
  -9.8999999999999991E-003     0.0000000000000000     
  -9.5999999999999992E-003     0.0000000000000000     
  -9.2999999999999992E-003     0.0000000000000000     
  -8.9999999999999993E-003     0.0000000000000000     
  -8.6999999999999994E-003     0.0000000000000000     
  -8.3999999999999995E-003     0.0000000000000000     
  -8.0999999999999996E-003     0.0000000000000000     
  -7.7999999999999988E-003     0.0000000000000000     
  -7.4999999999999997E-003     0.0000000000000000     
  -7.1999999999999998E-003     0.0000000000000000     
  -6.8999999999999981E-003     0.0000000000000000     
  -6.5999999999999982E-003     0.0000000000000000     
  -6.3000000000000000E-003     0.0000000000000000     
  -6.0000000000000001E-003     0.0000000000000000     
  -5.6999999999999985E-003     0.0000000000000000     
  -5.3999999999999986E-003     0.0000000000000000     
  -5.1000000000000004E-003     3.4780310512417370E-037
  -4.7999999999999987E-003     3.8169611797259647E-036
  -4.5000000000000005E-003     1.6079792341361742E-036
  -4.1999999999999989E-003    -1.8165395911739806E-035
  -3.8999999999999990E-003     1.5205107674438688E-035
  -3.5999999999999990E-003     1.3803113355796037E-034
  -3.2999999999999991E-003    -4.3422334611725266E-034
  -2.9999999999999992E-003    -6.5350316182877642E-035
  -2.6999999999999993E-003    -5.5811491109756324E-035
  -2.3999999999999994E-003     4.4622563318058366E-033
  -2.0999999999999977E-003    -5.7604481255305846E-033
  -1.7999999999999995E-003    -1.8034340033959957E-032
  -1.4999999999999979E-003     7.8088964227114103E-032
  -1.1999999999999997E-003    -1.8489773655940329E-031
  -8.9999999999999976E-004     2.4734280207057494E-031
  -5.9999999999999810E-004     2.6513427591742089E-031
  -2.9999999999999992E-004    -1.5271143819785126E-030
   0.0000000000000000          1.6298926280345396E-030
   3.0000000000000165E-004     5.1654246170311673E-032
   5.9999999999999984E-004     2.8752861592830762E-030
   9.0000000000000149E-004    -1.5556312200041698E-029
   1.2000000000000031E-003     2.6465231672594057E-029
   1.5000000000000013E-003     1.3677038631818623E-029
   1.8000000000000030E-003    -2.1123422811820063E-028
   2.1000000000000012E-003     4.8409106817343396E-028
   2.3999999999999994E-003    -5.2310920709961587E-029
   2.7000000000000010E-003    -1.9178545834626098E-027
   2.9999999999999992E-003     3.7370194464135422E-027
   3.3000000000000008E-003     2.5635853570836114E-028
   3.6000000000000025E-003    -1.5174719688354724E-026
   3.9000000000000007E-003     2.9643627012500783E-026
   4.2000000000000023E-003     2.5486539398282639E-027
   4.5000000000000005E-003    -1.2116219712871232E-025
   4.7999999999999987E-003     2.1650252233518389E-025
   5.1000000000000004E-003     3.3316434670416723E-026
   5.4000000000000020E-003    -8.1442778158451173E-025
   5.7000000000000037E-003     1.4031062501666593E-024
   5.9999999999999984E-003     1.8429050833971303E-025
   6.3000000000000000E-003    -5.1026414922860921E-024
   6.6000000000000017E-003     8.6135941253179422E-024
   6.9000000000000034E-003     1.0928016512459212E-024
   7.2000000000000015E-003    -2.8996488561246869E-023
   7.5000000000000032E-003     4.7697765072758186E-023
   7.8000000000000014E-003     5.6855972995949921E-024
   8.0999999999999996E-003    -1.5640842687482343E-022
   8.4000000000000012E-003     2.4819571895302787E-022
   8.7000000000000029E-003     6.6048542334028784E-023
   9.0000000000000011E-003    -8.7253591138972360E-022
   9.2999999999999992E-003     1.2275314067920967E-021
   9.6000000000000009E-003     7.0475571269831859E-022
   9.8999999999999991E-003    -5.0007246775736376E-021
   1.0200000000000001E-002     5.9920990933050957E-021
   1.0500000000000002E-002     5.7435218375964904E-021
   1.0800000000000004E-002    -2.7741431225272235E-020
   1.1099999999999999E-002     2.7761120589661177E-020
   1.1400000000000000E-002     3.7039343832760031E-020
   1.1700000000000002E-002    -1.3976949744398299E-019
   1.2000000000000004E-002     1.1809243352989890E-019
   1.2300000000000002E-002     1.9883260863619728E-019
   1.2600000000000000E-002    -6.2624621515308981E-019
   1.2900000000000002E-002     4.4362582084755229E-019
   1.3200000000000000E-002     9.1693523320579058E-019
   1.3500000000000002E-002    -2.4710266092323866E-018
   1.3800000000000003E-002     1.4504380886785286E-018
   1.4100000000000001E-002     3.6768053723179583E-018
   1.4400000000000000E-002    -8.6285962092976350E-018
   1.4700000000000001E-002     4.1241326199194068E-018
   1.4999999999999999E-002     1.2948946591595607E-017
   1.5300000000000001E-002    -2.6914977026619799E-017
   1.5600000000000003E-002     1.0475133237498998E-017
   1.5899999999999997E-002     4.0461831415985257E-017
   1.6199999999999999E-002    -7.6640373648610302E-017
   1.6500000000000001E-002     2.5085971647144543E-017
   1.6800000000000002E-002     1.1512985946189627E-016
   1.7100000000000004E-002    -2.0537412878694538E-016
   1.7400000000000006E-002     5.8344039850610393E-017
   1.7700000000000000E-002     3.1350848680500064E-016
   1.8000000000000002E-002    -5.3119426694082963E-016
   1.8300000000000004E-002     1.0588950414399670E-016
   1.8600000000000005E-002     8.6222004060939399E-016
   1.8900000000000000E-002    -1.2649637761694950E-015
   1.9200000000000002E-002    -5.6024110607854917E-017
   1.9500000000000003E-002     2.2087436936009514E-015
   1.9799999999999998E-002    -2.0553809991311231E-015
   2.0100000000000000E-002    -1.2455955095779219E-015
   2.0400000000000001E-002     2.3198417995016733E-015
   2.0700000000000003E-002     1.7030358716674588E-015
   2.0999999999999998E-002     2.3325983550071482E-015
   2.1299999999999999E-002    -2.1948251778181309E-014
   2.1600000000000001E-002     1.2188434863298017E-014
   2.1900000000000003E-002     6.5522944820654784E-014
   2.2200000000000004E-002    -9.6554950194319243E-014
   2.2500000000000006E-002     2.8915824882608061E-015
   2.2800000000000001E-002    -8.1416435981646406E-014
   2.3100000000000002E-002    -3.5630768776719953E-014
   2.3400000000000004E-002     2.2452317649109749E-012
   2.3699999999999999E-002    -4.1571992888916305E-012
   2.4000000000000000E-002    -6.3494992317195019E-012
   2.4300000000000002E-002     2.9704938258726223E-011
   2.4599999999999997E-002    -1.9633749020592170E-011
   2.4900000000000005E-002    -9.4729228593070003E-011
   2.5200000000000000E-002     2.6413135896856001E-010
   2.5499999999999995E-002     1.4432657722006508E-011
   2.5800000000000003E-002    -1.4276161749570665E-009
   2.6099999999999998E-002     1.7189664908428569E-009
   2.6400000000000007E-002     5.4206316251536536E-009
   2.6700000000000002E-002    -1.2250272130264474E-008
   2.6999999999999996E-002    -1.6967805329946495E-008
   2.7300000000000005E-002     5.6505853543964254E-008
   2.7600000000000000E-002     4.9438767478446837E-008
   2.7900000000000008E-002    -2.2024900452838661E-007
   2.8200000000000003E-002    -1.6298552776613217E-007
   2.8499999999999998E-002     1.2151090153145844E-006
   2.8800000000000006E-002     3.7892226185192826E-006
   2.9100000000000001E-002     6.9856926855562443E-006
   2.9400000000000003E-002     1.2087940821216406E-005
   2.9700000000000004E-002     2.0510231480246536E-005
   3.0000000000000006E-002     3.0069296449288795E-005
   3.0300000000000001E-002     3.9616543674168478E-005
   3.0600000000000002E-002     5.6986333643585117E-005
   3.0900000000000004E-002     9.1823640237902575E-005
   3.1199999999999999E-002     1.4409218116941157E-004
   3.1500000000000007E-002     2.1377372160585621E-004
   3.1800000000000002E-002     3.1212671235129923E-004
   3.2099999999999997E-002     4.5180135561100998E-004
   3.2400000000000005E-002     6.4251989097729133E-004
   3.2700000000000000E-002     9.0046588628269050E-004
   3.3000000000000002E-002     1.2482281493879392E-003
   3.3300000000000003E-002     1.7088349408477719E-003
   3.3599999999999998E-002     2.3003359468690429E-003
   3.3900000000000000E-002     3.0347387571597615E-003
   3.4200000000000001E-002     3.9302978774257338E-003
   3.4500000000000003E-002     5.0123797780948255E-003
   3.4799999999999998E-002     6.2925955040991953E-003
   3.5099999999999999E-002     7.7608565514340686E-003
   3.5400000000000001E-002     9.3916122595334647E-003
   3.5699999999999996E-002     1.1147138872066087E-002
   3.6000000000000004E-002     1.2972976761847454E-002
   3.6299999999999999E-002     1.4783620467044581E-002
   3.6600000000000008E-002     1.6467265082252783E-002
   3.6900000000000002E-002     1.7909340787626710E-002
   3.7199999999999997E-002     1.8988168202632834E-002
   3.7500000000000006E-002     1.9579980233099457E-002
   3.7800000000000000E-002     1.9592464807967065E-002
   3.8100000000000009E-002     1.8971640191172909E-002
   3.8400000000000004E-002     1.7698637081595230E-002
   3.8699999999999998E-002     1.5817886914425715E-002
   3.9000000000000007E-002     1.3446951517500600E-002
   3.9300000000000002E-002     1.0759866065659535E-002
   3.9600000000000003E-002     7.9635509282505249E-003
   3.9900000000000005E-002     5.2389931880296109E-003
   4.0200000000000000E-002     2.7033069164848298E-003
   4.0500000000000001E-002     3.5352044886673064E-004
   4.0800000000000003E-002    -2.0275607729156736E-003
   4.1100000000000005E-002    -4.9410072503073546E-003
   4.1399999999999999E-002    -9.2140384092173899E-003
   4.1700000000000008E-002    -1.6037132078576245E-002
   4.2000000000000003E-002    -2.6951984321043954E-002
   4.2299999999999997E-002    -4.3774271939986703E-002
   4.2600000000000006E-002    -6.8471902060984829E-002
   4.2900000000000001E-002   -0.10298209380206344     
   4.3200000000000002E-002   -0.14897543507490366     
   4.3500000000000004E-002   -0.20760758900332357     
   4.3799999999999999E-002   -0.27922395942465078     
   4.4100000000000000E-002   -0.36313589958578996     
   4.4400000000000002E-002   -0.45745226444292797     
   4.4700000000000004E-002   -0.55896389869329677     
   4.4999999999999998E-002   -0.66316188065184045     
   4.5300000000000000E-002   -0.76442250039616133     
   4.5600000000000002E-002   -0.85629545546055785     
   4.5899999999999996E-002   -0.93188074121736109     
   4.6200000000000005E-002   -0.98433487301800215     
   4.6500000000000000E-002    -1.0074664008149705     
   4.6799999999999994E-002   -0.99617540470884469     
   4.7100000000000003E-002   -0.94704699475948528     
   4.7399999999999998E-002   -0.85856504469794448     
   4.7700000000000006E-002   -0.73142867054786842     
   4.8000000000000001E-002   -0.56847428055912586     
   4.8300000000000010E-002   -0.37457604434200603     
   4.8600000000000004E-002   -0.15624815438293282     
   4.8899999999999999E-002     7.8789388490425716E-002
   4.9200000000000008E-002    0.32226018369803094     
   4.9500000000000002E-002    0.56584266040874731     
   4.9800000000000011E-002    0.80174565924764896     
   5.0100000000000006E-002     1.0231432307619295     
   5.0400000000000000E-002     1.2245974074150805     
   5.0700000000000009E-002     1.4020340365710731     
   5.1000000000000004E-002     1.5529555698660105     
   5.1299999999999998E-002     1.6761673113691931     
   5.1600000000000007E-002     1.7715759048384094     
   5.1900000000000002E-002     1.8399090048401994     
   5.2200000000000010E-002     1.8823230139088101     
   5.2500000000000005E-002     1.9002923907937066     
   5.2800000000000000E-002     1.8953385425189047     
   5.3099999999999994E-002     1.8687286009182498     
   5.3400000000000003E-002     1.8218278161748600     
   5.3699999999999998E-002     1.7556812273735818     
   5.4000000000000006E-002     1.6715070951571933     
   5.4300000000000001E-002     1.5703082413999609     
   5.4599999999999996E-002     1.4531437228526409     
   5.4900000000000004E-002     1.3210215034666186     
   5.5199999999999999E-002     1.1747876806664894     
   5.5499999999999994E-002     1.0150689305569405     
   5.5800000000000002E-002    0.84213751256981917     
   5.6099999999999997E-002    0.65576268539372928     
   5.6400000000000006E-002    0.45542437936685398     
   5.6700000000000000E-002    0.24034304898401671     
   5.6999999999999995E-002     9.8820252691311991E-003
   5.7300000000000004E-002   -0.23634454780194811     
   5.7599999999999998E-002   -0.49719672660456782     
   5.7900000000000007E-002   -0.77073729193326146     
   5.8200000000000002E-002    -1.0527363480367316     
   5.8499999999999996E-002    -1.3368579176260582     
   5.8800000000000005E-002    -1.6148997679358503     
   5.9100000000000000E-002    -1.8765753843229214     
   5.9400000000000008E-002    -2.1106905487356742     
   5.9700000000000003E-002    -2.3053492107787386     
   6.0000000000000012E-002    -2.4496788462351207     
   6.0300000000000006E-002    -2.5340299764036138     
   6.0600000000000001E-002    -2.5518629388520306     
   6.0900000000000010E-002    -2.4999781273392387     
   6.1200000000000004E-002    -2.3793702683486817     
   6.1500000000000013E-002    -2.1954939155693154     
   6.1800000000000008E-002    -1.9577582653378967     
   6.2100000000000002E-002    -1.6794774399172510     
   6.2399999999999997E-002    -1.3764460524872026     
   6.2700000000000006E-002    -1.0663902410959587     
   6.3000000000000000E-002   -0.76724102895917867     
   6.3300000000000009E-002   -0.49638854595378568     
   6.3600000000000004E-002   -0.26861679140221817     
   6.3899999999999998E-002    -9.5925783769044232E-002
   6.4199999999999993E-002     1.3988291692706522E-002
   6.4500000000000002E-002     5.8092322776220597E-002
   6.4800000000000010E-002     3.8305101817995346E-002
   6.5100000000000005E-002    -3.8215052968341406E-002
   6.5400000000000000E-002   -0.15991767003507679     
   6.5700000000000008E-002   -0.31105152879287851     
   6.5999999999999989E-002   -0.47306021203119653     
   6.6299999999999998E-002   -0.62568691171319191     
   6.6600000000000006E-002   -0.74871602000512238     
   6.6900000000000001E-002   -0.82362358106429978     
   6.7199999999999996E-002   -0.83542745707353538     
   6.7500000000000004E-002   -0.77392875822897922     
   6.7800000000000013E-002   -0.63520291610539137     
   6.8099999999999994E-002   -0.42269746889513027     
   6.8400000000000002E-002   -0.14660580254206121     
   6.8700000000000011E-002    0.17576501336813971     
   6.8999999999999992E-002    0.52206742904906578     
   6.9300000000000000E-002    0.86598093933475340     
   6.9600000000000009E-002     1.1803524953874114     
   6.9900000000000004E-002     1.4394787008495979     
   7.0199999999999999E-002     1.6219902178173840     
   7.0500000000000007E-002     1.7131602652849185     
   7.0800000000000016E-002     1.7065007993037615     
   7.1099999999999997E-002     1.6051232147911014     
   7.1400000000000005E-002     1.4214192886672596     
   7.1700000000000000E-002     1.1760927002487338     
   7.1999999999999995E-002    0.89653708273371890     
   7.2300000000000003E-002    0.61349628134072809     
   7.2600000000000012E-002    0.35877411390245689     
   7.2900000000000006E-002    0.16153224420261747     
   7.3200000000000001E-002     4.5540942028415743E-002
   7.3499999999999996E-002     2.7099513543383746E-002
   7.3800000000000004E-002    0.11280514023517151     
   7.4099999999999999E-002    0.29980461208707704     
   7.4400000000000008E-002    0.57546843986914964     
   7.4700000000000003E-002    0.91908584955545891     
   7.5000000000000011E-002     1.3035241988955719     
   7.5299999999999992E-002     1.6976042202458659     
   7.5600000000000001E-002     2.0689493649994488     
   7.5900000000000009E-002     2.3858462342114106     
   7.6200000000000004E-002     2.6201636411711862     
   7.6499999999999999E-002     2.7486012189848301     
   7.6800000000000007E-002     2.7542119251722448     
   7.7099999999999988E-002     2.6275689650857186     
   7.7399999999999997E-002     2.3666856221660848     
   7.7700000000000005E-002     1.9778210413583963     
   7.8000000000000014E-002     1.4746767536022924     
   7.8299999999999995E-002    0.87828188050413680     
   7.8600000000000003E-002    0.21633166965788964     
   7.8900000000000012E-002   -0.47841898320546405     
   7.9199999999999993E-002    -1.1684654168435085     
   7.9500000000000001E-002    -1.8144654216375518     
   7.9800000000000010E-002    -2.3766992266683005     
   8.0100000000000018E-002    -2.8172435554605455     
   8.0399999999999999E-002    -3.1037727705212101     
   8.0700000000000008E-002    -3.2105169878146480     
   8.1000000000000003E-002    -3.1224436105162838     
   8.1299999999999997E-002    -2.8360237352233781     
   8.1600000000000006E-002    -2.3611527039128779     
   8.1900000000000014E-002    -1.7210512532311308     
   8.2199999999999995E-002   -0.95157145040696589     
   8.2500000000000004E-002    -9.9238408398280464E-002
   8.2799999999999999E-002    0.78163166411135221     
   8.3100000000000007E-002     1.6331067689982857     
   8.3400000000000002E-002     2.3974640649420547     
   8.3700000000000011E-002     3.0228015942322135     
   8.4000000000000005E-002     3.4656266305364407     
   8.4300000000000000E-002     3.6962972725392600     
   8.4599999999999995E-002     3.7000998158985583     
   8.4900000000000003E-002     3.4786889727298753     
   8.5199999999999998E-002     3.0505340101264893     
   8.5500000000000007E-002     2.4479563900649648     
   8.5800000000000001E-002     1.7151783901773037     
   8.6100000000000010E-002    0.90358777297454029     
   8.6399999999999991E-002     6.7377370907636125E-002
   8.6699999999999999E-002   -0.74077389479067590     
   8.7000000000000008E-002    -1.4751070488247338     
   8.7300000000000003E-002    -2.0991716583388715     
   8.7599999999999997E-002    -2.5893820860193277     
   8.7900000000000006E-002    -2.9351190755630934     
   8.8200000000000014E-002    -3.1396434213787039     
   8.8499999999999995E-002    -3.2180349356299924     
   8.8800000000000004E-002    -3.1944618678221621     
   8.9100000000000013E-002    -3.0997916618172927     
   8.9399999999999993E-002    -2.9666669372523660     
   8.9700000000000002E-002    -2.8272091967296689     
   9.0000000000000011E-002    -2.7089512472764854     
   9.0299999999999991E-002    -2.6323657723322764     
   9.0600000000000000E-002    -2.6095407034440958     
   9.0900000000000009E-002    -2.6430669481717910     
   9.1200000000000017E-002    -2.7265683561683556     
   9.1499999999999998E-002    -2.8456298481474267     
   9.1800000000000007E-002    -2.9796353309561421     
   9.2100000000000001E-002    -3.1040088454786554     
   9.2399999999999996E-002    -3.1923083728565755     
   9.2700000000000005E-002    -3.2196148728800162     
   9.3000000000000013E-002    -3.1637105662826177     
   9.3300000000000008E-002    -3.0085003841674505     
   9.3600000000000003E-002    -2.7444104245807606     
   9.3899999999999997E-002    -2.3697503945707079     
   9.4200000000000006E-002    -1.8913476775348945     
   9.4500000000000001E-002    -1.3242098130973805     
   9.4800000000000009E-002   -0.69028409390880141     
   9.5100000000000004E-002    -1.7911578214969082E-002
   9.5399999999999999E-002    0.66158543566184169     
   9.5699999999999993E-002     1.3143941882187713     
   9.6000000000000002E-002     1.9086695901851649     
   9.6300000000000011E-002     2.4153064948606331     
   9.6600000000000005E-002     2.8118104445685277     
   9.6900000000000000E-002     3.0826047405261403     
   9.7200000000000009E-002     3.2220441129665751     
   9.7499999999999989E-002     3.2336631410348073     
   9.7799999999999998E-002     3.1300799642599957     
   9.8100000000000007E-002     2.9330451677641696     
   9.8400000000000015E-002     2.6697399143085434     
   9.8699999999999996E-002     2.3716300416118692     
   9.9000000000000005E-002     2.0717573532887297     
   9.9300000000000013E-002     1.8004668693605548     
   9.9599999999999994E-002     1.5846314049560508     
   9.9900000000000003E-002     1.4436183477296765     
  0.10020000000000001          1.3892341260042749     
  0.10049999999999999          1.4231096625967166     
  0.10080000000000000          1.5386620001721885     
  0.10110000000000001          1.7190212673756053     
  0.10140000000000000          1.9417454892053678     
  0.10170000000000000          2.1771407151200095     
  0.10200000000000001          2.3928839551776617     
  0.10230000000000002          2.5550498940776940     
  0.10260000000000000          2.6312888824049936     
  0.10290000000000001          2.5917133541104587     
  0.10320000000000000          2.4133486507707915     
  0.10350000000000001          2.0805708318084588     
  0.10380000000000000          1.5876577605535878     
  0.10410000000000001         0.94160217104196531     
  0.10440000000000001         0.16203314715873601     
  0.10470000000000000        -0.71564073415676765     
  0.10500000000000000         -1.6418619656086910     
  0.10530000000000000         -2.5530641030016716     
  0.10560000000000000         -3.3737811283673897     
  0.10590000000000001         -4.0219572664091272     
  0.10620000000000000         -4.4136376970244839     
  0.10650000000000001         -4.4712424734548675     
  0.10679999999999999         -4.1324452568366876     
  0.10710000000000000         -3.3589777852815614     
  0.10740000000000001         -2.1447453221451678     
  0.10770000000000000        -0.52366883983821433     
  0.10800000000000000          1.4281649178678055     
  0.10830000000000001          3.5909252161792753     
  0.10859999999999999          5.8079407852841989     
  0.10890000000000000          7.8924480302961761     
  0.10920000000000001          9.6451420794871332     
  0.10950000000000001          10.867759930263935     
  0.10979999999999999          11.385971903904643     
  0.11009999999999999          11.066170677887563     
  0.11040000000000001          9.8335456893385622     
  0.11070000000000001          7.6853135363146325     
  0.11100000000000000          4.6967689124824163     
  0.11130000000000000          1.0211288835139101     
  0.11160000000000002         -3.1179310678896370     
  0.11190000000000001         -7.4425815083768692     
  0.11220000000000001         -11.640754745246092     
  0.11250000000000000         -15.393340918761272     
  0.11280000000000000         -18.400201159412561     
  0.11309999999999999         -20.407014267767234     
  0.11340000000000001         -21.227278992284695     
  0.11369999999999998         -20.759326487961403     
  0.11400000000000000         -18.996140831135701     
  0.11430000000000000         -16.024291835301625     
  0.11460000000000002         -12.019258396943954     
  0.11489999999999999         -7.2272915980393559     
  0.11520000000000001         -1.9475547354676830     
  0.11550000000000001          3.4938616519604206     
  0.11580000000000000          8.7686433626829494     
  0.11609999999999999          13.570227010248960     
  0.11640000000000002          17.635185354255626     
  0.11670000000000001          20.757896576189626     
  0.11700000000000001          22.801790423488661     
  0.11730000000000000          23.700518054462446     
  0.11760000000000000          23.458846634535359     
  0.11789999999999999          22.142299065039030     
  0.11820000000000001          19.868214627918746     
  0.11850000000000001          16.792392875460152     
  0.11880000000000000          13.094244554978822     
  0.11910000000000000          8.9656309642990237     
  0.11940000000000002          4.5966976047240280     
  0.11970000000000001         0.16957546927897482     
  0.12000000000000001         -4.1513589957177377     
  0.12030000000000000         -8.2216098228502759     
  0.12060000000000000         -11.920441339233527     
  0.12089999999999999         -15.149438745831066     
  0.12119999999999999         -17.833739109299607     
  0.12150000000000001         -19.918362609573478     
  0.12180000000000001         -21.368476699990040     
  0.12210000000000000         -22.164387485637860     
  0.12239999999999999         -22.306169002760626     
  0.12270000000000002         -21.803599518112261     
  0.12300000000000001         -20.685852068489400     
  0.12330000000000001         -18.992012099449369     
  0.12360000000000000         -16.778142291776994     
  0.12390000000000000         -14.112492082156209     
  0.12419999999999999         -11.076157372125346     
  0.12450000000000001         -7.7644277949106240     
  0.12480000000000001         -4.2790781601624133     
  0.12509999999999999        -0.73243353531481104     
  0.12540000000000001          2.7619088775719387     
  0.12570000000000003          6.0925151180364585     
  0.12600000000000000          9.1510041072592507     
  0.12630000000000002          11.846255613966555     
  0.12659999999999999          14.097520898528007     
  0.12690000000000001          15.851934378253127     
  0.12719999999999998          17.075850586306117     
  0.12750000000000000          17.762924605476574     
  0.12780000000000002          17.932825919991195     
  0.12809999999999999          17.625981239912218     
  0.12840000000000001          16.905288952019013     
  0.12869999999999998          15.843740214009038     
  0.12900000000000000          14.526086982688216     
  0.12930000000000003          13.036316179512658     
  0.12959999999999999          11.454735942266545     
  0.12990000000000002          9.8533486529722900     
  0.13019999999999998          8.2872562972859747     
  0.13050000000000000          6.7996097766226189     
  0.13080000000000003          5.4114288715716574     
  0.13109999999999999          4.1315054146332777     
  0.13140000000000002          2.9506033823945161     
  0.13169999999999998          1.8491231663473724     
  0.13200000000000001         0.79956091463212875     
  0.13229999999999997        -0.22958742879059835     
  0.13260000000000000         -1.2683914217742287     
  0.13290000000000002         -2.3428792022859564     
  0.13319999999999999         -3.4707640413254452     
  0.13350000000000001         -4.6578607395847929     
  0.13380000000000003         -5.8990821592324645     
  0.13410000000000000         -7.1747548591000641     
  0.13440000000000002         -8.4528199840111800     
  0.13469999999999999         -9.6916430548903030     
  0.13500000000000001         -10.839617958527501     
  0.13529999999999998         -11.841453989314406     
  0.13560000000000000         -12.641398023198892     
  0.13590000000000002         -13.186639339763651     
  0.13619999999999999         -13.433483306933503     
  0.13650000000000001         -13.350419684778885     
  0.13680000000000003         -12.920656580377791     
  0.13710000000000000         -12.145681950692131     
  0.13740000000000002         -11.045524484379358     
  0.13769999999999999         -9.6569288819419405     
  0.13800000000000001         -8.0341609612230052     
  0.13829999999999998         -6.2439574957177069     
  0.13860000000000000         -4.3607071152420378     
  0.13890000000000002         -2.4642084960534336     
  0.13919999999999999        -0.63233132180180163     
  0.13950000000000001          1.0642182789540913     
  0.13979999999999998          2.5629912434520463     
  0.14010000000000000          3.8184833118163630     
  0.14040000000000002          4.7995192146191545     
  0.14069999999999999          5.4938138864628270     
  0.14100000000000001          5.9071324099963327     
  0.14130000000000004          6.0602624036747859     
  0.14160000000000000          5.9900312028069891     
  0.14189999999999997          5.7425531062145589     
  0.14219999999999999          5.3724348657937568     
  0.14250000000000002          4.9365763985069027     
  0.14279999999999998          4.4921487278282326     
  0.14310000000000000          4.0902891622542548     
  0.14339999999999997          3.7739425635953872     
  0.14369999999999999          3.5754673144461595     
  0.14400000000000002          3.5128590667218909     
  0.14429999999999998          3.5883607456188251     
  0.14460000000000001          3.7918353784994023     
  0.14490000000000003          4.0949860536488192     
  0.14520000000000000          4.4604001515459917     
  0.14550000000000002          4.8386445369746491     
  0.14579999999999999          5.1772024020865874     
  0.14610000000000001          5.4198663634548812     
  0.14640000000000003          5.5180983558477266     
  0.14670000000000000          5.4284752304836719     
  0.14699999999999996          5.1230149956904265     
  0.14729999999999999          4.5895022102012444     
  0.14760000000000001          3.8338996814146542     
  0.14789999999999998          2.8813517263539903     
  0.14820000000000000          1.7741732421778100     