  -1.4999999999999999E-002     0.0000000000000000     
  -1.4700000000000000E-002     0.0000000000000000     
  -1.4400000000000000E-002     0.0000000000000000     
  -1.4100000000000000E-002     0.0000000000000000     
  -1.3800000000000000E-002     0.0000000000000000     
  -1.3500000000000000E-002     0.0000000000000000     
  -1.3200000000000000E-002     0.0000000000000000     
  -1.2899999999999998E-002     0.0000000000000000     
  -1.2600000000000000E-002     0.0000000000000000     
  -1.2299999999999998E-002     0.0000000000000000     
  -1.2000000000000000E-002     0.0000000000000000     
  -1.1699999999999999E-002     0.0000000000000000     
  -1.1399999999999999E-002     0.0000000000000000     
  -1.1099999999999999E-002     0.0000000000000000     
  -1.0799999999999999E-002     0.0000000000000000     
  -1.0499999999999999E-002     0.0000000000000000     
  -1.0199999999999999E-002     0.0000000000000000     
  -9.8999999999999991E-003     0.0000000000000000     
  -9.5999999999999992E-003     0.0000000000000000     
  -9.2999999999999992E-003     0.0000000000000000     
  -8.9999999999999993E-003     0.0000000000000000     
  -8.6999999999999994E-003     0.0000000000000000     
  -8.3999999999999995E-003     0.0000000000000000     
  -8.0999999999999996E-003     0.0000000000000000     
  -7.7999999999999988E-003     0.0000000000000000     
  -7.4999999999999997E-003     0.0000000000000000     
  -7.1999999999999998E-003     0.0000000000000000     
  -6.8999999999999981E-003     0.0000000000000000     
  -6.5999999999999982E-003     0.0000000000000000     
  -6.3000000000000000E-003     0.0000000000000000     
  -6.0000000000000001E-003     0.0000000000000000     
  -5.6999999999999985E-003     0.0000000000000000     
  -5.3999999999999986E-003     0.0000000000000000     
  -5.1000000000000004E-003     0.0000000000000000     
  -4.7999999999999987E-003     0.0000000000000000     
  -4.5000000000000005E-003     0.0000000000000000     
  -4.1999999999999989E-003     0.0000000000000000     
  -3.8999999999999990E-003     0.0000000000000000     
  -3.5999999999999990E-003     0.0000000000000000     
  -3.2999999999999991E-003     0.0000000000000000     
  -2.9999999999999992E-003     0.0000000000000000     
  -2.6999999999999993E-003     0.0000000000000000     
  -2.3999999999999994E-003     0.0000000000000000     
  -2.0999999999999977E-003     0.0000000000000000     
  -1.7999999999999995E-003     0.0000000000000000     
  -1.4999999999999979E-003     0.0000000000000000     
  -1.1999999999999997E-003     0.0000000000000000     
  -8.9999999999999976E-004     0.0000000000000000     
  -5.9999999999999810E-004     0.0000000000000000     
  -2.9999999999999992E-004     0.0000000000000000     
   0.0000000000000000          0.0000000000000000     
   3.0000000000000165E-004     0.0000000000000000     
   5.9999999999999984E-004     0.0000000000000000     
   9.0000000000000149E-004     0.0000000000000000     
   1.2000000000000031E-003     0.0000000000000000     
   1.5000000000000013E-003     0.0000000000000000     
   1.8000000000000030E-003     0.0000000000000000     
   2.1000000000000012E-003     0.0000000000000000     
   2.3999999999999994E-003     0.0000000000000000     
   2.7000000000000010E-003     0.0000000000000000     
   2.9999999999999992E-003     0.0000000000000000     
   3.3000000000000008E-003     0.0000000000000000     
   3.6000000000000025E-003     0.0000000000000000     
   3.9000000000000007E-003     0.0000000000000000     
   4.2000000000000023E-003     0.0000000000000000     
   4.5000000000000005E-003     0.0000000000000000     
   4.7999999999999987E-003     0.0000000000000000     
   5.1000000000000004E-003     0.0000000000000000     
   5.4000000000000020E-003     0.0000000000000000     
   5.7000000000000037E-003     0.0000000000000000     
   5.9999999999999984E-003     0.0000000000000000     
   6.3000000000000000E-003     0.0000000000000000     
   6.6000000000000017E-003     0.0000000000000000     
   6.9000000000000034E-003     0.0000000000000000     
   7.2000000000000015E-003     0.0000000000000000     
   7.5000000000000032E-003     0.0000000000000000     
   7.8000000000000014E-003     0.0000000000000000     
   8.0999999999999996E-003     0.0000000000000000     
   8.4000000000000012E-003     0.0000000000000000     
   8.7000000000000029E-003     0.0000000000000000     
   9.0000000000000011E-003     0.0000000000000000     
   9.2999999999999992E-003     0.0000000000000000     
   9.6000000000000009E-003     0.0000000000000000     
   9.8999999999999991E-003     0.0000000000000000     
   1.0200000000000001E-002     0.0000000000000000     
   1.0500000000000002E-002     0.0000000000000000     
   1.0800000000000004E-002     0.0000000000000000     
   1.1099999999999999E-002     0.0000000000000000     
   1.1400000000000000E-002     0.0000000000000000     
   1.1700000000000002E-002     0.0000000000000000     
   1.2000000000000004E-002     0.0000000000000000     
   1.2300000000000002E-002     0.0000000000000000     
   1.2600000000000000E-002     0.0000000000000000     
   1.2900000000000002E-002     0.0000000000000000     
   1.3200000000000000E-002     0.0000000000000000     
   1.3500000000000002E-002     0.0000000000000000     
   1.3800000000000003E-002     0.0000000000000000     
   1.4100000000000001E-002     0.0000000000000000     
   1.4400000000000000E-002     0.0000000000000000     
   1.4700000000000001E-002     0.0000000000000000     
   1.4999999999999999E-002     0.0000000000000000     
   1.5300000000000001E-002     0.0000000000000000     
   1.5600000000000003E-002     0.0000000000000000     
   1.5899999999999997E-002     0.0000000000000000     
   1.6199999999999999E-002     0.0000000000000000     
   1.6500000000000001E-002     0.0000000000000000     
   1.6800000000000002E-002     0.0000000000000000     
   1.7100000000000004E-002     0.0000000000000000     
   1.7400000000000006E-002     0.0000000000000000     
   1.7700000000000000E-002     0.0000000000000000     
   1.8000000000000002E-002     0.0000000000000000     
   1.8300000000000004E-002     0.0000000000000000     
   1.8600000000000005E-002     0.0000000000000000     
   1.8900000000000000E-002     0.0000000000000000     
   1.9200000000000002E-002     0.0000000000000000     
   1.9500000000000003E-002     0.0000000000000000     
   1.9799999999999998E-002     0.0000000000000000     
   2.0100000000000000E-002     0.0000000000000000     
   2.0400000000000001E-002     0.0000000000000000     
   2.0700000000000003E-002     0.0000000000000000     
   2.0999999999999998E-002     0.0000000000000000     
   2.1299999999999999E-002     0.0000000000000000     
   2.1600000000000001E-002     0.0000000000000000     
   2.1900000000000003E-002     0.0000000000000000     
   2.2200000000000004E-002     0.0000000000000000     
   2.2500000000000006E-002     0.0000000000000000     
   2.2800000000000001E-002     0.0000000000000000     
   2.3100000000000002E-002     0.0000000000000000     
   2.3400000000000004E-002     0.0000000000000000     
   2.3699999999999999E-002     0.0000000000000000     
   2.4000000000000000E-002     0.0000000000000000     
   2.4300000000000002E-002     0.0000000000000000     
   2.4599999999999997E-002     0.0000000000000000     
   2.4900000000000005E-002     0.0000000000000000     
   2.5200000000000000E-002     0.0000000000000000     
   2.5499999999999995E-002     0.0000000000000000     
   2.5800000000000003E-002     0.0000000000000000     
   2.6099999999999998E-002     0.0000000000000000     
   2.6400000000000007E-002     0.0000000000000000     
   2.6700000000000002E-002     0.0000000000000000     
   2.6999999999999996E-002     0.0000000000000000     
   2.7300000000000005E-002     0.0000000000000000     
   2.7600000000000000E-002     0.0000000000000000     
   2.7900000000000008E-002     0.0000000000000000     
   2.8200000000000003E-002     0.0000000000000000     
   2.8499999999999998E-002     0.0000000000000000     
   2.8800000000000006E-002     0.0000000000000000     
   2.9100000000000001E-002     0.0000000000000000     
   2.9400000000000003E-002     0.0000000000000000     
   2.9700000000000004E-002     0.0000000000000000     
   3.0000000000000006E-002     0.0000000000000000     
   3.0300000000000001E-002     0.0000000000000000     
   3.0600000000000002E-002     0.0000000000000000     
   3.0900000000000004E-002     0.0000000000000000     
   3.1199999999999999E-002     0.0000000000000000     
   3.1500000000000007E-002     0.0000000000000000     
   3.1800000000000002E-002     0.0000000000000000     
   3.2099999999999997E-002     0.0000000000000000     
   3.2400000000000005E-002     0.0000000000000000     
   3.2700000000000000E-002     0.0000000000000000     
   3.3000000000000002E-002     0.0000000000000000     
   3.3300000000000003E-002     0.0000000000000000     
   3.3599999999999998E-002     0.0000000000000000     
   3.3900000000000000E-002     0.0000000000000000     
   3.4200000000000001E-002     0.0000000000000000     
   3.4500000000000003E-002     0.0000000000000000     
   3.4799999999999998E-002     0.0000000000000000     
   3.5099999999999999E-002     0.0000000000000000     
   3.5400000000000001E-002    -5.1579374092977521E-044
   3.5699999999999996E-002     3.2796600563174238E-043
   3.6000000000000004E-002     1.7752381209754808E-037
   3.6299999999999999E-002     2.4315812224579240E-037
   3.6600000000000008E-002     2.3504053760963795E-035
   3.6900000000000002E-002    -1.2767879787741635E-034
   3.7199999999999997E-002     1.1040723299166341E-033
   3.7500000000000006E-002    -5.1550341939879580E-033
   3.7800000000000000E-002     1.6300804037809346E-032
   3.8100000000000009E-002    -4.3544913402776230E-032
   3.8400000000000004E-002     9.2024392619625983E-032
   3.8699999999999998E-002    -1.2565982961651396E-031
   3.9000000000000007E-002    -4.2470728185499096E-032
   3.9300000000000002E-002     9.7675882700367590E-031
   3.9600000000000003E-002    -3.8422270902731548E-030
   3.9900000000000005E-002     9.9809527332446860E-030
   4.0200000000000000E-002    -1.7913447838940324E-029
   4.0500000000000001E-002     1.4220469875278842E-029
   4.0800000000000003E-002     4.3948805943957659E-029
   4.1100000000000005E-002    -2.4356711685156171E-028
   4.1399999999999999E-002     6.7547534032519702E-028
   4.1700000000000008E-002    -1.2158904506611634E-027
   4.2000000000000003E-002     9.7693100808951227E-028
   4.2299999999999997E-002     2.4638010571528010E-027
   4.2600000000000006E-002    -1.2949853885553383E-026
   4.2900000000000001E-002     3.1810435358740227E-026
   4.3200000000000002E-002    -4.6497311496542440E-026
   4.3500000000000004E-002     1.6094952088243719E-026
   4.3799999999999999E-002     1.0974108392412547E-025
   4.4100000000000000E-002    -2.2134122961867651E-025
   4.4400000000000002E-002    -5.5865357285242357E-025
   4.4700000000000004E-002     5.6379626589098422E-024
   4.4999999999999998E-002    -2.6053271960762762E-023
   4.5300000000000000E-002     9.6293067971406070E-023
   4.5600000000000002E-002    -3.2369112229701474E-022
   4.5899999999999996E-002     1.0265040438117788E-021
   4.6200000000000005E-002    -3.0310060584861495E-021
   4.6500000000000000E-002     7.9321142979779910E-021
   4.6799999999999994E-002    -1.6426632788243019E-020
   4.7100000000000003E-002     1.5951682331629152E-020
   4.7399999999999998E-002     7.2355913523369997E-020
   4.7700000000000006E-002    -5.6528699437876215E-019
   4.8000000000000001E-002     2.4361397775181342E-018
   4.8300000000000010E-002    -7.9168780742081698E-018
   4.8600000000000004E-002     1.9779390745245673E-017
   4.8899999999999999E-002    -3.2437359331701715E-017
   4.9200000000000008E-002    -4.6995177467950643E-018
   4.9500000000000002E-002     2.8289432729077216E-016
   4.9800000000000011E-002    -1.2613668441939457E-015
   5.0100000000000006E-002     3.4370571229446312E-015
   5.0400000000000000E-002    -5.3167563437885170E-015
   5.0700000000000009E-002    -3.1628377777454019E-015
   5.1000000000000004E-002     5.1041385241987020E-014
   5.1299999999999998E-002    -1.7547118585740852E-013
   5.1600000000000007E-002     3.0131311282480005E-013
   5.1900000000000002E-002     1.0995289568377782E-013
   5.2200000000000010E-002    -2.3779205558811006E-012
   5.2500000000000005E-002     7.0871458672400105E-012
   5.2800000000000000E-002    -7.0196072083711484E-012
   5.3099999999999994E-002    -2.3333448063243879E-011
   5.3400000000000003E-002     1.0840743986031392E-010
   5.3699999999999998E-002    -1.4762627570411412E-010
   5.4000000000000006E-002    -2.6703000310972576E-010
   5.4300000000000001E-002     1.4584388081943738E-009
   5.4599999999999996E-002    -1.6124572880700447E-009
   5.4900000000000004E-002    -4.8145029507825120E-009
   5.5199999999999999E-002     1.6994600051036497E-008
   5.5499999999999994E-002    -1.2132977840254903E-009
   5.5800000000000002E-002    -8.4763983439096449E-008
   5.6099999999999997E-002     9.6680191526869535E-008
   5.6400000000000006E-002     3.1981579353152493E-007
   5.6700000000000000E-002    -6.6589134178925099E-007
   5.6999999999999995E-002    -1.3150819117546780E-006
   5.7300000000000004E-002     3.8882673656054039E-006
   5.7599999999999998E-002     1.4874145615189750E-005
   5.7900000000000007E-002     2.2583635942214603E-005
   5.8200000000000002E-002     2.4327911798490520E-005
   5.8499999999999996E-002     3.0113787644903555E-005
   5.8800000000000005E-002     4.6736236941567733E-005
   5.9100000000000000E-002     7.2269038357498529E-005
   5.9400000000000008E-002     1.0825369801791755E-004
   5.9700000000000003E-002     1.6195856693478094E-004
   6.0000000000000012E-002     2.3895272134632275E-004
   6.0300000000000006E-002     3.4378355440032796E-004
   6.0600000000000001E-002     4.8712198521458594E-004
   6.0900000000000010E-002     6.8414350828728012E-004
   6.1200000000000004E-002     9.4160536402090390E-004
   6.1500000000000013E-002     1.2597247241471110E-003
   6.1800000000000008E-002     1.6492003313409523E-003
   6.2100000000000002E-002     2.1213190595525027E-003
   6.2399999999999997E-002     2.6650105096994660E-003
   6.2700000000000006E-002     3.2525120719563696E-003
   6.3000000000000000E-002     3.8446092457703105E-003
   6.3300000000000009E-002     4.3764184167895438E-003
   6.3600000000000004E-002     4.7503919275640859E-003
   6.3899999999999998E-002     4.8330076911910665E-003
   6.4199999999999993E-002     4.4492385305680317E-003
   6.4500000000000002E-002     3.3891368634632662E-003
   6.4800000000000010E-002     1.4186254716410098E-003
   6.5100000000000005E-002    -1.7082338388504158E-003
   6.5400000000000000E-002    -6.2337186977950770E-003
   6.5700000000000008E-002    -1.2373267649046745E-002
   6.5999999999999989E-002    -2.0268898421756734E-002
   6.6299999999999998E-002    -2.9923705335193108E-002
   6.6600000000000006E-002    -4.1151676263396060E-002
   6.6900000000000001E-002    -5.3550135264899823E-002
   6.7199999999999996E-002    -6.6471762859984712E-002
   6.7500000000000004E-002    -7.8985996436177500E-002
   6.7800000000000013E-002    -8.9873112619925172E-002
   6.8099999999999994E-002    -9.7681127365057893E-002
   6.8400000000000002E-002   -0.10082274663160568     
   6.8700000000000011E-002    -9.7668841368880627E-002
   6.8999999999999992E-002    -8.6698673573864959E-002
   6.9300000000000000E-002    -6.6711224553776149E-002
   6.9600000000000009E-002    -3.7008929975594747E-002
   6.9900000000000004E-002     2.4114809651176981E-003
   7.0199999999999999E-002     5.0710718994592383E-002
   7.0500000000000007E-002    0.10612838700542890     
   7.0800000000000016E-002    0.16593916693175223     
   7.1099999999999997E-002    0.22656393024205890     
   7.1400000000000005E-002    0.28376972642742465     
   7.1700000000000000E-002    0.33295375071943356     
   7.1999999999999995E-002    0.36955586036332788     
   7.2300000000000003E-002    0.38947117288017341     
   7.2600000000000012E-002    0.38950666745626100     
   7.2900000000000006E-002    0.36782741509980710     
   7.3200000000000001E-002    0.32423761454930311     
   7.3499999999999996E-002    0.26036998604166489     
   7.3800000000000004E-002    0.17974005621978351     
   7.4099999999999999E-002     8.7538450860548442E-002
   7.4400000000000008E-002    -9.7660701740452226E-003
   7.4700000000000003E-002   -0.10486156485440426     
   7.5000000000000011E-002   -0.19032858296858307     
   7.5299999999999992E-002   -0.25932544446988276     
   7.5600000000000001E-002   -0.30621817681376118     
   7.5900000000000009E-002   -0.32731407850605887     
   7.6200000000000004E-002   -0.32117360797936734     
   7.6499999999999999E-002   -0.28888511626984031     
   7.6800000000000007E-002   -0.23413014381351810     
   7.7099999999999988E-002   -0.16272963555162256     
   7.7399999999999997E-002    -8.2316517585621488E-002
   7.7700000000000005E-002    -1.5892726381114724E-003
   7.8000000000000014E-002     7.0656031571595793E-002
   7.8299999999999995E-002    0.12615643460023609     
   7.8600000000000003E-002    0.15811716039290971     
   7.8900000000000012E-002    0.16197459418282348     
   7.9199999999999993E-002    0.13569404205506835     
   7.9500000000000001E-002     8.0197304723775426E-002
   7.9800000000000010E-002    -7.1045219085040198E-004
   8.0100000000000018E-002   -0.10076057882637721     
   8.0399999999999999E-002   -0.21162892848306911     
   8.0700000000000008E-002   -0.32372540206832573     
   8.1000000000000003E-002   -0.42706403108886493     
   8.1299999999999997E-002   -0.51211005426599376     
   8.1600000000000006E-002   -0.57069915518168168     
   8.1900000000000014E-002   -0.59669148916303394     
   8.2199999999999995E-002   -0.58647763735863156     
   8.2500000000000004E-002   -0.53942263146915015     
   8.2799999999999999E-002   -0.45779511367317222     
   8.3100000000000007E-002   -0.34657657195523728     
   8.3400000000000002E-002   -0.21311689975110104     
   8.3700000000000011E-002    -6.6494815761302728E-002
   8.4000000000000005E-002     8.3306706666385733E-002
   8.4300000000000000E-002    0.22603653292489234     
   8.4599999999999995E-002    0.35196876453480735     
   8.4900000000000003E-002    0.45274922186705596     
   8.5199999999999998E-002    0.52170121621117593     
   8.5500000000000007E-002    0.55452573271880601     
   8.5800000000000001E-002    0.54939967386122912     
   8.6100000000000010E-002    0.50682973881168980     
   8.6399999999999991E-002    0.43000328583684633     
   8.6699999999999999E-002    0.32407322588392840     
   8.7000000000000008E-002    0.19583718562484825     
   8.7300000000000003E-002     5.3630762731759943E-002
   8.7599999999999997E-002    -9.3729740893114699E-002
   8.7900000000000006E-002   -0.23713722726470005     
   8.8200000000000014E-002   -0.36764150772666132     
   8.8499999999999995E-002   -0.47732525993032765     
   8.8800000000000004E-002   -0.55923557231040721     
   8.9100000000000013E-002   -0.60803294159621502     
   8.9399999999999993E-002   -0.62031543256018473     
   8.9700000000000002E-002   -0.59435725240260484     
   9.0000000000000011E-002   -0.53074550681410970     
   9.0299999999999991E-002   -0.43212947317041406     
   9.0600000000000000E-002   -0.30284756504897914     
   9.0900000000000009E-002   -0.14931380834982627     
   9.1200000000000017E-002     2.0806259576685963E-002
   9.1499999999999998E-002    0.19876019579580670     
   9.1800000000000007E-002    0.37499323428582698     
   9.2100000000000001E-002    0.54007893760003900     
   9.2399999999999996E-002    0.68477499465681790     
   9.2700000000000005E-002    0.80083042389521863     
   9.3000000000000013E-002    0.88160485054907667     
   9.3300000000000008E-002    0.92211204813986625     
   9.3600000000000003E-002    0.91980207029512850     
   9.3899999999999997E-002    0.87462675642741150     
   9.4200000000000006E-002    0.78900718768084355     
   9.4500000000000001E-002    0.66808575469382447     
   9.4800000000000009E-002    0.51916533780000762     
   9.5100000000000004E-002    0.35142755571972595     
   9.5399999999999999E-002    0.17550294148429010     
   9.5699999999999993E-002     2.5155985128689122E-003
   9.6000000000000002E-002   -0.15640355634264694     
   9.6300000000000011E-002   -0.29106482872927092     
   9.6600000000000005E-002   -0.39300036459994492     
   9.6900000000000000E-002   -0.45596262863863618     
   9.7200000000000009E-002   -0.47663965892452920     
   9.7499999999999989E-002   -0.45483365744441856     
   9.7799999999999998E-002   -0.39350545513521251     
   9.8100000000000007E-002   -0.29868191600541066     
   9.8400000000000015E-002   -0.17883962523747582     
   9.8699999999999996E-002    -4.4378974916081233E-002
   9.9000000000000005E-002     9.3284978084645323E-002
   9.9300000000000013E-002    0.22267733379227389     
   9.9599999999999994E-002    0.33315598839582067     
   9.9900000000000003E-002    0.41585224756277034     
  0.10020000000000001         0.46424177197266853     
  0.10049999999999999         0.47471025519508203     
  0.10080000000000000         0.44682350713531810     
  0.10110000000000001         0.38300949322658562     
  0.10140000000000000         0.28841686265483263     
  0.10170000000000000         0.17025777740761477     
  0.10200000000000001          3.7005492242087414E-002
  0.10230000000000002        -0.10225590229618735     
  0.10260000000000000        -0.23888620628393709     
  0.10290000000000001        -0.36523708582713355     
  0.10320000000000000        -0.47525212043110809     
  0.10350000000000001        -0.56490021813883806     
  0.10380000000000000        -0.63220512735136258     
  0.10410000000000001        -0.67722260820878943     
  0.10440000000000001        -0.70181482899694592     
  0.10470000000000000        -0.70899736751698184     
  0.10500000000000000        -0.70255297293338848     
  0.10530000000000000        -0.68653040994033676     
  0.10560000000000000        -0.66454499829063218     
  0.10590000000000001        -0.63940733539397565     
  0.10620000000000000        -0.61290395127243236     
  0.10650000000000001        -0.58562970030886086     
  0.10679999999999999        -0.55698394648825722     
  0.10710000000000000        -0.52535992742818860     
  0.10740000000000001        -0.48853355539838972     
  0.10770000000000000        -0.44395828156860584     
  0.10800000000000000        -0.38929572630952630     
  0.10830000000000001        -0.32272946786377343     
  0.10859999999999999        -0.24332271494532567     
  0.10890000000000000        -0.15129324797748014     
  0.10920000000000001         -4.8023183200538139E-002
  0.10950000000000001          6.3832818896904564E-002
  0.10979999999999999         0.18064789391656927     
  0.11009999999999999         0.29803433911534882     
  0.11040000000000001         0.41122695679344978     
  0.11070000000000001         0.51535057878065882     
  0.11100000000000000         0.60598265968329612     
  0.11130000000000000         0.67947202749613944     
  0.11160000000000002         0.73308628616599669     
  0.11190000000000001         0.76534449866447229     
  0.11220000000000001         0.77597224518047314     
  0.11250000000000000         0.76593351168582702     
  0.11280000000000000         0.73721205996142647     
  0.11309999999999999         0.69262271931194719     
  0.11340000000000001         0.63547646822754889     
  0.11369999999999998         0.56928598720647772     
  0.11400000000000000         0.49748539782094547     
  0.11430000000000000         0.42298999312833635     
  0.11460000000000002         0.34826633246840760     
  0.11489999999999999         0.27500325383658358     
  0.11520000000000001         0.20401379445743065     
  0.11550000000000001         0.13567619038340251     
  0.11580000000000000          6.9808781608216477E-002
  0.11609999999999999          5.8080515806936649E-003
  0.11640000000000002         -5.6710875417903331E-002
  0.11670000000000001        -0.11785253000357032     
  0.11700000000000001        -0.17716182606461198     
  0.11730000000000000        -0.23339019541634051     
  0.11760000000000000        -0.28463062458447841     
  0.11789999999999999        -0.32788470199364345     
  0.11820000000000001        -0.35959335981226359     
  0.11850000000000001        -0.37606322593727071     
  0.11880000000000000        -0.37332579343242417     
  0.11910000000000000        -0.34803363558510630     
  0.11940000000000002        -0.29780721571740265     
  0.11970000000000001        -0.22142428107397930     
  0.12000000000000001        -0.11950094241177880     
  0.12030000000000000          5.5213651393023287E-003
  0.12060000000000000         0.14933434052873837     
  0.12089999999999999         0.30577427033392141     
  0.12119999999999999         0.46735331264698848     
  0.12150000000000001         0.62548315342680838     
  0.12180000000000001         0.77100831068080378     
  0.12210000000000000         0.89512669827022640     
  0.12239999999999999         0.98973578001690532     
  0.12270000000000002          1.0479543188968337     
  0.12300000000000001          1.0648384076389268     
  0.12330000000000001          1.0375664219372516     
  0.12360000000000000         0.96543496738178580     
  0.12390000000000000         0.85007178716758458     
  0.12419999999999999         0.69526094172700681     
  0.12450000000000001         0.50643998402025814     
  0.12480000000000001         0.29068803839078250     
  0.12509999999999999          5.5894409173074568E-002
  0.12540000000000001        -0.18946929175341237     
  0.12570000000000003        -0.43664097677674035     
  0.12600000000000000        -0.67723101270545838     
  0.12630000000000002        -0.90334027905319292     
  0.12659999999999999         -1.1077064267437868     
  0.12690000000000001         -1.2841454737939562     
  0.12719999999999998         -1.4273685212155311     
  0.12750000000000000         -1.5330854651720742     
  0.12780000000000002         -1.5984278915689991     
  0.12809999999999999         -1.6214355229190289     
  0.12840000000000001         -1.6014804839095116     
  0.12869999999999998         -1.5392342803361632     
  0.12900000000000000         -1.4363586898461509     
  0.12930000000000003         -1.2960735552930589     
  0.12959999999999999         -1.1227180947921149     
  0.12990000000000002        -0.92155569664826742     
  0.13019999999999998        -0.69914036829621873     
  0.13050000000000000        -0.46259963321647313     
  0.13080000000000003        -0.21964205593539740     
  0.13109999999999999          2.1514395658358158E-002
  0.13140000000000002         0.25321039790109529     
  0.13169999999999998         0.46780479177929440     
  0.13200000000000001         0.65833831044811153     
  0.13229999999999997         0.81921822014260837     
  0.13260000000000000         0.94563985012984009     
  0.13290000000000002          1.0344252596251691     
  0.13319999999999999          1.0841059688742996     
  0.13350000000000001          1.0942425726125558     
  0.13380000000000003          1.0662779800302711     
  0.13410000000000000          1.0029489980042305     
  0.13440000000000002         0.90785413788838998     
  0.13469999999999999         0.78587978840219097     
  0.13500000000000001         0.64248567545915491     
  0.13529999999999998         0.48355105229171175     
  0.13560000000000000         0.31535565557745193     
  0.13590000000000002         0.14413140434234617     
  0.13619999999999999         -2.3957623781561622E-002
  0.13650000000000001        -0.18300624394349768     
  0.13680000000000003        -0.32741093778889008     
  0.13710000000000000        -0.45200058894009121     
  0.13740000000000002        -0.55217134959458281     
  0.13769999999999999        -0.62407034573613962     
  0.13800000000000001        -0.66456746933253719     
  0.13829999999999998        -0.67154532501670583     
  0.13860000000000000        -0.64421945608743791     
  0.13890000000000002        -0.58308392550494947     
  0.13919999999999999        -0.49016615545241904     
  0.13950000000000001        -0.36929586356263422     
  0.13979999999999998        -0.22611628348574048     
  0.14010000000000000         -6.7677929411512780E-002
  0.14040000000000002          9.7419313922731371E-002
  0.14069999999999999         0.25960993669357069     
  0.14100000000000001         0.40891429603406210     
  0.14130000000000004         0.53538149345561670     
  0.14160000000000000         0.63018262076609688     
  0.14189999999999997         0.68600064165766272     
  0.14219999999999999         0.69777774443847107     
  0.14250000000000002         0.66350227234195391     
  0.14279999999999998         0.58416348370291238     
  0.14310000000000000         0.46408697696250362     
  0.14339999999999997         0.31081864052098479     
  0.14369999999999999         0.13445642504423708     
  0.14400000000000002         -5.2792832012966064E-002
  0.14429999999999998        -0.23758111755488479     
  0.14460000000000001        -0.40670454250514904     
  0.14490000000000003        -0.54768311626072785     
  0.14520000000000000        -0.64995687764186183     
  0.14550000000000002        -0.70582729084163898     
  0.14579999999999999        -0.71083914708928853     
  0.14610000000000001        -0.66421937417430743     
  0.14640000000000003        -0.56893890603759600     
  0.14670000000000000        -0.43125998542082594     
  0.14699999999999996        -0.26020097387318492     
  0.14729999999999999         -6.6908342240239602E-002
  0.14760000000000001         0.13638626161754352     
  0.14789999999999998         0.33735269308866145     
  0.14820000000000000         0.52427178506251093     