  -1.4999999999999999E-002     0.0000000000000000     
  -1.4700000000000000E-002    -1.9075836299841990E-025
  -1.4400000000000000E-002    -3.1741106916975848E-020
  -1.4100000000000000E-002    -4.5697032503275036E-018
  -1.3800000000000000E-002     2.0873353955482678E-016
  -1.3500000000000000E-002     1.1171896960969442E-015
  -1.3200000000000000E-002    -2.0144615837276744E-014
  -1.2899999999999998E-002     1.1653818091925966E-014
  -1.2600000000000000E-002     2.5307697006645233E-013
  -1.2299999999999998E-002    -1.8216955017597870E-013
  -1.2000000000000000E-002    -1.2383357592178896E-012
  -1.1699999999999999E-002    -9.2582538042106351E-013
  -1.1399999999999999E-002     6.7039921868942239E-012
  -1.1099999999999999E-002     4.3680420073951409E-012
  -1.0799999999999999E-002    -5.4850750543495910E-012
  -1.0499999999999999E-002    -3.5655132993001281E-011
  -1.0199999999999999E-002    -3.4725738907349330E-011
  -9.8999999999999991E-003     1.1134683577601127E-010
  -9.5999999999999992E-003     2.0257769135097000E-010
  -9.2999999999999992E-003    -1.5112667759143723E-010
  -8.9999999999999993E-003    -4.9226384876058462E-010
  -8.6999999999999994E-003    -1.1567598185772816E-011
  -8.3999999999999995E-003    -4.0234359170331273E-010
  -8.0999999999999996E-003     2.0316943462477691E-009
  -7.7999999999999988E-003     2.4996249477697110E-009
  -7.4999999999999997E-003    -4.2520476631760575E-009
  -7.1999999999999998E-003    -5.6600124929301524E-009
  -6.8999999999999981E-003     4.2427418267887908E-009
  -6.5999999999999982E-003    -1.3817278759769606E-009
  -6.3000000000000000E-003     6.9008694488778797E-009
  -6.0000000000000001E-003     3.0095315171747852E-008
  -5.6999999999999985E-003    -3.5486899673481498E-008
  -5.3999999999999986E-003    -4.9348767908166190E-008
  -5.1000000000000004E-003     4.5364389552627201E-008
  -4.7999999999999987E-003     3.6357538643635426E-009
  -4.5000000000000005E-003    -1.4840439685471226E-008
  -4.1999999999999989E-003     1.5790851331586933E-007
  -3.8999999999999990E-003    -5.1350705799113378E-008
  -3.5999999999999990E-003    -3.3080090318074467E-007
  -3.2999999999999991E-003     1.6240231020058271E-007
  -2.9999999999999992E-003     1.7751827113988243E-007
  -2.6999999999999993E-003    -2.8765572548566611E-007
  -2.3999999999999994E-003     4.1990374808297914E-007
  -2.0999999999999977E-003     3.6208260630362531E-007
  -1.7999999999999995E-003    -1.0665224298158950E-006
  -1.4999999999999979E-003    -6.2891214757816025E-008
  -1.1999999999999997E-003     1.1447989182458258E-006
  -8.9999999999999976E-004    -1.0812266910599147E-006
  -5.9999999999999810E-004    -4.9758761442374956E-008
  -2.9999999999999992E-004     2.1545962362364416E-006
   0.0000000000000000         -2.0649762419411881E-006
   3.0000000000000165E-004    -1.0166021453873202E-006
   5.9999999999999984E-004     3.7382173742067359E-006
   9.0000000000000149E-004    -2.3782284761279015E-006
   1.2000000000000031E-003    -2.5434582296117004E-006
   1.5000000000000013E-003     5.0406813282702644E-006
   1.8000000000000030E-003    -2.2772510179095074E-006
   2.1000000000000012E-003    -4.6790565318194584E-006
   2.3999999999999994E-003     4.4999739223517060E-006
   2.7000000000000010E-003     1.1529849222616762E-006
   2.9999999999999992E-003     6.1190994374748780E-006
   3.3000000000000008E-003     1.6616106955097880E-005
   3.6000000000000025E-003     1.0952050631169589E-005
   3.9000000000000007E-003     2.5607165427595437E-005
   4.2000000000000023E-003     5.5496189619762422E-005
   4.5000000000000005E-003     7.8159846468467227E-005
   4.7999999999999987E-003     1.2325998523232839E-004
   5.1000000000000004E-003     1.6761598227972411E-004
   5.4000000000000020E-003     1.9471285464399708E-004
   5.7000000000000037E-003     2.4251048946417027E-004
   5.9999999999999984E-003     2.7877556864892888E-004
   6.3000000000000000E-003     2.8627978939499616E-004
   6.6000000000000017E-003     3.1432137132637438E-004
   6.9000000000000034E-003     3.1894639434007190E-004
   7.2000000000000015E-003     2.2059360739599306E-004
   7.5000000000000032E-003    -6.3954010943366443E-005
   7.8000000000000014E-003    -7.4905858573502833E-004
   8.0999999999999996E-003    -2.0884082355197243E-003
   8.4000000000000012E-003    -4.3805372058555126E-003
   8.7000000000000029E-003    -8.1199593633279454E-003
   9.0000000000000011E-003    -1.4008322624286869E-002
   9.2999999999999992E-003    -2.3006073874295097E-002
   9.6000000000000009E-003    -3.6404821532356364E-002
   9.8999999999999991E-003    -5.5804743515183747E-002
   1.0200000000000001E-002    -8.3161889129406086E-002
   1.0500000000000002E-002   -0.12083706043574081     
   1.0800000000000004E-002   -0.17158637612153013     
   1.1099999999999999E-002   -0.23853782826286862     
   1.1400000000000000E-002   -0.32507076170601884     
   1.1700000000000002E-002   -0.43450670479001741     
   1.2000000000000004E-002   -0.56981568234093904     
   1.2300000000000002E-002   -0.73328731719362916     
   1.2600000000000000E-002   -0.92612139110068814     
   1.2900000000000002E-002    -1.1479379839789101     
   1.3200000000000000E-002    -1.3963214983816050     
   1.3500000000000002E-002    -1.6661614916740333     
   1.3800000000000003E-002    -1.9493159695262026     
   1.4100000000000001E-002    -2.2343236741862769     
   1.4400000000000000E-002    -2.5064124292722552     
   1.4700000000000001E-002    -2.7476688936960749     
   1.4999999999999999E-002    -2.9378668279298821     
   1.5300000000000001E-002    -3.0552617429535971     
   1.5600000000000003E-002    -3.0781542110122402     
   1.5899999999999997E-002    -2.9864128834012846     
   1.6199999999999999E-002    -2.7633501293380887     
   1.6500000000000001E-002    -2.3978995128142859     
   1.6800000000000002E-002    -1.8859933751029241     
   1.7100000000000004E-002    -1.2320148038214696     
   1.7400000000000006E-002   -0.44984470747068400     
   1.7700000000000000E-002    0.43688295723306664     
   1.8000000000000002E-002     1.3959591523884978     
   1.8300000000000004E-002     2.3870849399715186     
   1.8600000000000005E-002     3.3652474306400806     
   1.8900000000000000E-002     4.2820943840245009     
   1.9200000000000002E-002     5.0910462030061252     
   1.9500000000000003E-002     5.7482026376924491     
   1.9799999999999998E-002     6.2175400731683075     
   2.0100000000000000E-002     6.4722626462824531     
   2.0400000000000001E-002     6.4971511463005713     
   2.0700000000000003E-002     6.2891967302882872     
   2.0999999999999998E-002     5.8593361348993893     
   2.1299999999999999E-002     5.2290313214386286     
   2.1600000000000001E-002     4.4318163379875299     
   2.1900000000000003E-002     3.5088124251036708     
   2.2200000000000004E-002     2.5094804678860476     
   2.2500000000000006E-002     1.4866809605495030     
   2.2800000000000001E-002    0.49775821842358386     
   2.3100000000000002E-002   -0.40038931609249223     
   2.3400000000000004E-002    -1.1492476735428376     
   2.3699999999999999E-002    -1.6937471374501509     
   2.4000000000000000E-002    -1.9819901476026174     
   2.4300000000000002E-002    -1.9680959023314868     
   2.4599999999999997E-002    -1.6154138535353564     
   2.4900000000000005E-002   -0.90076344515967832     
   2.5200000000000000E-002    0.18292876819116610     
   2.5499999999999995E-002     1.6204401601292071     
   2.5800000000000003E-002     3.3710256928573821     
   2.6099999999999998E-002     5.3644204685536829     
   2.6400000000000007E-002     7.5012286199694937     
   2.6700000000000002E-002     9.6513920933640680     
   2.6999999999999996E-002     11.661605349832389     
   2.7300000000000005E-002     13.359119328096085     
   2.7600000000000000E-002     14.568016380439870     
   2.7900000000000008E-002     15.115748182464728     
   2.8200000000000003E-002     14.854930058796011     
   2.8499999999999998E-002     13.675312457767248     
   2.8800000000000006E-002     11.516890160722433     
   2.9100000000000001E-002     8.3845364212255671     
   2.9400000000000003E-002     4.3496838143339458     
   2.9700000000000004E-002   -0.44555138523610072     
   3.0000000000000006E-002    -5.7944813897321295     
   3.0300000000000001E-002    -11.441787389828786     
   3.0600000000000002E-002    -17.092313083169479     
   3.0900000000000004E-002    -22.441711394004006     
   3.1199999999999999E-002    -27.190703065886986     
   3.1500000000000007E-002    -31.071526824358429     
   3.1800000000000002E-002    -33.867677578687420     
   3.2099999999999997E-002    -35.427000371722045     
   3.2400000000000005E-002    -35.673262269223756     
   3.2700000000000000E-002    -34.608813110251930     
   3.3000000000000002E-002    -32.310919587202214     
   3.3300000000000003E-002    -28.921084088879972     
   3.3599999999999998E-002    -24.635271448139775     
   3.3900000000000000E-002    -19.680067078544852     
   3.4200000000000001E-002    -14.301447460558716     
   3.4500000000000003E-002    -8.7429552956495318     
   3.4799999999999998E-002    -3.2325068576641875     
   3.5099999999999999E-002     2.0352204761583708     
   3.5400000000000001E-002     6.8934943686418650     
   3.5699999999999996E-002     11.227999299574689     
   3.6000000000000004E-002     14.954531536098145     
   3.6299999999999999E-002     18.032412577937539     
   3.6600000000000008E-002     20.449401063565070     
   3.6900000000000002E-002     22.218619559226195     
   3.7199999999999997E-002     23.369210454855970     
   3.7500000000000006E-002     23.941161325915076     
   3.7800000000000000E-002     23.978060820580176     
   3.8100000000000009E-002     23.527680404727572     
   3.8400000000000004E-002     22.632748507941177     
   3.8699999999999998E-002     21.340576921229133     
   3.9000000000000007E-002     19.695887251632119     
   3.9300000000000002E-002     17.746290738226914     
   3.9600000000000003E-002     15.545053907968780     
   3.9900000000000005E-002     13.150211659071187     
   4.0200000000000000E-002     10.624216307270485     
   4.0500000000000001E-002     8.0377732678406169     
   4.0800000000000003E-002     5.4633889688436490     
   4.1100000000000005E-002     2.9733223597143730     
   4.1399999999999999E-002    0.63947941219887783     
   4.1700000000000008E-002    -1.4743708900568622     
   4.2000000000000003E-002    -3.3155181334143284     
   4.2299999999999997E-002    -4.8403799951854500     
   4.2600000000000006E-002    -6.0268581753266917     
   4.2900000000000001E-002    -6.8629726132247191     
   4.3200000000000002E-002    -7.3594678829112663     
   4.3500000000000004E-002    -7.5391186790880207     
   4.3799999999999999E-002    -7.4403761966875264     
   4.4100000000000000E-002    -7.1127566362970436     
   4.4400000000000002E-002    -6.6155866477133980     
   4.4700000000000004E-002    -6.0076626349014557     
   4.4999999999999998E-002    -5.3542912653705415     
   4.5300000000000000E-002    -4.7116248815801454     
   4.5600000000000002E-002    -4.1312472539129343     
   4.5899999999999996E-002    -3.6532999671890081     
   4.6200000000000005E-002    -3.3052371613418896     
   4.6500000000000000E-002    -3.0993409723661198     
   4.6799999999999994E-002    -3.0342927100647881     
   4.7100000000000003E-002    -3.0941467021222469     
   4.7399999999999998E-002    -3.2533025184530673     
   4.7700000000000006E-002    -3.4725913226728093     
   4.8000000000000001E-002    -3.7141903938900143     
   4.8300000000000010E-002    -3.9317599783425212     
   4.8600000000000004E-002    -4.0867160838421706     
   4.8899999999999999E-002    -4.1416544076320676     
   4.9200000000000008E-002    -4.0710825203564376     
   4.9500000000000002E-002    -3.8572503947303378     
   4.9800000000000011E-002    -3.4943656499751272     
   5.0100000000000006E-002    -2.9875752653606389     
   5.0400000000000000E-002    -2.3526148654705743     
   5.0700000000000009E-002    -1.6144019329523376     
   5.1000000000000004E-002   -0.80352980183369294     
   5.1299999999999998E-002     4.1578175713153746E-002
   5.1600000000000007E-002    0.88335549579972950     
   5.1900000000000002E-002     1.6817425540404507     
   5.2200000000000010E-002     2.3985958268165879     
   5.2500000000000005E-002     3.0022981498718080     
   5.2800000000000000E-002     3.4645479232474750     
   5.3099999999999994E-002     3.7686677677034872     
   5.3400000000000003E-002     3.9037333406341532     
   5.3699999999999998E-002     3.8712872087450023     
   5.4000000000000006E-002     3.6842647710892100     
   5.4300000000000001E-002     3.3614951328831015     
   5.4599999999999996E-002     2.9327346016271529     
   5.4900000000000004E-002     2.4340425567656725     
   5.5199999999999999E-002     1.9031148838903835     
   5.5499999999999994E-002     1.3780576671260918     
   5.5800000000000002E-002    0.89710955389824076     
   5.6099999999999997E-002    0.48914190174777544     
   5.6400000000000006E-002    0.17864642613523596     
   5.6700000000000000E-002    -2.0526939394122978E-002
   5.6999999999999995E-002   -0.10453959874471717     
   5.7300000000000004E-002    -7.7999790279342604E-002
   5.7599999999999998E-002     4.4856941436792447E-002
   5.7900000000000007E-002    0.24201159772324782     
   5.8200000000000002E-002    0.48889711932869656     
   5.8499999999999996E-002    0.75471488354429817     
   5.8800000000000005E-002     1.0110165333847045     
   5.9100000000000000E-002     1.2288344474494088     
   5.9400000000000008E-002     1.3851969970132540     
   5.9700000000000003E-002     1.4577035606689792     
   6.0000000000000012E-002     1.4375307451364254     
   6.0300000000000006E-002     1.3152165470978481     
   6.0600000000000001E-002     1.0957659697322437     
   6.0900000000000010E-002    0.78703972988023441     
   6.1200000000000004E-002    0.40670676018373630     
   6.1500000000000013E-002    -2.2772812768984397E-002
   6.1800000000000008E-002   -0.47371443236894067     
   6.2100000000000002E-002   -0.91826274930938090     
   6.2399999999999997E-002    -1.3248402871683047     
   6.2700000000000006E-002    -1.6685036352352172     
   6.3000000000000000E-002    -1.9254636817837276     
   6.3300000000000009E-002    -2.0810666253206573     
   6.3600000000000004E-002    -2.1261403811992592     
   6.3899999999999998E-002    -2.0640981498937414     
   6.4199999999999993E-002    -1.9015606948075556     
   6.4500000000000002E-002    -1.6577188058898524     
   6.4800000000000010E-002    -1.3546926004259683     
   6.5100000000000005E-002    -1.0198750652223851     
   6.5400000000000000E-002   -0.67951250876617941     
   6.5700000000000008E-002   -0.36266315276495231     
   6.5999999999999989E-002    -8.7948627042495175E-002
   6.6299999999999998E-002    0.12368617152056713     
   6.6600000000000006E-002    0.26713838827199238     
   6.6900000000000001E-002    0.33713506510137359     
   6.7199999999999996E-002    0.34212637965615156     
   6.7500000000000004E-002    0.29135376269657010     
   6.7800000000000013E-002    0.20287018289199127     
   6.8099999999999994E-002     9.4990063128543092E-002
   6.8400000000000002E-002    -1.4118143472451900E-002
   6.8700000000000011E-002   -0.10671049865834831     
   6.8999999999999992E-002   -0.16899514906918392     
   6.9300000000000000E-002   -0.19500531702528323     
   6.9600000000000009E-002   -0.17856889579554483     
   6.9900000000000004E-002   -0.12610906569249489     
   7.0199999999999999E-002    -4.2050551123833962E-002
   7.0500000000000007E-002     6.0428774534822365E-002
   7.0800000000000016E-002    0.17130547744056723     
   7.1099999999999997E-002    0.27523004191475220     
   7.1400000000000005E-002    0.36386032950099878     
   7.1700000000000000E-002    0.42692420779477885     
   7.1999999999999995E-002    0.46109508374406111     
   7.2300000000000003E-002    0.46533765588721826     
   7.2600000000000012E-002    0.44183256272562133     
   7.2900000000000006E-002    0.39554180467221201     
   7.3200000000000001E-002    0.33405088112640974     
   7.3499999999999996E-002    0.26135527134518205     
   7.3800000000000004E-002    0.18640393226485052     
   7.4099999999999999E-002    0.11058901784173535     
   7.4400000000000008E-002     3.9051003389678568E-002
   7.4700000000000003E-002    -2.9706769616610191E-002
   7.5000000000000011E-002    -9.3246253361203277E-002
   7.5299999999999992E-002   -0.15364328877814185     
   7.5600000000000001E-002   -0.20967717910943967     
   7.5900000000000009E-002   -0.26136407357702579     
   7.6200000000000004E-002   -0.30485223051307098     
   7.6499999999999999E-002   -0.33794006525147585     
   7.6800000000000007E-002   -0.35501785712476558     
   7.7099999999999988E-002   -0.35255117014404747     
   7.7399999999999997E-002   -0.32502049421613965     
   7.7700000000000005E-002   -0.27193388299593246     
   7.8000000000000014E-002   -0.19114312290081684     
   7.8299999999999995E-002    -8.6038162826741829E-002
   7.8600000000000003E-002     3.9692508203890274E-002
   7.8900000000000012E-002    0.17734447222510616     
   7.9199999999999993E-002    0.32041770255333712     
   7.9500000000000001E-002    0.45720416218600296     
   7.9800000000000010E-002    0.57936158616765709     
   8.0100000000000018E-002    0.67685326603657037     
   8.0399999999999999E-002    0.74375626004291617     
   8.0700000000000008E-002    0.77256163321817761     
   8.1000000000000003E-002    0.76139070761635241     
   8.1299999999999997E-002    0.70903332988650147     
   8.1600000000000006E-002    0.61665852591034653     
   8.1900000000000014E-002    0.48754586162228447     
   8.2199999999999995E-002    0.32980154073484652     
   8.2500000000000004E-002    0.14750548345867812     
   8.2799999999999999E-002    -4.7119332183078025E-002
   8.3100000000000007E-002   -0.24591207825385289     
   8.3400000000000002E-002   -0.43754903353604568     
   8.3700000000000011E-002   -0.61204673328774173     
   8.4000000000000005E-002   -0.75857420740045589     
   8.4300000000000000E-002   -0.87092163678492995     
   8.4599999999999995E-002   -0.94060090049097200     
   8.4900000000000003E-002   -0.96519473311435577     
   8.5199999999999998E-002   -0.94324222439925687     
   8.5500000000000007E-002   -0.87639305184904726     
   8.5800000000000001E-002   -0.76862880549384649     
   8.6100000000000010E-002   -0.62805345404615587     
   8.6399999999999991E-002   -0.46030902110384103     
   8.6699999999999999E-002   -0.27919562516490321     
   8.7000000000000008E-002    -9.1756580578255406E-002
   8.7300000000000003E-002     8.9869096261320211E-002
   8.7599999999999997E-002    0.25590005189842840     
   8.7900000000000006E-002    0.39814168366999192     
   8.8200000000000014E-002    0.50946927656973562     
   8.8499999999999995E-002    0.58489496457843593     
   8.8800000000000004E-002    0.62172455859898179     
   8.9100000000000013E-002    0.62042434536024271     
   8.9399999999999993E-002    0.58291085208641602     
   8.9700000000000002E-002    0.51421089705116296     
   9.0000000000000011E-002    0.42106695694060997     
   9.0299999999999991E-002    0.31135793090809449     
   9.0600000000000000E-002    0.19573678033685071     
   9.0900000000000009E-002     8.1318054577296739E-002
   9.1200000000000017E-002    -2.0365139580913086E-002
   9.1499999999999998E-002   -0.10333327309118326     
   9.1800000000000007E-002   -0.16114030412186650     
   9.2100000000000001E-002   -0.19017086769645677     
   9.2399999999999996E-002   -0.18944992189425047     
   9.2700000000000005E-002   -0.15972343294088326     
   9.3000000000000013E-002   -0.10604349852434888     
   9.3300000000000008E-002    -3.2069869321357317E-002
   9.3600000000000003E-002     5.4157953010769075E-002
   9.3899999999999997E-002    0.14548359417433976     
   9.4200000000000006E-002    0.23310012725774643     
   9.4500000000000001E-002    0.31139445018101369     
   9.4800000000000009E-002    0.37133908057104237     
   9.5100000000000004E-002    0.40867850113186488     
   9.5399999999999999E-002    0.41881835520193106     
   9.5699999999999993E-002    0.39971983627545338     
   9.6000000000000002E-002    0.35003167690770276     
   9.6300000000000011E-002    0.27270275774553160     
   9.6600000000000005E-002    0.16997743079714087     
   9.6900000000000000E-002     4.8673049675198581E-002
   9.7200000000000009E-002    -8.6060840483165674E-002
   9.7499999999999989E-002   -0.22389351970934332     
   9.7799999999999998E-002   -0.35802089951198818     
   9.8100000000000007E-002   -0.47825923409540838     
   9.8400000000000015E-002   -0.57828646913964821     
   9.8699999999999996E-002   -0.64821314838209909     
   9.9000000000000005E-002   -0.68723124435908667     
   9.9300000000000013E-002   -0.68854278466524843     
   9.9599999999999994E-002   -0.65447324757871894     
   9.9900000000000003E-002   -0.58496821161844104     
  0.10020000000000001        -0.48566383431198545     
  0.10049999999999999        -0.36034417475290259     
  0.10080000000000000        -0.21814595587352809     
  0.10110000000000001         -6.5188777635595899E-002
  0.10140000000000000          8.8467271803153003E-002
  0.10170000000000000         0.23710339696099855     
  0.10200000000000001         0.37067758357077923     
  0.10230000000000002         0.48626291165525626     
  0.10260000000000000         0.57522790997945128     
  0.10290000000000001         0.63805168381164279     
  0.10320000000000000         0.66951912165907168     
  0.10350000000000001         0.67305415527553725     
  0.10380000000000000         0.64707719910194539     
  0.10410000000000001         0.59836566171347516     
  0.10440000000000001         0.52772980539504122     
  0.10470000000000000         0.44360276651340647     
  0.10500000000000000         0.34935387447407956     
  0.10530000000000000         0.25224151612324314     
  0.10560000000000000         0.15576834282195337     
  0.10590000000000001          6.5816365913710678E-002
  0.10620000000000000         -1.6902001553512850E-002
  0.10650000000000001         -8.7227976221884745E-002
  0.10679999999999999        -0.14853360303270188     
  0.10710000000000000        -0.19763972208636779     
  0.10740000000000001        -0.23816999984889550     
  0.10770000000000000        -0.27011752098426017     
  0.10800000000000000        -0.29636493151323878     
  0.10830000000000001        -0.31668078474838490     
  0.10859999999999999        -0.33482837121912851     
  0.10890000000000000        -0.34837981282782854     
  0.10920000000000001        -0.36038195159800407     
  0.10950000000000001        -0.36823933155586464     
  0.10979999999999999        -0.37364964387980837     
  0.11009999999999999        -0.37381900805922574     
  0.11040000000000001        -0.37035192435914277     
  0.11070000000000001        -0.35984728985072872     
  0.11100000000000000        -0.34446631143895334     
  0.11130000000000000        -0.32128225084651812     
  0.11160000000000002        -0.29186831431722804     
  0.11190000000000001        -0.25483654685490764     
  0.11220000000000001        -0.21140359933333674     
  0.11250000000000000        -0.16161706493810496     
  0.11280000000000000        -0.10784827018923251     
  0.11309999999999999         -5.0797732522954137E-002
  0.11340000000000001          5.5484413858969180E-003
  0.11369999999999998          5.9243455761385518E-002
  0.11400000000000000         0.10575812167071116     
  0.11430000000000000         0.14212020254908547     
  0.11460000000000002         0.16494693373339134     
  0.11489999999999999         0.17186086443385762     
  0.11520000000000001         0.16062656684595850     
  0.11550000000000001         0.13195934225367961     
  0.11580000000000000          8.5144745287872067E-002
  0.11609999999999999          2.4419323455371185E-002
  0.11640000000000002         -4.8617438170051423E-002
  0.11670000000000001        -0.12813655781675909     
  0.11700000000000001        -0.21070518554314238     
  0.11730000000000000        -0.28920494605530866     
  0.11760000000000000        -0.36047743534462678     
  0.11789999999999999        -0.41838847063646717     
  0.11820000000000001        -0.45931504351843722     
  0.11850000000000001        -0.48112509703798528     
  0.11880000000000000        -0.47969872682524850     
  0.11910000000000000        -0.45650393783731180     
  0.11940000000000002        -0.41021991934582797     
  0.11970000000000001        -0.34249167037004735     
  0.12000000000000001        -0.25753085596919462     
  0.12030000000000000        -0.15619925260245185     
  0.12060000000000000         -4.5732415471788121E-002
  0.12089999999999999          7.0157156153347125E-002
  0.12119999999999999         0.18597848436403977     
  0.12150000000000001         0.29615493979517843     
  0.12180000000000001         0.39612855616221232     
  0.12210000000000000         0.48177342474511686     
  0.12239999999999999         0.55025474871187374     
  0.12270000000000002         0.60033051678431448     
  0.12300000000000001         0.63105009377262000     
  0.12330000000000001         0.64398287034340629     
  0.12360000000000000         0.64100764477180672     
  0.12390000000000000         0.62410293324006771     
  0.12419999999999999         0.59644363663987554     
  0.12450000000000001         0.56238572301373391     
  0.12480000000000001         0.52246813574300677     
  0.12509999999999999         0.48053561428903691     
  0.12540000000000001         0.43856262127647377     
  0.12570000000000003         0.39697687893192291     
  0.12600000000000000         0.35736682239038214     
  0.12630000000000002         0.31953563583732614     
  0.12659999999999999         0.28407075306820340     
  0.12690000000000001         0.25087126448369973     
  0.12719999999999998         0.21820012508979442     
  0.12750000000000000         0.18849023479711813     
  0.12780000000000002         0.15842645620346063     
  0.12809999999999999         0.12939716169882412     
  0.12840000000000001         0.10025536309065447     
  0.12869999999999998          7.1525113256590167E-002
  0.12900000000000000          4.1457308685337313E-002
  0.12930000000000003          1.1416484166840300E-002
  0.12959999999999999         -1.8713669232424464E-002
  0.12990000000000002         -4.8989615129769605E-002
  0.13019999999999998         -7.8183019191098962E-002
  0.13050000000000000        -0.10602285107307849     
  0.13080000000000003        -0.13098746677016918     
  0.13109999999999999        -0.15290068175574426     
  0.13140000000000002        -0.17130510665532564     
  0.13169999999999998        -0.18410699169362876     
  0.13200000000000001        -0.19430756698740262     
  0.13229999999999997        -0.19884292836982034     
  0.13260000000000000        -0.20048545365480952     
  0.13290000000000002        -0.19789670337308424     
  0.13319999999999999        -0.19362223087427158     
  0.13350000000000001        -0.18540842636162513     
  0.13380000000000003        -0.17567209676238180     
  0.13410000000000000        -0.16283584855889238     
  0.13440000000000002        -0.14708269779238364     
  0.13469999999999999        -0.12826059408644236     
  0.13500000000000001        -0.10550474748669705     
  0.13529999999999998         -7.8976075725215492E-002
  0.13560000000000000         -4.9369719174918579E-002
  0.13590000000000002         -1.5493231779292498E-002
  0.13619999999999999          1.9119487237597557E-002
  0.13650000000000001          5.5799963801325798E-002
  0.13680000000000003          9.0687969226879828E-002
  0.13710000000000000         0.12358926323658510     
  0.13740000000000002         0.15105035803811478     
  0.13769999999999999         0.17355143849417071     
  0.13800000000000001         0.18755425156684083     
  0.13829999999999998         0.19412807669855736     
  0.13860000000000000         0.19219429246296199     
  0.13890000000000002         0.18201852737483459     
  0.13919999999999999         0.16478236904592936     
  0.13950000000000001         0.14195809729534825     
  0.13979999999999998         0.11462711081997579     
  0.14010000000000000          8.6049561281380985E-002
  0.14040000000000002          5.6388763859031403E-002
  0.14069999999999999          2.9535813609117372E-002
  0.14100000000000001          5.6082639292377601E-003
  0.14130000000000004         -1.2614301057978540E-002
  0.14160000000000000         -2.6184759879737729E-002
  0.14189999999999997         -3.3165874691867457E-002
  0.14219999999999999         -3.5161162251616453E-002
  0.14250000000000002         -3.3547533943066941E-002
  0.14279999999999998         -2.9767074009961002E-002
  0.14310000000000000         -2.5734637360365048E-002
  0.14339999999999997         -2.5050376641915888E-002
  0.14369999999999999         -2.8094940754461773E-002
  0.14400000000000002         -3.7954393455979785E-002
  0.14429999999999998         -5.5513512067750695E-002
  0.14460000000000001         -8.1278953442196669E-002
  0.14490000000000003        -0.11471135516370688     
  0.14520000000000000        -0.15517982406796996     
  0.14550000000000002        -0.20069477975921798     
  0.14579999999999999        -0.24921978473779027     
  0.14610000000000001        -0.29847090825742595     
  0.14640000000000003        -0.34506430499327123     
  0.14670000000000000        -0.38816278377255309     
  0.14699999999999996        -0.42433189428312784     
  0.14729999999999999        -0.45229630637465712     
  0.14760000000000001        -0.47235341755396243     
  0.14789999999999998        -0.48219348770871212     
  0.14820000000000000        -0.48254572112986771     