  -1.4999999999999999E-002     0.0000000000000000     
  -1.4700000000000000E-002     0.0000000000000000     
  -1.4400000000000000E-002     0.0000000000000000     
  -1.4100000000000000E-002     0.0000000000000000     
  -1.3800000000000000E-002     0.0000000000000000     
  -1.3500000000000000E-002     0.0000000000000000     
  -1.3200000000000000E-002     0.0000000000000000     
  -1.2899999999999998E-002     0.0000000000000000     
  -1.2600000000000000E-002     0.0000000000000000     
  -1.2299999999999998E-002     0.0000000000000000     
  -1.2000000000000000E-002     0.0000000000000000     
  -1.1699999999999999E-002     0.0000000000000000     
  -1.1399999999999999E-002     0.0000000000000000     
  -1.1099999999999999E-002     0.0000000000000000     
  -1.0799999999999999E-002     0.0000000000000000     
  -1.0499999999999999E-002     0.0000000000000000     
  -1.0199999999999999E-002     0.0000000000000000     
  -9.8999999999999991E-003     0.0000000000000000     
  -9.5999999999999992E-003     0.0000000000000000     
  -9.2999999999999992E-003     0.0000000000000000     
  -8.9999999999999993E-003     0.0000000000000000     
  -8.6999999999999994E-003     0.0000000000000000     
  -8.3999999999999995E-003     0.0000000000000000     
  -8.0999999999999996E-003     0.0000000000000000     
  -7.7999999999999988E-003     0.0000000000000000     
  -7.4999999999999997E-003     0.0000000000000000     
  -7.1999999999999998E-003     0.0000000000000000     
  -6.8999999999999981E-003     0.0000000000000000     
  -6.5999999999999982E-003     0.0000000000000000     
  -6.3000000000000000E-003     0.0000000000000000     
  -6.0000000000000001E-003     0.0000000000000000     
  -5.6999999999999985E-003     0.0000000000000000     
  -5.3999999999999986E-003     0.0000000000000000     
  -5.1000000000000004E-003     0.0000000000000000     
  -4.7999999999999987E-003     0.0000000000000000     
  -4.5000000000000005E-003     0.0000000000000000     
  -4.1999999999999989E-003     0.0000000000000000     
  -3.8999999999999990E-003     0.0000000000000000     
  -3.5999999999999990E-003     0.0000000000000000     
  -3.2999999999999991E-003     0.0000000000000000     
  -2.9999999999999992E-003     0.0000000000000000     
  -2.6999999999999993E-003     0.0000000000000000     
  -2.3999999999999994E-003     0.0000000000000000     
  -2.0999999999999977E-003     0.0000000000000000     
  -1.7999999999999995E-003     0.0000000000000000     
  -1.4999999999999979E-003     0.0000000000000000     
  -1.1999999999999997E-003     0.0000000000000000     
  -8.9999999999999976E-004     0.0000000000000000     
  -5.9999999999999810E-004     0.0000000000000000     
  -2.9999999999999992E-004     0.0000000000000000     
   0.0000000000000000          0.0000000000000000     
   3.0000000000000165E-004     0.0000000000000000     
   5.9999999999999984E-004     0.0000000000000000     
   9.0000000000000149E-004     0.0000000000000000     
   1.2000000000000031E-003     0.0000000000000000     
   1.5000000000000013E-003     0.0000000000000000     
   1.8000000000000030E-003     0.0000000000000000     
   2.1000000000000012E-003     0.0000000000000000     
   2.3999999999999994E-003     0.0000000000000000     
   2.7000000000000010E-003     0.0000000000000000     
   2.9999999999999992E-003     0.0000000000000000     
   3.3000000000000008E-003     0.0000000000000000     
   3.6000000000000025E-003     0.0000000000000000     
   3.9000000000000007E-003     0.0000000000000000     
   4.2000000000000023E-003     0.0000000000000000     
   4.5000000000000005E-003     0.0000000000000000     
   4.7999999999999987E-003     0.0000000000000000     
   5.1000000000000004E-003     0.0000000000000000     
   5.4000000000000020E-003     0.0000000000000000     
   5.7000000000000037E-003     0.0000000000000000     
   5.9999999999999984E-003     0.0000000000000000     
   6.3000000000000000E-003     0.0000000000000000     
   6.6000000000000017E-003     0.0000000000000000     
   6.9000000000000034E-003     0.0000000000000000     
   7.2000000000000015E-003     0.0000000000000000     
   7.5000000000000032E-003     0.0000000000000000     
   7.8000000000000014E-003     0.0000000000000000     
   8.0999999999999996E-003     0.0000000000000000     
   8.4000000000000012E-003     0.0000000000000000     
   8.7000000000000029E-003     0.0000000000000000     
   9.0000000000000011E-003     0.0000000000000000     
   9.2999999999999992E-003     0.0000000000000000     
   9.6000000000000009E-003     0.0000000000000000     
   9.8999999999999991E-003     0.0000000000000000     
   1.0200000000000001E-002     0.0000000000000000     
   1.0500000000000002E-002     0.0000000000000000     
   1.0800000000000004E-002     0.0000000000000000     
   1.1099999999999999E-002     0.0000000000000000     
   1.1400000000000000E-002     0.0000000000000000     
   1.1700000000000002E-002     0.0000000000000000     
   1.2000000000000004E-002     0.0000000000000000     
   1.2300000000000002E-002     0.0000000000000000     
   1.2600000000000000E-002     0.0000000000000000     
   1.2900000000000002E-002     4.3432629330423402E-037
   1.3200000000000000E-002     3.1801332273269870E-035
   1.3500000000000002E-002    -7.6667084654760902E-035
   1.3800000000000003E-002    -1.2357415587087991E-033
   1.4100000000000001E-002     4.6075694112127812E-033
   1.4400000000000000E-002     2.8150882711550117E-032
   1.4700000000000001E-002    -2.0641732522190805E-031
   1.4999999999999999E-002     6.3020673665945527E-032
   1.5300000000000001E-002     3.8437062837989761E-030
   1.5600000000000003E-002    -1.4940266126634767E-029
   1.5899999999999997E-002    -5.1375527912857818E-030
   1.6199999999999999E-002     2.2691638827685820E-028
   1.6500000000000001E-002    -7.8896172765360048E-028
   1.6800000000000002E-002     5.3029233979063548E-028
   1.7100000000000004E-002     5.0903299098846615E-027
   1.7400000000000006E-002    -2.0349910430548096E-026
   1.7700000000000000E-002     2.7574346363624743E-026
   1.8000000000000002E-002     3.6440119884322457E-026
   1.8300000000000004E-002    -1.5106856433115064E-025
   1.8600000000000005E-002    -7.8424611822927546E-025
   1.8900000000000000E-002     1.0535186902128679E-023
   1.9200000000000002E-002    -7.2028812973828046E-023
   1.9500000000000003E-002     3.8332061524880355E-022
   1.9799999999999998E-002    -1.6697826101442357E-021
   2.0100000000000000E-002     5.7729084391885686E-021
   2.0400000000000001E-002    -1.3588546671218942E-020
   2.0700000000000003E-002     4.0389032112462247E-022
   2.0999999999999998E-002     2.3205189822103893E-019
   2.1299999999999999E-002    -1.7643454340977904E-018
   2.1600000000000001E-002     9.5552579096063294E-018
   2.1900000000000003E-002    -4.3967925192419131E-017
   2.2200000000000004E-002     1.8092504639343648E-016
   2.2500000000000006E-002    -6.7275411841171513E-016
   2.2800000000000001E-002     2.2158557659509052E-015
   2.3100000000000002E-002    -6.0247509597584434E-015
   2.3400000000000004E-002     1.0328668089809156E-014
   2.3699999999999999E-002     1.4201779604205121E-014
   2.4000000000000000E-002    -2.3272022872146414E-013
   2.4300000000000002E-002     1.2766342887340909E-012
   2.4599999999999997E-002    -4.7848088338686701E-012
   2.4900000000000005E-002     1.2543879129855995E-011
   2.5200000000000000E-002    -1.7210642633269657E-011
   2.5499999999999995E-002    -2.7361599097552869E-011
   2.5800000000000003E-002     2.3273202809370730E-010
   2.6099999999999998E-002    -6.1724486632996900E-010
   2.6400000000000007E-002     4.4977022106706954E-010
   2.6700000000000002E-002     2.2330206572718225E-009
   2.6999999999999996E-002    -7.2196808531543866E-009
   2.7300000000000005E-002     3.1660418731149775E-009
   2.7600000000000000E-002     2.4995420844220462E-008
   2.7900000000000008E-002    -3.9419290942532825E-008
   2.8200000000000003E-002    -5.7983875478839764E-008
   2.8499999999999998E-002     1.4208711718310951E-007
   2.8800000000000006E-002     1.6693122972810670E-007
   2.9100000000000001E-002    -3.5556203670239483E-007
   2.9400000000000003E-002    -6.8745561065952643E-007
   2.9700000000000004E-002     5.9326180235075299E-007
   3.0000000000000006E-002     3.9362448660540394E-006
   3.0300000000000001E-002     8.3856093624490313E-006
   3.0600000000000002E-002     1.3370497981668450E-005
   3.0900000000000004E-002     2.0076920918654650E-005
   3.1199999999999999E-002     3.0895094823790714E-005
   3.1500000000000007E-002     4.8725640226621181E-005
   3.1800000000000002E-002     7.6900731073692441E-005
   3.2099999999999997E-002     1.1944978177780285E-004
   3.2400000000000005E-002     1.8182220810558647E-004
   3.2700000000000000E-002     2.7200748445466161E-004
   3.3000000000000002E-002     4.0206927224062383E-004
   3.3300000000000003E-002     5.8884231839329004E-004
   3.3599999999999998E-002     8.5300271166488528E-004
   3.3900000000000000E-002     1.2185139348730445E-003
   3.4200000000000001E-002     1.7139413394033909E-003
   3.4500000000000003E-002     2.3745335638523102E-003
   3.4799999999999998E-002     3.2420132774859667E-003
   3.5099999999999999E-002     4.3615018948912621E-003
   3.5400000000000001E-002     5.7780905626714230E-003
   3.5699999999999996E-002     7.5340550392866135E-003
   3.6000000000000004E-002     9.6645150333642960E-003
   3.6299999999999999E-002     1.2190055102109909E-002
   3.6600000000000008E-002     1.5107417479157448E-002
   3.6900000000000002E-002     1.8380526453256607E-002
   3.7199999999999997E-002     2.1930450573563576E-002
   3.7500000000000006E-002     2.5624798610806465E-002
   3.7800000000000000E-002     2.9268180951476097E-002
   3.8100000000000009E-002     3.2600179314613342E-002
   3.8400000000000004E-002     3.5296857357025146E-002
   3.8699999999999998E-002     3.6975327879190445E-002
   3.9000000000000007E-002     3.7208758294582367E-002
   3.9300000000000002E-002     3.5548415035009384E-002
   3.9600000000000003E-002     3.1566333025693893E-002
   3.9900000000000005E-002     2.4890718981623650E-002
   4.0200000000000000E-002     1.5254068188369274E-002
   4.0500000000000001E-002     2.5418843142688274E-003
   4.0800000000000003E-002    -1.3161133043467999E-002
   4.1100000000000005E-002    -3.1530581414699554E-002
   4.1399999999999999E-002    -5.1981240510940552E-002
   4.1700000000000008E-002    -7.3665335774421692E-002
   4.2000000000000003E-002    -9.5495946705341339E-002
   4.2299999999999997E-002   -0.11618723720312119     
   4.2600000000000006E-002   -0.13433878123760223     
   4.2900000000000001E-002   -0.14852692186832428     
   4.3200000000000002E-002   -0.15740919113159180     
   4.3500000000000004E-002   -0.15985028445720673     
   4.3799999999999999E-002   -0.15503017604351044     
   4.4100000000000000E-002   -0.14252960681915283     
   4.4400000000000002E-002   -0.12240447103977203     
   4.4700000000000004E-002    -9.5200523734092712E-002
   4.4999999999999998E-002    -6.1942230910062790E-002
   4.5300000000000000E-002    -2.4075301364064217E-002
   4.5600000000000002E-002     1.6636809334158897E-002
   4.5899999999999996E-002     5.8241505175828934E-002
   4.6200000000000005E-002     9.8746970295906067E-002
   4.6500000000000000E-002    0.13625758886337280     
   4.6799999999999994E-002    0.16912858188152313     
   4.7100000000000003E-002    0.19607487320899963     
   4.7399999999999998E-002    0.21623757481575012     
   4.7700000000000006E-002    0.22923380136489868     
   4.8000000000000001E-002    0.23513379693031311     
   4.8300000000000010E-002    0.23441347479820251     
   4.8600000000000004E-002    0.22787903249263763     
   4.8899999999999999E-002    0.21655218303203583     
   4.9200000000000008E-002    0.20155602693557739     
   4.9500000000000002E-002    0.18400633335113525     
   4.9800000000000011E-002    0.16489045321941376     
   5.0100000000000006E-002    0.14501015841960907     
   5.0400000000000000E-002    0.12490144371986389     
   5.0700000000000009E-002    0.10482265800237656     
   5.1000000000000004E-002     8.4761768579483032E-002
   5.1299999999999998E-002     6.4443714916706085E-002
   5.1600000000000007E-002     4.3405160307884216E-002
   5.1900000000000002E-002     2.1032314747571945E-002
   5.2200000000000010E-002    -3.3223377540707588E-003
   5.2500000000000005E-002    -3.0309261754155159E-002
   5.2800000000000000E-002    -6.0447767376899719E-002
   5.3099999999999994E-002    -9.4092309474945068E-002
   5.3400000000000003E-002   -0.13137255609035492     
   5.3699999999999998E-002   -0.17209419608116150     
   5.4000000000000006E-002   -0.21582825481891632     
   5.4300000000000001E-002   -0.26175293326377869     
   5.4599999999999996E-002   -0.30879825353622437     
   5.4900000000000004E-002   -0.35562288761138916     
   5.5199999999999999E-002   -0.40062874555587769     
   5.5499999999999994E-002   -0.44216939806938171     
   5.5800000000000002E-002   -0.47842824459075928     
   5.6099999999999997E-002   -0.50770449638366699     
   5.6400000000000006E-002   -0.52834862470626831     
   5.6700000000000000E-002   -0.53889912366867065     
   5.6999999999999995E-002   -0.53820270299911499     
   5.7300000000000004E-002   -0.52533447742462158     
   5.7599999999999998E-002   -0.49982851743698120     
   5.7900000000000007E-002   -0.46151205897331238     
   5.8200000000000002E-002   -0.41067278385162354     
   5.8499999999999996E-002   -0.34797129034996033     
   5.8800000000000005E-002   -0.27439150214195251     
   5.9100000000000000E-002   -0.19135919213294983     
   5.9400000000000008E-002   -0.10048208385705948     
   5.9700000000000003E-002    -3.7111304700374603E-003
   6.0000000000000012E-002     9.6873700618743896E-002
   6.0300000000000006E-002    0.19909238815307617     
   6.0600000000000001E-002    0.30067527294158936     
   6.0900000000000010E-002    0.39944982528686523     
   6.1200000000000004E-002    0.49327281117439270     
   6.1500000000000013E-002    0.58027207851409912     
   6.1800000000000008E-002    0.65875053405761719     
   6.2100000000000002E-002    0.72734928131103516     
   6.2399999999999997E-002    0.78496277332305908     
   6.2700000000000006E-002    0.83082044124603271     
   6.3000000000000000E-002    0.86447393894195557     
   6.3300000000000009E-002    0.88561654090881348     
   6.3600000000000004E-002    0.89421099424362183     
   6.3899999999999998E-002    0.89016616344451904     
   6.4199999999999993E-002    0.87342584133148193     
   6.4500000000000002E-002    0.84388816356658936     
   6.4800000000000010E-002    0.80119204521179199     
   6.5100000000000005E-002    0.74492728710174561     
   6.5400000000000000E-002    0.67446440458297729     
   6.5700000000000008E-002    0.58921539783477783     
   6.5999999999999989E-002    0.48871412873268127     
   6.6299999999999998E-002    0.37265661358833313     
   6.6600000000000006E-002    0.24133493006229401     
   6.6900000000000001E-002     9.5526054501533508E-002
   6.7199999999999996E-002    -6.3077330589294434E-002
   6.7500000000000004E-002   -0.23188659548759460     
   6.7800000000000013E-002   -0.40746018290519714     
   6.8099999999999994E-002   -0.58539384603500366     
   6.8400000000000002E-002   -0.76063072681427002     
   6.8700000000000011E-002   -0.92751348018646240     
   6.8999999999999992E-002    -1.0802756547927856     
   6.9300000000000000E-002    -1.2131425142288208     
   6.9600000000000009E-002    -1.3208280801773071     
   6.9900000000000004E-002    -1.3987932205200195     
   7.0199999999999999E-002    -1.4434226751327515     
   7.0500000000000007E-002    -1.4524466991424561     
   7.0800000000000016E-002    -1.4247843027114868     
   7.1099999999999997E-002    -1.3607243299484253     
   7.1400000000000005E-002    -1.2619167566299438     
   7.1700000000000000E-002    -1.1310603618621826     
   7.1999999999999995E-002   -0.97187530994415283     
   7.2300000000000003E-002   -0.78882378339767456     
   7.2600000000000012E-002   -0.58681273460388184     
   7.2900000000000006E-002   -0.37116897106170654     
   7.3200000000000001E-002   -0.14708644151687622     
   7.3499999999999996E-002     8.0377548933029175E-002
   7.3800000000000004E-002    0.30640837550163269     
   7.4099999999999999E-002    0.52677369117736816     
   7.4400000000000008E-002    0.73773032426834106     
   7.4700000000000003E-002    0.93623292446136475     
   7.5000000000000011E-002     1.1198077201843262     
   7.5299999999999992E-002     1.2863986492156982     
   7.5600000000000001E-002     1.4345418214797974     
   7.5900000000000009E-002     1.5628634691238403     
   7.6200000000000004E-002     1.6702040433883667     
   7.6499999999999999E-002     1.7551400661468506     
   7.6800000000000007E-002     1.8160022497177124     
   7.7099999999999988E-002     1.8505616188049316     
   7.7399999999999997E-002     1.8560720682144165     
   7.7700000000000005E-002     1.8292732238769531     
   7.8000000000000014E-002     1.7666369676589966     
   7.8299999999999995E-002     1.6646852493286133     
   7.8600000000000003E-002     1.5201795101165771     
   7.8900000000000012E-002     1.3312641382217407     
   7.9199999999999993E-002     1.0971586704254150     
   7.9500000000000001E-002    0.81960839033126831     
   7.9800000000000010E-002    0.50272387266159058     
   8.0100000000000018E-002    0.15308490395545959     
   8.0399999999999999E-002   -0.21937330067157745     
   8.0700000000000008E-002   -0.60299384593963623     
   8.1000000000000003E-002   -0.98375928401947021     
   8.1299999999999997E-002    -1.3469414710998535     
   8.1600000000000006E-002    -1.6779826879501343     
   8.1900000000000014E-002    -1.9630759954452515     
   8.2199999999999995E-002    -2.1911501884460449     
   8.2500000000000004E-002    -2.3539125919342041     
   8.2799999999999999E-002    -2.4470772743225098     
   8.3100000000000007E-002    -2.4701938629150391     
   8.3400000000000002E-002    -2.4267935752868652     
   8.3700000000000011E-002    -2.3237261772155762     
   8.4000000000000005E-002    -2.1703593730926514     
   8.4300000000000000E-002    -1.9775139093399048     
   8.4599999999999995E-002    -1.7560433149337769     
   8.4900000000000003E-002    -1.5161958932876587     
   8.5199999999999998E-002    -1.2659499645233154     
   8.5500000000000007E-002    -1.0112755298614502     
   8.5800000000000001E-002   -0.75509542226791382     
   8.6100000000000010E-002   -0.49799969792366028     
   8.6399999999999991E-002   -0.23877209424972534     
   8.6699999999999999E-002     2.5440523400902748E-002
   8.7000000000000008E-002    0.29657417535781860     
   8.7300000000000003E-002    0.57646209001541138     
   8.7599999999999997E-002    0.86401635408401489     
   8.7900000000000006E-002     1.1556942462921143     
   8.8200000000000014E-002     1.4449470043182373     
   8.8499999999999995E-002     1.7213286161422729     
   8.8800000000000004E-002     1.9725379943847656     
   8.9100000000000013E-002     2.1833684444427490     
   8.9399999999999993E-002     2.3385066986083984     
   8.9700000000000002E-002     2.4228124618530273     
   9.0000000000000011E-002     2.4227588176727295     
   9.0299999999999991E-002     2.3285150527954102     
   9.0600000000000000E-002     2.1339094638824463     
   9.0900000000000009E-002     1.8385070562362671     
   9.1200000000000017E-002     1.4471389055252075     
   9.1499999999999998E-002    0.97065508365631104     
   9.1800000000000007E-002    0.42539110779762268     
   9.2100000000000001E-002   -0.16727158427238464     
   9.2399999999999996E-002   -0.78190410137176514     
   9.2700000000000005E-002    -1.3904916048049927     
   9.3000000000000013E-002    -1.9635412693023682     
   9.3300000000000008E-002    -2.4721372127532959     
   9.3600000000000003E-002    -2.8889341354370117     
   9.3899999999999997E-002    -3.1904606819152832     
   9.4200000000000006E-002    -3.3582530021667480     
   9.4500000000000001E-002    -3.3798696994781494     
   9.4800000000000009E-002    -3.2508258819580078     
   9.5100000000000004E-002    -2.9734287261962891     
   9.5399999999999999E-002    -2.5582950115203857     
   9.5699999999999993E-002    -2.0234222412109375     
   9.6000000000000002E-002    -1.3926285505294800     
   9.6300000000000011E-002   -0.69549095630645752     
   9.6600000000000005E-002     3.5845387727022171E-002
   9.6900000000000000E-002    0.76741254329681396     
   9.7200000000000009E-002     1.4660273790359497     
   9.7499999999999989E-002     2.1014294624328613     
   9.7799999999999998E-002     2.6468250751495361     
   9.8100000000000007E-002     3.0822727680206299     
   9.8400000000000015E-002     3.3932313919067383     
   9.8699999999999996E-002     3.5728638172149658     
   9.9000000000000005E-002     3.6207573413848877     
   9.9300000000000013E-002     3.5422210693359375     
   9.9599999999999994E-002     3.3486742973327637     
   9.9900000000000003E-002     3.0544290542602539     
  0.10020000000000001          2.6774878501892090     
  0.10049999999999999          2.2368416786193848     
  0.10080000000000000          1.7516992092132568     
  0.10110000000000001          1.2415013313293457     
  0.10140000000000000         0.72404956817626953     
  0.10170000000000000         0.21645571291446686     
  0.10200000000000001        -0.26611936092376709     
  0.10230000000000002        -0.70948904752731323     
  0.10260000000000000         -1.1010499000549316     
  0.10290000000000001         -1.4296704530715942     
  0.10320000000000000         -1.6855192184448242     
  0.10350000000000001         -1.8609932661056519     
  0.10380000000000000         -1.9504030942916870     
  0.10410000000000001         -1.9515283107757568     
  0.10440000000000001         -1.8648451566696167     
  0.10470000000000000         -1.6951144933700562     
  0.10500000000000000         -1.4512335062026978     
  0.10530000000000000         -1.1456404924392700     
  0.10560000000000000        -0.79532575607299805     
  0.10590000000000001        -0.41930779814720154     
  0.10620000000000000         -3.9137743413448334E-002
  0.10650000000000001         0.32324057817459106     
  0.10679999999999999         0.64712798595428467     
  0.10710000000000000         0.91366338729858398     
  0.10740000000000001          1.1084281206130981     
  0.10770000000000000          1.2215279340744019     
  0.10800000000000000          1.2490218877792358     
  0.10830000000000001          1.1928764581680298     
  0.10859999999999999          1.0606148242950439     
  0.10890000000000000         0.86502444744110107     
  0.10920000000000001         0.62243068218231201     
  0.10950000000000001         0.35150504112243652     
  0.10979999999999999          7.1387141942977905E-002
  0.11009999999999999        -0.19979460537433624     
  0.11040000000000001        -0.44725757837295532     
  0.11070000000000001        -0.65976512432098389     
  0.11100000000000000        -0.83164781332015991     
  0.11130000000000000        -0.96216619014739990     
  0.11160000000000002         -1.0548520088195801     
  0.11190000000000001         -1.1184073686599731     
  0.11220000000000001         -1.1626368761062622     
  0.11250000000000000         -1.1987472772598267     
  0.11280000000000000         -1.2371851205825806     
  0.11309999999999999         -1.2845697402954102     
  0.11340000000000001         -1.3447256088256836     
  0.11369999999999998         -1.4156501293182373     
  0.11400000000000000         -1.4908763170242310     
  0.11430000000000000         -1.5597454309463501     
  0.11460000000000002         -1.6080069541931152     
  0.11489999999999999         -1.6210019588470459     
  0.11520000000000001         -1.5838407278060913     
  0.11550000000000001         -1.4853699207305908     
  0.11580000000000000         -1.3187566995620728     
  0.11609999999999999         -1.0829646587371826     
  0.11640000000000002        -0.78394693136215210     
  0.11670000000000001        -0.43361380696296692     
  0.11700000000000001         -5.0130687654018402E-002
  0.11730000000000000         0.34523972868919373     
  0.11760000000000000         0.72853267192840576     
  0.11789999999999999          1.0764894485473633     
  0.11820000000000001          1.3683373928070068     
  0.11850000000000001          1.5877009630203247     
  0.11880000000000000          1.7241437435150146     
  0.11910000000000000          1.7726854085922241     
  0.11940000000000002          1.7357285022735596     
  0.11970000000000001          1.6201883554458618     
  0.12000000000000001          1.4373582601547241     
  0.12030000000000000          1.2018144130706787     
  0.12060000000000000         0.92813587188720703     
  0.12089999999999999         0.63156497478485107     
  0.12119999999999999         0.32509085536003113     
  0.12150000000000001          2.0005732774734497E-002
  0.12180000000000001        -0.27401414513587952     
  0.12210000000000000        -0.54994571208953857     
  0.12239999999999999        -0.80041199922561646     
  0.12270000000000002         -1.0191025733947754     
  0.12300000000000001         -1.1985877752304077     
  0.12330000000000001         -1.3301849365234375     
  0.12360000000000000         -1.4049801826477051     
  0.12390000000000000         -1.4126158952713013     
  0.12419999999999999         -1.3438304662704468     
  0.12450000000000001         -1.1913518905639648     
  0.12480000000000001        -0.95088326930999756     
  0.12509999999999999        -0.62419229745864868     
  0.12540000000000001        -0.21802675724029541     
  0.12570000000000003         0.25313964486122131     
  0.12600000000000000         0.76863449811935425     
  0.12630000000000002          1.3018472194671631     
  0.12659999999999999          1.8214988708496094     
  0.12690000000000001          2.2957115173339844     
  0.12719999999999998          2.6916232109069824     
  0.12750000000000000          2.9815692901611328     
  0.12780000000000002          3.1432473659515381     
  0.12809999999999999          3.1622996330261230     
  0.12840000000000001          3.0354812145233154     
  0.12869999999999998          2.7672233581542969     
  0.12900000000000000          2.3744559288024902     
  0.12930000000000003          1.8802914619445801     
  0.12959999999999999          1.3149476051330566     
  0.12990000000000002         0.71299231052398682     
  0.13019999999999998         0.10815911740064621     
  0.13050000000000000        -0.46518772840499878     
  0.13080000000000003        -0.97957694530487061     
  0.13109999999999999         -1.4113223552703857     
  0.13140000000000002         -1.7446826696395874     
  0.13169999999999998         -1.9722423553466797     
  0.13200000000000001         -2.0912611484527588     
  0.13229999999999997         -2.1080532073974609     
  0.13260000000000000         -2.0310840606689453     
  0.13290000000000002         -1.8733919858932495     
  0.13319999999999999         -1.6489677429199219     
  0.13350000000000001         -1.3714904785156250     
  0.13380000000000003         -1.0553352832794189     
  0.13410000000000000        -0.71173304319381714     
  0.13440000000000002        -0.35290506482124329     
  0.13469999999999999          1.1248072609305382E-002
  0.13500000000000001         0.36996135115623474     
  0.13529999999999998         0.71096497774124146     
  0.13560000000000000          1.0221910476684570     
  0.13590000000000002          1.2872033119201660     
  0.13619999999999999          1.4903984069824219     
  0.13650000000000001          1.6138328313827515     
  0.13680000000000003          1.6405121088027954     
  0.13710000000000000          1.5570825338363647     
  0.13740000000000002          1.3533185720443726     
  0.13769999999999999          1.0270961523056030     
  0.13800000000000001         0.58388710021972656     
  0.13829999999999998          4.0037013590335846E-002
  0.13860000000000000        -0.57932955026626587     
  0.13890000000000002         -1.2399199008941650     
  0.13919999999999999         -1.9000622034072876     
  0.13950000000000001         -2.5151956081390381     
  0.13979999999999998         -3.0392665863037109     
  0.14010000000000000         -3.4315328598022461     
  0.14040000000000002         -3.6586830615997314     
  0.14069999999999999         -3.6987476348876953     
  0.14100000000000001         -3.5444102287292480     
  0.14130000000000004         -3.2029016017913818     
  0.14160000000000000         -2.6971528530120850     
  0.14189999999999997         -2.0628459453582764     
  0.14219999999999999         -1.3463017940521240     
  0.14250000000000002        -0.59970527887344360     
  0.14279999999999998         0.12349192798137665     
  0.14310000000000000         0.77324372529983521     
  0.14339999999999997          1.3079698085784912     
  0.14369999999999999          1.6969127655029297     
  0.14400000000000002          1.9238119125366211     
  0.14429999999999998          1.9870271682739258     
  0.14460000000000001          1.8990559577941895     
  0.14490000000000003          1.6849938631057739     
  0.14520000000000000          1.3789745569229126     
  0.14550000000000002          1.0210840702056885     
  0.14579999999999999         0.65241241455078125     
  0.14610000000000001         0.31238472461700439     
  0.14640000000000003          3.3955857157707214E-002
  0.14670000000000000        -0.15740925073623657     
  0.14699999999999996        -0.24668207764625549     
  0.14729999999999999        -0.22911255061626434     
  0.14760000000000001        -0.10922265797853470     
  0.14789999999999998          9.9194072186946869E-002
  0.14820000000000000         0.37645810842514038     