  -1.4999999999999999E-002     0.0000000000000000     
  -1.4700000000000000E-002     0.0000000000000000     
  -1.4400000000000000E-002     0.0000000000000000     
  -1.4100000000000000E-002     0.0000000000000000     
  -1.3800000000000000E-002     0.0000000000000000     
  -1.3500000000000000E-002     0.0000000000000000     
  -1.3200000000000000E-002     0.0000000000000000     
  -1.2899999999999998E-002     0.0000000000000000     
  -1.2600000000000000E-002     0.0000000000000000     
  -1.2299999999999998E-002     0.0000000000000000     
  -1.2000000000000000E-002     0.0000000000000000     
  -1.1699999999999999E-002     0.0000000000000000     
  -1.1399999999999999E-002     0.0000000000000000     
  -1.1099999999999999E-002     0.0000000000000000     
  -1.0799999999999999E-002     6.9405787451084068E-038
  -1.0499999999999999E-002    -6.3741993861924362E-037
  -1.0199999999999999E-002    -9.5963558382032882E-035
  -9.8999999999999991E-003     2.8802680996442941E-033
  -9.5999999999999992E-003    -4.3405922607396155E-032
  -9.2999999999999992E-003     4.9348539555268456E-031
  -8.9999999999999993E-003    -4.3543630497921635E-030
  -8.6999999999999994E-003     2.8998326122121357E-029
  -8.3999999999999995E-003    -1.4402011429299761E-028
  -8.0999999999999996E-003     5.3170977738214748E-028
  -7.7999999999999988E-003    -1.4508739641346812E-027
  -7.4999999999999997E-003     2.8375817490112173E-027
  -7.1999999999999998E-003    -3.2979855962067363E-027
  -6.8999999999999981E-003    -2.2541382846892554E-027
  -6.5999999999999982E-003     2.7497646290429626E-026
  -6.3000000000000000E-003    -6.8202241034890441E-026
  -6.0000000000000001E-003    -2.7720074066448003E-025
  -5.6999999999999985E-003     4.1640783278697862E-024
  -5.3999999999999986E-003    -2.7567571503310210E-023
  -5.1000000000000004E-003     1.3244989384999341E-022
  -4.7999999999999987E-003    -5.1500132740348123E-022
  -4.5000000000000005E-003     1.6962774389780953E-021
  -4.1999999999999989E-003    -4.8416421498759829E-021
  -3.8999999999999990E-003     1.2098872467780430E-020
  -3.5999999999999990E-003    -2.6480988558064039E-020
  -3.2999999999999991E-003     5.0146614756391800E-020
  -2.9999999999999992E-003    -7.8981994065005604E-020
  -2.6999999999999993E-003     9.0390912648972707E-020
  -2.3999999999999994E-003    -2.0868741443389719E-020
  -2.0999999999999977E-003    -2.6618376185902766E-019
  -1.7999999999999995E-003     9.9962072185691029E-019
  -1.4999999999999979E-003    -2.4107978514816170E-018
  -1.1999999999999997E-003     4.2960827260759096E-018
  -8.9999999999999976E-004    -4.9011389921676869E-018
  -5.9999999999999810E-004    -7.9969022604197481E-019
  -2.9999999999999992E-004     2.1784052917177932E-017
   0.0000000000000000         -6.6333170317882601E-017
   3.0000000000000165E-004     1.2685925206142044E-016
   5.9999999999999984E-004    -1.5600153643480870E-016
   9.0000000000000149E-004     5.4946327839648309E-017
   1.2000000000000031E-003     2.8347456977381358E-016
   1.5000000000000013E-003    -8.4225917694623518E-016
   1.8000000000000030E-003     1.2977350215818544E-015
   2.1000000000000012E-003    -9.5446456004620447E-016
   2.3999999999999994E-003    -9.7417211137531216E-016
   2.7000000000000010E-003     4.7322362208521027E-015
   2.9999999999999992E-003    -9.6101837007537578E-015
   3.3000000000000008E-003     1.4551079415333310E-014
   3.6000000000000025E-003    -1.7962630673530122E-014
   3.9000000000000007E-003     7.1423025121377236E-015
   4.2000000000000023E-003     7.5299834820498352E-014
   4.5000000000000005E-003    -3.5689374799010646E-013
   4.7999999999999987E-003     8.8717368046719598E-013
   5.1000000000000004E-003    -1.0575326453187100E-012
   5.4000000000000020E-003    -1.2892268924135768E-012
   5.7000000000000037E-003     1.0271880545296659E-011
   5.9999999999999984E-003    -3.2994631121285769E-011
   6.3000000000000000E-003     8.7065185537208877E-011
   6.6000000000000017E-003    -1.9665437296449451E-010
   6.9000000000000034E-003     2.2583705247845150E-010
   7.2000000000000015E-003     6.9706569330689767E-010
   7.5000000000000032E-003    -4.2644868160878132E-009
   7.8000000000000014E-003     8.2224445637253361E-009
   8.0999999999999996E-003     5.2031706701044454E-009
   8.4000000000000012E-003    -5.5608867328678270E-008
   8.7000000000000029E-003     6.4461195281940134E-008
   9.0000000000000011E-003     1.7007063537549517E-007
   9.2999999999999992E-003    -4.2051997311393775E-007
   9.6000000000000009E-003    -5.0063531391512720E-007
   9.8999999999999991E-003     1.3818459381566677E-006
   1.0200000000000001E-002     1.7006108797297397E-006
   1.0500000000000002E-002    -3.2539014453722027E-006
   1.0800000000000004E-002    -5.7812221758715091E-006
   1.1099999999999999E-002     8.6143282535649233E-006
   1.1400000000000000E-002     4.0276231590310872E-005
   1.1700000000000002E-002     7.3604110110673951E-005
   1.2000000000000004E-002     1.0624276729757865E-004
   1.2300000000000002E-002     1.6420892071208936E-004
   1.2600000000000000E-002     2.7774191545533976E-004
   1.2900000000000002E-002     4.5841908670764004E-004
   1.3200000000000000E-002     7.1488708760626511E-004
   1.3500000000000002E-002     1.0883794307576522E-003
   1.3800000000000003E-002     1.6593510507192481E-003
   1.4100000000000001E-002     2.5192609154190762E-003
   1.4400000000000000E-002     3.7639590884805951E-003
   1.4700000000000001E-002     5.5324915961964677E-003
   1.4999999999999999E-002     8.0358095072447788E-003
   1.5300000000000001E-002     1.1536940162825249E-002
   1.5600000000000003E-002     1.6334815989894003E-002
   1.5899999999999997E-002     2.2799029287945638E-002
   1.6199999999999999E-002     3.1395524826142385E-002
   1.6500000000000001E-002     4.2652735862160673E-002
   1.6800000000000002E-002     5.7127996809835269E-002
   1.7100000000000004E-002     7.5414916482897221E-002
   1.7400000000000006E-002     9.8132310723726857E-002
   1.7700000000000000E-002    0.12584183922027048     
   1.8000000000000002E-002    0.15895151453870104     
   1.8300000000000004E-002    0.19766172963381301     
   1.8600000000000005E-002    0.24190666511215841     
   1.8900000000000000E-002    0.29123734075957408     
   1.9200000000000002E-002    0.34468823960047956     
   1.9500000000000003E-002    0.40070914659311185     
   1.9799999999999998E-002    0.45716264246533278     
   2.0100000000000000E-002    0.51129632515873702     
   2.0400000000000001E-002    0.55973903230481170     
   2.0700000000000003E-002    0.59864112645809797     
   2.0999999999999998E-002    0.62389174690504845     
   2.1299999999999999E-002    0.63137700861262047     
   2.1600000000000001E-002    0.61726773318937234     
   2.1900000000000003E-002    0.57836835040508916     
   2.2200000000000004E-002    0.51257169630644128     
   2.2500000000000006E-002    0.41921484679547660     
   2.2800000000000001E-002    0.29933195926916589     
   2.3100000000000002E-002    0.15579157470740324     
   2.3400000000000004E-002    -6.6405525428854251E-003
   2.3699999999999999E-002   -0.18131381104450428     
   2.4000000000000000E-002   -0.36004963646327681     
   2.4300000000000002E-002   -0.53378114216092243     
   2.4599999999999997E-002   -0.69321329954724931     
   2.4900000000000005E-002   -0.82952641856415710     
   2.5200000000000000E-002   -0.93505019874135442     
   2.5499999999999995E-002    -1.0041289287015829     
   2.5800000000000003E-002    -1.0339338481634073     
   2.6099999999999998E-002    -1.0246922463087174     
   2.6400000000000007E-002   -0.97982897606775410     
   2.6700000000000002E-002   -0.90596852316631882     
   2.6999999999999996E-002   -0.81236595133959355     
   2.7300000000000005E-002   -0.71026620302805554     
   2.7600000000000000E-002   -0.61185188835419879     
   2.7900000000000008E-002   -0.52892811016697650     
   2.8200000000000003E-002   -0.47216505012649357     
   2.8499999999999998E-002   -0.44970220365089197     
   2.8800000000000006E-002   -0.46601990066805676     
   2.9100000000000001E-002   -0.52142427118857171     
   2.9400000000000003E-002   -0.61189656840467066     
   2.9700000000000004E-002   -0.72910760892811766     
   3.0000000000000006E-002   -0.86067261206545709     
   3.0300000000000001E-002   -0.99111546588179422     
   3.0600000000000002E-002    -1.1034178261600296     
   3.0900000000000004E-002    -1.1805008740154079     
   3.1199999999999999E-002    -1.2064709022834776     
   3.1500000000000007E-002    -1.1681800252832417     
   3.1800000000000002E-002    -1.0568364425054924     
   3.2099999999999997E-002   -0.86939608234018095     
   3.2400000000000005E-002   -0.60886758964668175     
   3.2700000000000000E-002   -0.28401427146777358     
   3.3000000000000002E-002     9.0523003233226262E-002
   3.3300000000000003E-002    0.49506960272406531     
   3.3599999999999998E-002    0.90679884872764660     
   3.3900000000000000E-002     1.3015677077478216     
   3.4200000000000001E-002     1.6558923111525132     
   3.4500000000000003E-002     1.9485148936990910     
   3.4799999999999998E-002     2.1624660960746809     
   3.5099999999999999E-002     2.2868699213821770     
   3.5400000000000001E-002     2.3172855799959109     
   3.5699999999999996E-002     2.2556806871942712     
   3.6000000000000004E-002     2.1103162137438858     
   3.6299999999999999E-002     1.8947301246684916     
   3.6600000000000008E-002     1.6260978458850133     
   3.6900000000000002E-002     1.3230172010050723     
   3.7199999999999997E-002     1.0036256456731607     
   3.7500000000000006E-002    0.68402553538401634     
   3.7800000000000000E-002    0.37650162284049493     
   3.8100000000000009E-002     8.8755610132594143E-002
   3.8400000000000004E-002   -0.17673003229217077     
   3.8699999999999998E-002   -0.42222323770204717     
   3.9000000000000007E-002   -0.65367207704480990     
   3.9300000000000002E-002   -0.87925134545753281     
   3.9600000000000003E-002    -1.1079777191413029     
   3.9900000000000005E-002    -1.3474854588280749     
   4.0200000000000000E-002    -1.6018759717850486     
   4.0500000000000001E-002    -1.8706409113578459     
   4.0800000000000003E-002    -2.1476588745772958     
   4.1100000000000005E-002    -2.4204938338709496     
   4.1399999999999999E-002    -2.6706401961967856     
   4.1700000000000008E-002    -2.8746885589389564     
   4.2000000000000003E-002    -3.0063775435980915     
   4.2299999999999997E-002    -3.0384834531518976     
   4.2600000000000006E-002    -2.9452471914784155     
   4.2900000000000001E-002    -2.7058286191093828     
   4.3200000000000002E-002    -2.3062527923487011     
   4.3500000000000004E-002    -1.7421035027273319     
   4.3799999999999999E-002    -1.0202807898306610     
   4.4100000000000000E-002   -0.15928950509042217     
   4.4400000000000002E-002    0.81094893773614984     
   4.4700000000000004E-002     1.8497460022226875     
   4.4999999999999998E-002     2.9083567615934864     
   4.5300000000000000E-002     3.9332119905597196     
   4.5600000000000002E-002     4.8692206201153709     
   4.5899999999999996E-002     5.6636912670536077     
   4.6200000000000005E-002     6.2707330328764215     
   4.6500000000000000E-002     6.6544768684941005     
   4.6799999999999994E-002     6.7914688368817053     
   4.7100000000000003E-002     6.6728162318562454     
   4.7399999999999998E-002     6.3051024437968977     
   4.7700000000000006E-002     5.7091900638457673     
   4.8000000000000001E-002     4.9182535507340788     
   4.8300000000000010E-002     3.9762695826850489     
   4.8600000000000004E-002     2.9337154227062996     
   4.8899999999999999E-002     1.8436678644919766     
   4.9200000000000008E-002    0.75823570345629854     
   4.9500000000000002E-002   -0.27513301599211815     
   4.9800000000000011E-002    -1.2170323001084213     
   5.0100000000000006E-002    -2.0386275385633761     
   5.0400000000000000E-002    -2.7224903140152996     
   5.0700000000000009E-002    -3.2631334265256413     
   5.1000000000000004E-002    -3.6670265834447378     
   5.1299999999999998E-002    -3.9503776312660506     
   5.1600000000000007E-002    -4.1371846198278348     
   5.1900000000000002E-002    -4.2563126758971208     
   5.2200000000000010E-002    -4.3375533202686540     
   5.2500000000000005E-002    -4.4088595140886326     
   5.2800000000000000E-002    -4.4934242278141596     
   5.3099999999999994E-002    -4.6064997327073911     
   5.3400000000000003E-002    -4.7532508496920229     
   5.3699999999999998E-002    -4.9284140542052199     
   5.4000000000000006E-002    -5.1163984402569582     
   5.4300000000000001E-002    -5.2918030497118878     
   5.4599999999999996E-002    -5.4217181058520794     
   5.4900000000000004E-002    -5.4692887300512041     
   5.5199999999999999E-002    -5.3965794618064820     
   5.5499999999999994E-002    -5.1679098451831749     
   5.5800000000000002E-002    -4.7542377384686745     
   5.6099999999999997E-002    -4.1366455576576158     
   5.6400000000000006E-002    -3.3073378385041394     
   5.6700000000000000E-002    -2.2725947397333570     
   5.6999999999999995E-002    -1.0537217454233350     
   5.7300000000000004E-002    0.31468512815023075     
   5.7599999999999998E-002     1.7862187584581903     
   5.7900000000000007E-002     3.3043504468480904     
   5.8200000000000002E-002     4.8051819692007633     
   5.8499999999999996E-002     6.2220167416355885     
   5.8800000000000005E-002     7.4895822935668690     
   5.9100000000000000E-002     8.5459440406757778     
   5.9400000000000008E-002     9.3359637106963760     
   5.9700000000000003E-002     9.8152520940163015     
   6.0000000000000012E-002     9.9512467395692283     
   6.0300000000000006E-002     9.7247721023096574     
   6.0600000000000001E-002     9.1310151577063721     
   6.0900000000000010E-002     8.1793947357369632     
   6.1200000000000004E-002     6.8936192676688108     
   6.1500000000000013E-002     5.3113917523475607     
   6.1800000000000008E-002     3.4828417518854735     
   6.2100000000000002E-002     1.4701131681393313     
   6.2399999999999997E-002   -0.65425034801545934     
   6.2700000000000006E-002    -2.8094467436845179     
   6.3000000000000000E-002    -4.9081092312374892     
   6.3300000000000009E-002    -6.8604455835210914     
   6.3600000000000004E-002    -8.5764576292857981     
   6.3899999999999998E-002    -9.9701870734928946     
   6.4199999999999993E-002    -10.966235971077509     
   6.4500000000000002E-002    -11.502582560266973     
   6.4800000000000010E-002    -11.535401566443625     
   6.5100000000000005E-002    -11.045470464369771     
   6.5400000000000000E-002    -10.038847154730831     
   6.5700000000000008E-002    -8.5498244951954803     
   6.5999999999999989E-002    -6.6407172459780099     
   6.6299999999999998E-002    -4.3987648635571333     
   6.6600000000000006E-002    -1.9334289936285103     
   6.6900000000000001E-002    0.63141597183901865     
   6.7199999999999996E-002     3.1646433551552207     
   6.7500000000000004E-002     5.5354341945996737     
   6.7800000000000013E-002     7.6228495612492964     
   6.8099999999999994E-002     9.3233491339988319     
   6.8400000000000002E-002     10.558029726486048     
   6.8700000000000011E-002     11.277968996340462     
   6.8999999999999992E-002     11.464696852533962     
   6.9300000000000000E-002     11.132268015608417     
   6.9600000000000009E-002     10.326087041615267     
   6.9900000000000004E-002     9.1167893499643355     
   7.0199999999999999E-002     7.5946507236642162     
   7.0500000000000007E-002     5.8634325977216122     
   7.0800000000000016E-002     4.0330872015240118     
   7.1099999999999997E-002     2.2120247391020875     
   7.1400000000000005E-002    0.49917064123143362     
   7.1700000000000000E-002    -1.0208590698011761     
   7.1999999999999995E-002    -2.2813705283394654     
   7.2300000000000003E-002    -3.2389078426637070     
   7.2600000000000012E-002    -3.8741574283255034     
   7.2900000000000006E-002    -4.1901583699830773     
   7.3200000000000001E-002    -4.2126266370998486     
   7.3499999999999996E-002    -3.9867049460970492     
   7.3800000000000004E-002    -3.5722416858684340     
   7.4099999999999999E-002    -3.0388542915586072     
   7.4400000000000008E-002    -2.4600441544950797     
   7.4700000000000003E-002    -1.9084272201913990     
   7.5000000000000011E-002    -1.4495457159151499     
   7.5299999999999992E-002    -1.1359792453539228     
   7.5600000000000001E-002    -1.0048619866218438     
   7.5900000000000009E-002    -1.0741435100732062     
   7.6200000000000004E-002    -1.3418293956358482     
   7.6499999999999999E-002    -1.7864231241078272     
   7.6800000000000007E-002    -2.3687882393663529     
   7.7099999999999988E-002    -3.0362458022535748     
   7.7399999999999997E-002    -3.7274076109538612     
   7.7700000000000005E-002    -4.3770034921354579     
   7.8000000000000014E-002    -4.9227315633488331     
   7.8299999999999995E-002    -5.3107276792861029     
   7.8600000000000003E-002    -5.4992776808773982     
   7.8900000000000012E-002    -5.4634230789294946     
   7.9199999999999993E-002    -5.1975092400010396     
   7.9500000000000001E-002    -4.7139381872700028     
   7.9800000000000010E-002    -4.0429457779903970     
   8.0100000000000018E-002    -3.2293900635995669     
   8.0399999999999999E-002    -2.3281649116757919     
   8.0700000000000008E-002    -1.3998777879619269     
   8.1000000000000003E-002   -0.50340502299750489     
   8.1299999999999997E-002    0.30755157819681500     
   8.1600000000000006E-002    0.98906218565130644     
   8.1900000000000014E-002     1.5122868475251323     
   8.2199999999999995E-002     1.8638748227302457     
   8.2500000000000004E-002     2.0476312401286130     
   8.2799999999999999E-002     2.0830612679880400     
   8.3100000000000007E-002     2.0017646051233555     
   8.3400000000000002E-002     1.8458986966214397     
   8.3700000000000011E-002     1.6625827447177706     
   8.4000000000000005E-002     1.4987125018868497     
   8.4300000000000000E-002     1.3979617137794094     
   8.4599999999999995E-002     1.3958861077377449     
   8.4900000000000003E-002     1.5173972242530880     
   8.5199999999999998E-002     1.7754701849664301     
   8.5500000000000007E-002     2.1696319833809881     
   8.5800000000000001E-002     2.6871080078226228     
   8.6100000000000010E-002     3.3044227748111012     
   8.6399999999999991E-002     3.9892669413208068     
   8.6699999999999999E-002     4.7036011991814206     
   8.7000000000000008E-002     5.4058016453125788     
   8.7300000000000003E-002     6.0534196466412027     
   8.7599999999999997E-002     6.6074949505144218     
   8.7900000000000006E-002     7.0329220273609110     
   8.8200000000000014E-002     7.3003446058224881     
   8.8499999999999995E-002     7.3895611724847754     
   8.8800000000000004E-002     7.2891373547172122     
   8.9100000000000013E-002     6.9968904754865093     
   8.9399999999999993E-002     6.5213486335853759     
   8.9700000000000002E-002     5.8794221417589654     
   9.0000000000000011E-002     5.0958003698180221     
   9.0299999999999991E-002     4.2007723782219841     
   9.0600000000000000E-002     3.2274605523318911     
   9.0900000000000009E-002     2.2096567316925402     
   9.1200000000000017E-002     1.1774289439977998     
   9.1499999999999998E-002    0.15441163167880312     
   9.1800000000000007E-002   -0.84198703372840811     
   9.2100000000000001E-002    -1.8037586527237757     
   9.2399999999999996E-002    -2.7314418973728554     
   9.2700000000000005E-002    -3.6306761702075008     
   9.3000000000000013E-002    -4.5114304778936969     
   9.3300000000000008E-002    -5.3823486187457661     
   9.3600000000000003E-002    -6.2482936346280269     
   9.3899999999999997E-002    -7.1076560385640022     
   9.4200000000000006E-002    -7.9484827015678547     
   9.4500000000000001E-002    -8.7497942259475394     
   9.4800000000000009E-002    -9.4845991892349559     
   9.5100000000000004E-002    -10.120818310111474     
   9.5399999999999999E-002    -10.628108123437727     
   9.5699999999999993E-002    -10.982232005006551     
   9.6000000000000002E-002    -11.170438276654977     
   9.6300000000000011E-002    -11.195688307496852     
   9.6600000000000005E-002    -11.074927302128401     
   9.6900000000000000E-002    -10.838306146580521     
   9.7200000000000009E-002    -10.525225277079642     
   9.7499999999999989E-002    -10.173809868358148     
   9.7799999999999998E-002    -9.8126786236292105     
   9.8100000000000007E-002    -9.4522146008364984     
   9.8400000000000015E-002    -9.0743368926254675     
   9.8699999999999996E-002    -8.6301668606517410     
   9.9000000000000005E-002    -8.0374092075037424     
   9.9300000000000013E-002    -7.1846165732740985     
   9.9599999999999994E-002    -5.9436667161462822     
   9.9900000000000003E-002    -4.1835866733421199     
  0.10020000000000001         -1.7897458498055414     
  0.10049999999999999          1.3159866467935331     
  0.10080000000000000          5.1568984723687379     
  0.10110000000000001          9.6826540902196712     
  0.10140000000000000          14.762013526762821     
  0.10170000000000000          20.181985692695964     
  0.10200000000000001          25.651315705221528     
  0.10230000000000002          30.818836457547619     
  0.10260000000000000          35.299029417023462     
  0.10290000000000001          38.701263693327576     
  0.10320000000000000          40.665128456348441     
  0.10350000000000001          40.895661996581453     
  0.10380000000000000          39.194042582538827     
  0.10410000000000001          35.482468350375370     
  0.10440000000000001          29.819349805516367     
  0.10470000000000000          22.404058906204057     
  0.10500000000000000          13.567619423170640     
  0.10530000000000000          3.7523014470430383     
  0.10560000000000000         -6.5181796458076633     
  0.10590000000000001         -16.675075916835226     
  0.10620000000000000         -26.148275422444385     
  0.10650000000000001         -34.407985982209993     
  0.10679999999999999         -41.001498803468962     
  0.10710000000000000         -45.586416603086775     
  0.10740000000000001         -47.950656638481547     
  0.10770000000000000         -48.025380327873620     
  0.10800000000000000         -45.885657345286745     
  0.10830000000000001         -41.735739251390441     
  0.10859999999999999         -35.890557349244432     
  0.10890000000000000         -28.749733076434268     
  0.10920000000000001         -20.763731641721051     
  0.10950000000000001         -12.401214158620746     
  0.10979999999999999         -4.1182286734151745     
  0.11009999999999999          3.6698222219076797     
  0.11040000000000001          10.609188088877318     
  0.11070000000000001          16.427342398820088     
  0.11100000000000000          20.939970816350296     
  0.11130000000000000          24.050145209488846     
  0.11160000000000002          25.749988914348819     
  0.11190000000000001          26.109102400922310     
  0.11220000000000001          25.260772409717106     
  0.11250000000000000          23.391037645648339     
  0.11280000000000000          20.718813846842409     
  0.11309999999999999          17.479795504027436     
  0.11340000000000001          13.913146189219844     
  0.11369999999999998          10.246092052610720     
  0.11400000000000000          6.6827847578395847     
  0.11430000000000000          3.3933476616967440     
  0.11460000000000002         0.50923129439054549     
  0.11489999999999999         -1.8782316481840269     
  0.11520000000000001         -3.7214105929353138     
  0.11550000000000001         -5.0130991439194474     
  0.11580000000000000         -5.7790415616416908     
  0.11609999999999999         -6.0737921928906076     
  0.11640000000000002         -5.9731835927468069     
  0.11670000000000001         -5.5627006716790817     
  0.11700000000000001         -4.9336891404420129     
  0.11730000000000000         -4.1746213503120231     
  0.11760000000000000         -3.3637201475474825     
  0.11789999999999999         -2.5670252753797485     
  0.11820000000000001         -1.8350067112174457     
  0.11850000000000001         -1.2037504887437471     
  0.11880000000000000        -0.69452216035380232     
  0.11910000000000000        -0.31361673192271677     
  0.11940000000000002         -5.9384799871344818E-002
  0.11970000000000001          7.7272970603987190E-002
  0.12000000000000001         0.11277118614043324     
  0.12030000000000000          6.4010181389720255E-002
  0.12060000000000000         -5.0791437810155049E-002
  0.12089999999999999        -0.21214094241238524     
  0.12119999999999999        -0.40233594931166472     
  0.12150000000000001        -0.60465576279632671     
  0.12180000000000001        -0.80359225575809390     
  0.12210000000000000        -0.98599247494856357     
  0.12239999999999999         -1.1391827167547284     
  0.12270000000000002         -1.2541308435771192     
  0.12300000000000001         -1.3242187874594293     
  0.12330000000000001         -1.3433549172380239     
  0.12360000000000000         -1.3106747342737890     
  0.12390000000000000         -1.2275825305838737     
  0.12419999999999999         -1.0962333090992331     
  0.12450000000000001        -0.92284594094921601     
  0.12480000000000001        -0.71372842891991084     
  0.12509999999999999        -0.47651830051554533     
  0.12540000000000001        -0.21994146167793005     
  0.12570000000000003          4.9214373631842001E-002
  0.12600000000000000         0.32268609799070269     
  0.12630000000000002         0.59286420173621490     
  0.12659999999999999         0.85346458719816809     
  0.12690000000000001          1.0959131565658424     
  0.12719999999999998          1.3134803882044999     
  0.12750000000000000          1.4995438040496936     
  0.12780000000000002          1.6455043821793041     
  0.12809999999999999          1.7439181979903395     
  0.12840000000000001          1.7879252738209033     
  0.12869999999999998          1.7729595000061735     
  0.12900000000000000          1.6963735348625519     
  0.12930000000000003          1.5569427223703300     
  0.12959999999999999          1.3578830464003673     
  0.12990000000000002          1.1069720745319103     
  0.13019999999999998         0.81377092055800659     
  0.13050000000000000         0.49039936864832612     
  0.13080000000000003         0.15266032964998244     
  0.13109999999999999        -0.18339423657318399     
  0.13140000000000002        -0.50230029184772018     
  0.13169999999999998        -0.78913482643832999     
  0.13200000000000001         -1.0324017270217496     
  0.13229999999999997         -1.2227458749215714     
  0.13260000000000000         -1.3549012701423919     
  0.13290000000000002         -1.4278700807427214     
  0.13319999999999999         -1.4419733331904538     
  0.13350000000000001         -1.4027808727834667     
  0.13380000000000003         -1.3168072011743490     
  0.13410000000000000         -1.1903230876486148     
  0.13440000000000002         -1.0318987197894458     
  0.13469999999999999        -0.84841051073825469     
  0.13500000000000001        -0.64652005166733773     
  0.13529999999999998        -0.43292049781033981     
  0.13560000000000000        -0.21229216694471287     
  0.13590000000000002          8.5418115282869245E-003
  0.13619999999999999         0.22284203173681050     
  0.13650000000000001         0.42417616545206194     
  0.13680000000000003         0.60314465015893148     
  0.13710000000000000         0.74975730839630117     
  0.13740000000000002         0.85443539501581256     
  0.13769999999999999         0.90752645057601100     
  0.13800000000000001         0.90145435822405773     
  0.13829999999999998         0.83126245741417648     
  0.13860000000000000         0.69629842965062494     
  0.13890000000000002         0.50196764575800223     
  0.13919999999999999         0.25784771769819592     
  0.13950000000000001         -2.0830204180085632E-002
  0.13979999999999998        -0.31408662997202264     
  0.14010000000000000        -0.60063595708231787     
  0.14040000000000002        -0.85792460246370794     
  0.14069999999999999         -1.0636866506039055     
  0.14100000000000001         -1.2006864386350458     
  0.14130000000000004         -1.2568898695721700     
  0.14160000000000000         -1.2266904696767398     
  0.14189999999999997         -1.1118967250700109     
  0.14219999999999999        -0.92103508348017371     
  0.14250000000000002        -0.66926617077365691     
  0.14279999999999998        -0.37566557653994259     
  0.14310000000000000         -6.1022322011676566E-002
  0.14339999999999997         0.25266233172973429     
  0.14369999999999999         0.54632173185064614     
  0.14400000000000002         0.80574136968531107     
  0.14429999999999998          1.0195732907663277     
  0.14460000000000001          1.1836093266845893     
  0.14490000000000003          1.2984530228404836     
  0.14520000000000000          1.3681360067075019     
  0.14550000000000002          1.3999138657421994     
  0.14579999999999999          1.4004172954222938     
  0.14610000000000001          1.3751695735260654     
  0.14640000000000003          1.3286732247812196     
  0.14670000000000000          1.2603888948911006     
  0.14699999999999996          1.1670175821064106     
  0.14729999999999999          1.0433391780972521     
  0.14760000000000001         0.88235240668063852     
  0.14789999999999998         0.67924588461803381     
  0.14820000000000000         0.43127528571867746     