  -1.4999999999999999E-002     0.0000000000000000     
  -1.4700000000000000E-002     0.0000000000000000     
  -1.4400000000000000E-002     0.0000000000000000     
  -1.4100000000000000E-002     0.0000000000000000     
  -1.3800000000000000E-002     0.0000000000000000     
  -1.3500000000000000E-002     0.0000000000000000     
  -1.3200000000000000E-002     0.0000000000000000     
  -1.2899999999999998E-002     0.0000000000000000     
  -1.2600000000000000E-002     0.0000000000000000     
  -1.2299999999999998E-002     0.0000000000000000     
  -1.2000000000000000E-002     0.0000000000000000     
  -1.1699999999999999E-002     0.0000000000000000     
  -1.1399999999999999E-002     0.0000000000000000     
  -1.1099999999999999E-002     0.0000000000000000     
  -1.0799999999999999E-002     0.0000000000000000     
  -1.0499999999999999E-002     0.0000000000000000     
  -1.0199999999999999E-002     0.0000000000000000     
  -9.8999999999999991E-003     0.0000000000000000     
  -9.5999999999999992E-003     0.0000000000000000     
  -9.2999999999999992E-003     0.0000000000000000     
  -8.9999999999999993E-003     0.0000000000000000     
  -8.6999999999999994E-003     0.0000000000000000     
  -8.3999999999999995E-003     0.0000000000000000     
  -8.0999999999999996E-003     0.0000000000000000     
  -7.7999999999999988E-003     0.0000000000000000     
  -7.4999999999999997E-003     0.0000000000000000     
  -7.1999999999999998E-003     0.0000000000000000     
  -6.8999999999999981E-003     0.0000000000000000     
  -6.5999999999999982E-003     0.0000000000000000     
  -6.3000000000000000E-003     0.0000000000000000     
  -6.0000000000000001E-003     0.0000000000000000     
  -5.6999999999999985E-003     0.0000000000000000     
  -5.3999999999999986E-003     0.0000000000000000     
  -5.1000000000000004E-003     0.0000000000000000     
  -4.7999999999999987E-003     0.0000000000000000     
  -4.5000000000000005E-003     0.0000000000000000     
  -4.1999999999999989E-003     0.0000000000000000     
  -3.8999999999999990E-003     0.0000000000000000     
  -3.5999999999999990E-003     0.0000000000000000     
  -3.2999999999999991E-003     0.0000000000000000     
  -2.9999999999999992E-003     0.0000000000000000     
  -2.6999999999999993E-003     0.0000000000000000     
  -2.3999999999999994E-003     0.0000000000000000     
  -2.0999999999999977E-003     0.0000000000000000     
  -1.7999999999999995E-003     0.0000000000000000     
  -1.4999999999999979E-003     0.0000000000000000     
  -1.1999999999999997E-003     0.0000000000000000     
  -8.9999999999999976E-004     0.0000000000000000     
  -5.9999999999999810E-004     0.0000000000000000     
  -2.9999999999999992E-004     0.0000000000000000     
   0.0000000000000000          0.0000000000000000     
   3.0000000000000165E-004     0.0000000000000000     
   5.9999999999999984E-004     0.0000000000000000     
   9.0000000000000149E-004     0.0000000000000000     
   1.2000000000000031E-003     0.0000000000000000     
   1.5000000000000013E-003     0.0000000000000000     
   1.8000000000000030E-003     0.0000000000000000     
   2.1000000000000012E-003     0.0000000000000000     
   2.3999999999999994E-003     0.0000000000000000     
   2.7000000000000010E-003     0.0000000000000000     
   2.9999999999999992E-003     0.0000000000000000     
   3.3000000000000008E-003     0.0000000000000000     
   3.6000000000000025E-003     0.0000000000000000     
   3.9000000000000007E-003     0.0000000000000000     
   4.2000000000000023E-003     0.0000000000000000     
   4.5000000000000005E-003     0.0000000000000000     
   4.7999999999999987E-003     0.0000000000000000     
   5.1000000000000004E-003     6.4436156155655327E-037
   5.4000000000000020E-003     7.4730094674585434E-036
   5.7000000000000037E-003    -1.6713005627478211E-035
   5.9999999999999984E-003    -3.6127495867406480E-035
   6.3000000000000000E-003     1.1618611418288933E-034
   6.6000000000000017E-003    -6.5613242022800681E-035
   6.9000000000000034E-003    -3.8393238843714251E-034
   7.2000000000000015E-003     1.5145420027589676E-033
   7.5000000000000032E-003    -1.8376495839565128E-033
   7.8000000000000014E-003    -6.3185436831628533E-033
   8.0999999999999996E-003     2.6741388577781391E-032
   8.4000000000000012E-003    -1.9633140442896432E-032
   8.7000000000000029E-003    -7.8491719220366408E-032
   9.0000000000000011E-003     2.7351769309170442E-031
   9.2999999999999992E-003    -7.8945899674671019E-031
   9.6000000000000009E-003     1.7757640205329671E-030
   9.8999999999999991E-003     5.5718311858354904E-030
   1.0200000000000001E-002    -6.9038178770686242E-029
   1.0500000000000002E-002     2.9017931101596581E-028
   1.0800000000000004E-002    -5.5179944022085080E-028
   1.1099999999999999E-002    -9.5504593344828649E-028
   1.1400000000000000E-002     1.2433696639259087E-026
   1.1700000000000002E-002    -5.9053227570374926E-026
   1.2000000000000004E-002     1.9849311934195277E-025
   1.2300000000000002E-002    -5.2607777914508429E-025
   1.2600000000000000E-002     1.0949899165827643E-024
   1.2900000000000002E-002    -1.1677018886225401E-024
   1.3200000000000000E-002    -6.8847141305567211E-024
   1.3500000000000002E-002     7.8349715593648827E-023
   1.3800000000000003E-002    -5.3739774656940172E-022
   1.4100000000000001E-002     2.9837828430949451E-021
   1.4400000000000000E-002    -1.4268107856173932E-020
   1.4700000000000001E-002     6.0548360680917190E-020
   1.4999999999999999E-002    -2.3338383995300830E-019
   1.5300000000000001E-002     8.3731605659863992E-019
   1.5600000000000003E-002    -2.8892895604739817E-018
   1.5899999999999997E-002     1.0057728772701666E-017
   1.6199999999999999E-002    -3.7400508175442117E-017
   1.6500000000000001E-002     1.5383838857812204E-016
   1.6800000000000002E-002    -6.8626556446984210E-016
   1.7100000000000004E-002     3.1300946365809667E-015
   1.7400000000000006E-002    -1.3735953834862619E-014
   1.7700000000000000E-002     5.5189078811525641E-014
   1.8000000000000002E-002    -1.9345758176837757E-013
   1.8300000000000004E-002     5.5019248705601154E-013
   1.8600000000000005E-002    -1.0483104185068925E-012
   1.8900000000000000E-002    -4.1509547535345526E-014
   1.9200000000000002E-002     1.0251917370585062E-011
   1.9500000000000003E-002    -4.6203478543116461E-011
   1.9799999999999998E-002     1.0746563361418993E-010
   2.0100000000000000E-002    -5.8207924591435756E-011
   2.0400000000000001E-002    -5.1607768059014347E-010
   2.0700000000000003E-002     1.7864802970279925E-009
   2.0999999999999998E-002    -1.4868793973832339E-009
   2.1299999999999999E-002    -5.7261022590182620E-009
   2.1600000000000001E-002     1.5710231338061931E-008
   2.1900000000000003E-002     3.5782579121956815E-009
   2.2200000000000004E-002    -6.1187698463527340E-008
   2.2500000000000006E-002     1.4606180265275270E-008
   2.2800000000000001E-002     1.8781841504278418E-007
   2.3100000000000002E-002    -5.3061484095451306E-009
   2.3400000000000004E-002    -5.6495747458029655E-007
   2.3699999999999999E-002    -3.7514399764404516E-007
   2.4000000000000000E-002     1.9467750007606810E-006
   2.4300000000000002E-002     6.6078455347451381E-006
   2.4599999999999997E-002     1.2804739526472986E-005
   2.4900000000000005E-002     2.0408853742992505E-005
   2.5200000000000000E-002     3.0843009881209582E-005
   2.5499999999999995E-002     4.6854456741129979E-005
   2.5800000000000003E-002     7.2259434091392905E-005
   2.6099999999999998E-002     1.1178042041137815E-004
   2.6400000000000007E-002     1.7131216009147465E-004
   2.6700000000000002E-002     2.5878209271468222E-004
   2.6999999999999996E-002     3.8543430855497718E-004
   2.7300000000000005E-002     5.6723266607150435E-004
   2.7600000000000000E-002     8.2520290743559599E-004
   2.7900000000000008E-002     1.1848364956676960E-003
   2.8200000000000003E-002     1.6760673606768250E-003
   2.8499999999999998E-002     2.3342955391854048E-003
   2.8800000000000006E-002     3.2012630254030228E-003
   2.9100000000000001E-002     4.3237460777163506E-003
   2.9400000000000003E-002     5.7501001283526421E-003
   2.9700000000000004E-002     7.5256149284541607E-003
   3.0000000000000006E-002     9.6877552568912506E-003
   3.0300000000000001E-002     1.2258859351277351E-002
   3.0600000000000002E-002     1.5236696228384972E-002
   3.0900000000000004E-002     1.8584271892905235E-002
   3.1199999999999999E-002     2.2220101207494736E-002
   3.1500000000000007E-002     2.6008188724517822E-002
   3.1800000000000002E-002     2.9748536646366119E-002
   3.2099999999999997E-002     3.3172596246004105E-002
   3.2400000000000005E-002     3.5947788506746292E-002
   3.2700000000000000E-002     3.7689276039600372E-002
   3.3000000000000002E-002     3.7975508719682693E-002
   3.3300000000000003E-002     3.6383569240570068E-002
   3.3599999999999998E-002     3.2525170594453812E-002
   3.3900000000000000E-002     2.6101961731910706E-002
   3.4200000000000001E-002     1.6960816457867622E-002
   3.4500000000000003E-002     5.1453886553645134E-003
   3.4799999999999998E-002    -9.0468889102339745E-003
   3.5099999999999999E-002    -2.5030827149748802E-002
   3.5400000000000001E-002    -4.1917223483324051E-002
   3.5699999999999996E-002    -5.8525156229734421E-002
   3.6000000000000004E-002    -7.3429003357887268E-002
   3.6299999999999999E-002    -8.5038781166076660E-002
   3.6600000000000008E-002    -9.1711893677711487E-002
   3.6900000000000002E-002    -9.1907218098640442E-002
   3.7199999999999997E-002    -8.4337547421455383E-002
   3.7500000000000006E-002    -6.8131208419799805E-002
   3.7800000000000000E-002    -4.2996641248464584E-002
   3.8100000000000009E-002    -9.3250116333365440E-003
   3.8400000000000004E-002     3.1727563589811325E-002
   3.8699999999999998E-002     7.8232392668724060E-002
   3.9000000000000007E-002    0.12755903601646423     
   3.9300000000000002E-002    0.17648163437843323     
   3.9600000000000003E-002    0.22138039767742157     
   3.9900000000000005E-002    0.25848793983459473     
   4.0200000000000000E-002    0.28415110707283020     
   4.0500000000000001E-002    0.29511687159538269     
   4.0800000000000003E-002    0.28878736495971680     
   4.1100000000000005E-002    0.26344701647758484     
   4.1399999999999999E-002    0.21842347085475922     
   4.1700000000000008E-002    0.15417642891407013     
   4.2000000000000003E-002     7.2328686714172363E-002
   4.2299999999999997E-002    -2.4432063102722168E-002
   4.2600000000000006E-002   -0.13246047496795654     
   4.2900000000000001E-002   -0.24739122390747070     
   4.3200000000000002E-002   -0.36435317993164062     
   4.3500000000000004E-002   -0.47822543978691101     
   4.3799999999999999E-002   -0.58394753932952881     
   4.4100000000000000E-002   -0.67671465873718262     
   4.4400000000000002E-002   -0.75227153301239014     
   4.4700000000000004E-002   -0.80708360671997070     
   4.4999999999999998E-002   -0.83846980333328247     
   4.5300000000000000E-002   -0.84475040435791016     
   4.5600000000000002E-002   -0.82524478435516357     
   4.5899999999999996E-002   -0.78028815984725952     
   4.6200000000000005E-002   -0.71120393276214600     
   4.6500000000000000E-002   -0.62017810344696045     
   4.6799999999999994E-002   -0.51017606258392334     
   4.7100000000000003E-002   -0.38477769494056702     
   4.7399999999999998E-002   -0.24798777699470520     
   4.7700000000000006E-002   -0.10407459735870361     
   4.8000000000000001E-002     4.2577121406793594E-002
   4.8300000000000010E-002    0.18780326843261719     
   4.8600000000000004E-002    0.32760059833526611     
   4.8899999999999999E-002    0.45851495862007141     
   4.9200000000000008E-002    0.57768416404724121     
   4.9500000000000002E-002    0.68292403221130371     
   4.9800000000000011E-002    0.77295732498168945     
   5.0100000000000006E-002    0.84725779294967651     
   5.0400000000000000E-002    0.90614098310470581     
   5.0700000000000009E-002    0.95074272155761719     
   5.1000000000000004E-002    0.98270648717880249     
   5.1299999999999998E-002     1.0041775703430176     
   5.1600000000000007E-002     1.0173999071121216     
   5.1900000000000002E-002     1.0243753194808960     
   5.2200000000000010E-002     1.0267304182052612     
   5.2500000000000005E-002     1.0251603126525879     
   5.2800000000000000E-002     1.0193566083908081     
   5.3099999999999994E-002     1.0077316761016846     
   5.3400000000000003E-002    0.98734349012374878     
   5.3699999999999998E-002    0.95421308279037476     
   5.4000000000000006E-002    0.90322214365005493     
   5.4300000000000001E-002    0.82889360189437866     
   5.4599999999999996E-002    0.72584754228591919     
   5.4900000000000004E-002    0.58939033746719360     
   5.5199999999999999E-002    0.41638055443763733     
   5.5499999999999994E-002    0.20574280619621277     
   5.5800000000000002E-002    -4.0887750685214996E-002
   5.6099999999999997E-002   -0.31892520189285278     
   5.6400000000000006E-002   -0.62065637111663818     
   5.6700000000000000E-002   -0.93552720546722412     
   5.6999999999999995E-002    -1.2504893541336060     
   5.7300000000000004E-002    -1.5509170293807983     
   5.7599999999999998E-002    -1.8215464353561401     
   5.7900000000000007E-002    -2.0474286079406738     
   5.8200000000000002E-002    -2.2152731418609619     
   5.8499999999999996E-002    -2.3142390251159668     
   5.8800000000000005E-002    -2.3366837501525879     
   5.9100000000000000E-002    -2.2790563106536865     
   5.9400000000000008E-002    -2.1416530609130859     
   5.9700000000000003E-002    -1.9288020133972168     
   6.0000000000000012E-002    -1.6483755111694336     
   6.0300000000000006E-002    -1.3108838796615601     
   6.0600000000000001E-002   -0.92902332544326782     
   6.0900000000000010E-002   -0.51631623506546021     
   6.1200000000000004E-002    -8.6370915174484253E-002
   6.1500000000000013E-002    0.34765446186065674     
   6.1800000000000008E-002    0.77405822277069092     
   6.2100000000000002E-002     1.1825029850006104     
   6.2399999999999997E-002     1.5643614530563354     
   6.2700000000000006E-002     1.9126342535018921     
   6.3000000000000000E-002     2.2213668823242188     
   6.3300000000000009E-002     2.4857165813446045     
   6.3600000000000004E-002     2.7011265754699707     
   6.3899999999999998E-002     2.8632528781890869     
   6.4199999999999993E-002     2.9676945209503174     
   6.4500000000000002E-002     3.0097360610961914     
   6.4800000000000010E-002     2.9848186969757080     
   6.5100000000000005E-002     2.8885056972503662     
   6.5400000000000000E-002     2.7169537544250488     
   6.5700000000000008E-002     2.4676830768585205     
   6.5999999999999989E-002     2.1397347450256348     
   6.6299999999999998E-002     1.7344690561294556     
   6.6600000000000006E-002     1.2561703920364380     
   6.6900000000000001E-002    0.71214103698730469     
   6.7199999999999996E-002    0.11320140957832336     
   6.7500000000000004E-002   -0.52634620666503906     
   6.7800000000000013E-002    -1.1887651681900024     
   6.8099999999999994E-002    -1.8532031774520874     
   6.8400000000000002E-002    -2.4963769912719727     
   6.8700000000000011E-002    -3.0932726860046387     
   6.8999999999999992E-002    -3.6182823181152344     
   6.9300000000000000E-002    -4.0465073585510254     
   6.9600000000000009E-002    -4.3550243377685547     
   6.9900000000000004E-002    -4.5245809555053711     
   7.0199999999999999E-002    -4.5409851074218750     
   7.0500000000000007E-002    -4.3963122367858887     
   7.0800000000000016E-002    -4.0902647972106934     
   7.1099999999999997E-002    -3.6307077407836914     
   7.1400000000000005E-002    -3.0338344573974609     
   7.1700000000000000E-002    -2.3238239288330078     
   7.1999999999999995E-002    -1.5317963361740112     
   7.2300000000000003E-002   -0.69411599636077881     
   7.2600000000000012E-002    0.14962807297706604     
   7.2900000000000006E-002    0.95911449193954468     
   7.3200000000000001E-002     1.6960011720657349     
   7.3499999999999996E-002     2.3263425827026367     
   7.3800000000000004E-002     2.8230242729187012     
   7.4099999999999999E-002     3.1673762798309326     
   7.4400000000000008E-002     3.3505296707153320     
   7.4700000000000003E-002     3.3735709190368652     
   7.5000000000000011E-002     3.2469809055328369     
   7.5299999999999992E-002     2.9896013736724854     
   7.5600000000000001E-002     2.6264274120330811     
   7.5900000000000009E-002     2.1865079402923584     
   7.6200000000000004E-002     1.7004212141036987     
   7.6499999999999999E-002     1.1977039575576782     
   7.6800000000000007E-002    0.70499086380004883     
   7.7099999999999988E-002    0.24398012459278107     
   7.7399999999999997E-002   -0.16918258368968964     
   7.7700000000000005E-002   -0.52432340383529663     
   7.8000000000000014E-002   -0.81699675321578979     
   7.8299999999999995E-002    -1.0472024679183960     
   7.8600000000000003E-002    -1.2184528112411499     
   7.8900000000000012E-002    -1.3360985517501831     
   7.9199999999999993E-002    -1.4059916734695435     
   7.9500000000000001E-002    -1.4332226514816284     
   7.9800000000000010E-002    -1.4215675592422485     
   8.0100000000000018E-002    -1.3731409311294556     
   8.0399999999999999E-002    -1.2887386083602905     
   8.0700000000000008E-002    -1.1685264110565186     
   8.1000000000000003E-002    -1.0125715732574463     
   8.1299999999999997E-002   -0.82258975505828857     
   8.1600000000000006E-002   -0.60226136445999146     
   8.1900000000000014E-002   -0.35807508230209351     
   8.2199999999999995E-002    -9.9743761122226715E-002
   8.2500000000000004E-002    0.16068169474601746     
   8.2799999999999999E-002    0.40885195136070251     
   8.3100000000000007E-002    0.63009667396545410     
   8.3400000000000002E-002    0.81073492765426636     
   8.3700000000000011E-002    0.93921774625778198     
   8.4000000000000005E-002     1.0085022449493408     
   8.4300000000000000E-002     1.0163366794586182     
   8.4599999999999995E-002    0.96622103452682495     
   8.4900000000000003E-002    0.86749017238616943     
   8.5199999999999998E-002    0.73386800289154053     
   8.5500000000000007E-002    0.58296942710876465     
   8.5800000000000001E-002    0.43348050117492676     
   8.6100000000000010E-002    0.30326208472251892     
   8.6399999999999991E-002    0.20755283534526825     
   8.6699999999999999E-002    0.15584309399127960     
   8.7000000000000008E-002    0.15180955827236176     
   8.7300000000000003E-002    0.19180189073085785     
   8.7599999999999997E-002    0.26506453752517700     
   8.7900000000000006E-002    0.35574108362197876     
   8.8200000000000014E-002    0.44380396604537964     
   8.8499999999999995E-002    0.50863945484161377     
   8.8800000000000004E-002    0.53131252527236938     
   8.9100000000000013E-002    0.49761167168617249     
   8.9399999999999993E-002    0.40075397491455078     
   8.9700000000000002E-002    0.24232369661331177     
   9.0000000000000011E-002     3.3413112163543701E-002
   9.0299999999999991E-002   -0.20634773373603821     
   9.0600000000000000E-002   -0.45028087496757507     
   9.0900000000000009E-002   -0.66767716407775879     
   9.1200000000000017E-002   -0.82727336883544922     
   9.1499999999999998E-002   -0.90070873498916626     
   9.1800000000000007E-002   -0.86636775732040405     
   9.2100000000000001E-002   -0.71249729394912720     
   9.2399999999999996E-002   -0.43854027986526489     
   9.2700000000000005E-002    -5.6447856128215790E-002
   9.3000000000000013E-002    0.41005587577819824     
   9.3300000000000008E-002    0.92759048938751221     
   9.3600000000000003E-002     1.4556338787078857     
   9.3899999999999997E-002     1.9507914781570435     
   9.4200000000000006E-002     2.3704104423522949     
   9.4500000000000001E-002     2.6768400669097900     
   9.4800000000000009E-002     2.8404693603515625     
   9.5100000000000004E-002     2.8424756526947021     
   9.5399999999999999E-002     2.6763753890991211     
   9.5699999999999993E-002     2.3475680351257324     
   9.6000000000000002E-002     1.8731913566589355     
   9.6300000000000011E-002     1.2795397043228149     
   9.6600000000000005E-002    0.59961622953414917     
   9.6900000000000000E-002   -0.12953975796699524     
   9.7200000000000009E-002   -0.87045431137084961     
   9.7499999999999989E-002    -1.5871993303298950     
   9.7799999999999998E-002    -2.2482445240020752     
   9.8100000000000007E-002    -2.8277664184570312     
   9.8400000000000015E-002    -3.3060677051544189     
   9.8699999999999996E-002    -3.6700043678283691     
   9.9000000000000005E-002    -3.9122986793518066     
   9.9300000000000013E-002    -4.0307998657226562     
   9.9599999999999994E-002    -4.0273199081420898     
   9.9900000000000003E-002    -3.9066774845123291     
  0.10020000000000001         -3.6757838726043701     
  0.10049999999999999         -3.3431444168090820     
  0.10080000000000000         -2.9188539981842041     
  0.10110000000000001         -2.4144761562347412     
  0.10140000000000000         -1.8433557748794556     
  0.10170000000000000         -1.2215018272399902     
  0.10200000000000001        -0.56708908081054688     
  0.10230000000000002          9.8567470908164978E-002
  0.10260000000000000         0.75156348943710327     
  0.10290000000000001          1.3665459156036377     
  0.10320000000000000          1.9169465303421021     
  0.10350000000000001          2.3773069381713867     
  0.10380000000000000          2.7244234085083008     
  0.10410000000000001          2.9397528171539307     
  0.10440000000000001          3.0112414360046387     
  0.10470000000000000          2.9343147277832031     
  0.10500000000000000          2.7137525081634521     
  0.10530000000000000          2.3635423183441162     
  0.10560000000000000          1.9065219163894653     
  0.10590000000000001          1.3736655712127686     
  0.10620000000000000         0.80157709121704102     
  0.10650000000000001         0.23051126301288605     
  0.10679999999999999        -0.29827734827995300     
  0.10710000000000000        -0.74655663967132568     
  0.10740000000000001         -1.0811164379119873     
  0.10770000000000000         -1.2766288518905640     
  0.10800000000000000         -1.3179913759231567     
  0.10830000000000001         -1.2009129524230957     
  0.10859999999999999        -0.93320864439010620     
  0.10890000000000000        -0.53398966789245605     
  0.10920000000000001         -3.2428473234176636E-002
  0.10950000000000001         0.53388470411300659     
  0.10979999999999999          1.1219748258590698     
  0.11009999999999999          1.6857830286026001     
  0.11040000000000001          2.1798980236053467     
  0.11070000000000001          2.5623641014099121     
  0.11100000000000000          2.7973802089691162     
  0.11130000000000000          2.8585355281829834     
  0.11160000000000002          2.7304720878601074     
  0.11190000000000001          2.4102292060852051     
  0.11220000000000001          1.9079298973083496     
  0.11250000000000000          1.2465403079986572     
  0.11280000000000000         0.46075680851936340     
  0.11309999999999999        -0.40494200587272644     
  0.11340000000000001         -1.2992405891418457     
  0.11369999999999998         -2.1668081283569336     
  0.11400000000000000         -2.9524292945861816     
  0.11430000000000000         -3.6046867370605469     
  0.11460000000000002         -4.0796165466308594     
  0.11489999999999999         -4.3443999290466309     
  0.11520000000000001         -4.3791270256042480     
  0.11550000000000001         -4.1794657707214355     
  0.11580000000000000         -3.7565779685974121     
  0.11609999999999999         -3.1365540027618408     
  0.11640000000000002         -2.3591196537017822     
  0.11670000000000001         -1.4742497205734253     
  0.11700000000000001        -0.53882032632827759     
  0.11730000000000000         0.38780665397644043     
  0.11760000000000000          1.2482587099075317     
  0.11789999999999999          1.9912871122360229     
  0.11820000000000001          2.5757014751434326     
  0.11850000000000001          2.9733870029449463     
  0.11880000000000000          3.1709084510803223     
  0.11910000000000000          3.1707634925842285     
  0.11940000000000002          2.9897701740264893     
  0.11970000000000001          2.6582159996032715     
  0.12000000000000001          2.2163519859313965     
  0.12030000000000000          1.7103246450424194     
  0.12060000000000000          1.1891342401504517     
  0.12089999999999999         0.69904184341430664     
  0.12119999999999999         0.28093898296356201     
  0.12150000000000001         -3.3859014511108398E-002
  0.12180000000000001        -0.22569589316844940     
  0.12210000000000000        -0.28704074025154114     
  0.12239999999999999        -0.22364893555641174     
  0.12270000000000002         -5.1922120153903961E-002
  0.12300000000000001         0.20195733010768890     
  0.12330000000000001         0.50588726997375488     
  0.12360000000000000         0.82493549585342407     
  0.12390000000000000          1.1240540742874146     
  0.12419999999999999          1.3721984624862671     
  0.12450000000000001          1.5434490442276001     
  0.12480000000000001          1.6190227270126343     
  0.12509999999999999          1.5881270170211792     
  0.12540000000000001          1.4469673633575439     
  0.12570000000000003          1.1986427307128906     
  0.12600000000000000         0.85107976198196411     
  0.12630000000000002         0.41542461514472961     
  0.12659999999999999         -9.4551548361778259E-002
  0.12690000000000001        -0.66452956199645996     
  0.12719999999999998         -1.2797445058822632     
  0.12750000000000000         -1.9247469902038574     
  0.12780000000000002         -2.5841162204742432     
  0.12809999999999999         -3.2402377128601074     
  0.12840000000000001         -3.8740563392639160     
  0.12869999999999998         -4.4638514518737793     
  0.12900000000000000         -4.9853439331054688     
  0.12930000000000003         -5.4130935668945312     
  0.12959999999999999         -5.7201857566833496     
  0.12990000000000002         -5.8820114135742188     
  0.13019999999999998         -5.8770909309387207     
  0.13050000000000000         -5.6894454956054688     
  0.13080000000000003         -5.3117761611938477     
  0.13109999999999999         -4.7454628944396973     
  0.13140000000000002         -4.0025610923767090     
  0.13169999999999998         -3.1047465801239014     
  0.13200000000000001         -2.0822381973266602     
  0.13229999999999997        -0.97245198488235474     
  0.13260000000000000         0.18403823673725128     
  0.13290000000000002          1.3455617427825928     
  0.13319999999999999          2.4727163314819336     
  0.13350000000000001          3.5317184925079346     
  0.13380000000000003          4.4952650070190430     
  0.13410000000000000          5.3448333740234375     
  0.13440000000000002          6.0703163146972656     
  0.13469999999999999          6.6689887046813965     
  0.13500000000000001          7.1449484825134277     
  0.13529999999999998          7.5056581497192383     
  0.13560000000000000          7.7604546546936035     
  0.13590000000000002          7.9180035591125488     
  0.13619999999999999          7.9836597442626953     
  0.13650000000000001          7.9588756561279297     
  0.13680000000000003          7.8402147293090820     
  0.13710000000000000          7.6196284294128418     
  0.13740000000000002          7.2854075431823730     
  0.13769999999999999          6.8238129615783691     
  0.13800000000000001          6.2210078239440918     
  0.13829999999999998          5.4655113220214844     
  0.13860000000000000          4.5506038665771484     
  0.13890000000000002          3.4752340316772461     
  0.13919999999999999          2.2465376853942871     
  0.13950000000000001         0.88032650947570801     
  0.13979999999999998        -0.59933680295944214     
  0.14010000000000000         -2.1597611904144287     
  0.14040000000000002         -3.7614428997039795     
  0.14069999999999999         -5.3591160774230957     
  0.14100000000000001         -6.9037966728210449     
  0.14130000000000004         -8.3455648422241211     
  0.14160000000000000         -9.6343107223510742     
  0.14189999999999997         -10.723635673522949     
  0.14219999999999999         -11.571950912475586     
  0.14250000000000002         -12.144250869750977     
  0.14279999999999998         -12.414593696594238     
  0.14310000000000000         -12.365888595581055     
  0.14339999999999997         -11.991920471191406     
  0.14369999999999999         -11.296957015991211     
  0.14400000000000002         -10.295363426208496     
  0.14429999999999998         -9.0125074386596680     
  0.14460000000000001         -7.4821686744689941     
  0.14490000000000003         -5.7470297813415527     
  0.14520000000000000         -3.8565199375152588     
  0.14550000000000002         -1.8657147884368896     
  0.14579999999999999         0.16527061164379120     
  0.14610000000000001          2.1752409934997559     
  0.14640000000000003          4.1002526283264160     
  0.14670000000000000          5.8783288002014160     
  0.14699999999999996          7.4501914978027344     
  0.14729999999999999          8.7603693008422852     
  0.14760000000000001          9.7623767852783203     
  0.14789999999999998          10.417508125305176     
  0.14820000000000000          10.699316024780273     