  -1.4999999999999999E-002     0.0000000000000000     
  -1.4700000000000000E-002     0.0000000000000000     
  -1.4400000000000000E-002     0.0000000000000000     
  -1.4100000000000000E-002     0.0000000000000000     
  -1.3800000000000000E-002     0.0000000000000000     
  -1.3500000000000000E-002     0.0000000000000000     
  -1.3200000000000000E-002     0.0000000000000000     
  -1.2899999999999998E-002     0.0000000000000000     
  -1.2600000000000000E-002     0.0000000000000000     
  -1.2299999999999998E-002     0.0000000000000000     
  -1.2000000000000000E-002     0.0000000000000000     
  -1.1699999999999999E-002     0.0000000000000000     
  -1.1399999999999999E-002     0.0000000000000000     
  -1.1099999999999999E-002     0.0000000000000000     
  -1.0799999999999999E-002     0.0000000000000000     
  -1.0499999999999999E-002     0.0000000000000000     
  -1.0199999999999999E-002     0.0000000000000000     
  -9.8999999999999991E-003     0.0000000000000000     
  -9.5999999999999992E-003     0.0000000000000000     
  -9.2999999999999992E-003     0.0000000000000000     
  -8.9999999999999993E-003     0.0000000000000000     
  -8.6999999999999994E-003     0.0000000000000000     
  -8.3999999999999995E-003     0.0000000000000000     
  -8.0999999999999996E-003     0.0000000000000000     
  -7.7999999999999988E-003     0.0000000000000000     
  -7.4999999999999997E-003     0.0000000000000000     
  -7.1999999999999998E-003     0.0000000000000000     
  -6.8999999999999981E-003     0.0000000000000000     
  -6.5999999999999982E-003     0.0000000000000000     
  -6.3000000000000000E-003     0.0000000000000000     
  -6.0000000000000001E-003     0.0000000000000000     
  -5.6999999999999985E-003     0.0000000000000000     
  -5.3999999999999986E-003     0.0000000000000000     
  -5.1000000000000004E-003     0.0000000000000000     
  -4.7999999999999987E-003     0.0000000000000000     
  -4.5000000000000005E-003     0.0000000000000000     
  -4.1999999999999989E-003     0.0000000000000000     
  -3.8999999999999990E-003     0.0000000000000000     
  -3.5999999999999990E-003     0.0000000000000000     
  -3.2999999999999991E-003     0.0000000000000000     
  -2.9999999999999992E-003     0.0000000000000000     
  -2.6999999999999993E-003     0.0000000000000000     
  -2.3999999999999994E-003     0.0000000000000000     
  -2.0999999999999977E-003     0.0000000000000000     
  -1.7999999999999995E-003     0.0000000000000000     
  -1.4999999999999979E-003     0.0000000000000000     
  -1.1999999999999997E-003     0.0000000000000000     
  -8.9999999999999976E-004     0.0000000000000000     
  -5.9999999999999810E-004     0.0000000000000000     
  -2.9999999999999992E-004     0.0000000000000000     
   0.0000000000000000          0.0000000000000000     
   3.0000000000000165E-004     0.0000000000000000     
   5.9999999999999984E-004     0.0000000000000000     
   9.0000000000000149E-004     0.0000000000000000     
   1.2000000000000031E-003     0.0000000000000000     
   1.5000000000000013E-003     0.0000000000000000     
   1.8000000000000030E-003     0.0000000000000000     
   2.1000000000000012E-003     0.0000000000000000     
   2.3999999999999994E-003     0.0000000000000000     
   2.7000000000000010E-003     0.0000000000000000     
   2.9999999999999992E-003     0.0000000000000000     
   3.3000000000000008E-003     0.0000000000000000     
   3.6000000000000025E-003     0.0000000000000000     
   3.9000000000000007E-003     0.0000000000000000     
   4.2000000000000023E-003     0.0000000000000000     
   4.5000000000000005E-003     0.0000000000000000     
   4.7999999999999987E-003     0.0000000000000000     
   5.1000000000000004E-003     0.0000000000000000     
   5.4000000000000020E-003     0.0000000000000000     
   5.7000000000000037E-003     0.0000000000000000     
   5.9999999999999984E-003     0.0000000000000000     
   6.3000000000000000E-003     0.0000000000000000     
   6.6000000000000017E-003     0.0000000000000000     
   6.9000000000000034E-003     0.0000000000000000     
   7.2000000000000015E-003     0.0000000000000000     
   7.5000000000000032E-003     0.0000000000000000     
   7.8000000000000014E-003     0.0000000000000000     
   8.0999999999999996E-003     0.0000000000000000     
   8.4000000000000012E-003     0.0000000000000000     
   8.7000000000000029E-003     0.0000000000000000     
   9.0000000000000011E-003     0.0000000000000000     
   9.2999999999999992E-003     0.0000000000000000     
   9.6000000000000009E-003    -3.4792846577213205E-038
   9.8999999999999991E-003    -2.8275623603146930E-037
   1.0200000000000001E-002     3.1056596598524713E-036
   1.0500000000000002E-002    -3.9985112691025887E-036
   1.0800000000000004E-002    -9.9130459164773034E-035
   1.1099999999999999E-002     5.3637443454420991E-034
   1.1400000000000000E-002     1.9344471776798522E-033
   1.1700000000000002E-002    -2.9806810228492097E-032
   1.2000000000000004E-002     8.9940951062292064E-032
   1.2300000000000002E-002     3.1818945210009911E-031
   1.2600000000000000E-002    -3.3650670000273265E-030
   1.2900000000000002E-002     9.2431589077610592E-030
   1.3200000000000000E-002     1.2407606079475382E-029
   1.3500000000000002E-002    -1.7531237311070591E-028
   1.3800000000000003E-002     5.7052410044743486E-028
   1.4100000000000001E-002    -6.5286865554035163E-028
   1.4400000000000000E-002    -6.5225924035147017E-028
   1.4700000000000001E-002    -3.3998010483448177E-027
   1.4999999999999999E-002     5.4527764364688044E-026
   1.5300000000000001E-002    -2.2292825826347491E-025
   1.5600000000000003E-002     1.4943487491653821E-025
   1.5899999999999997E-002     3.7921941065663291E-024
   1.6199999999999999E-002    -3.1721672450075358E-023
   1.6500000000000001E-002     1.7623379409961667E-022
   1.6800000000000002E-002    -8.2288517226181380E-022
   1.7100000000000004E-002     3.4363576263081973E-021
   1.7400000000000006E-002    -1.3004572583119206E-020
   1.7700000000000000E-002     4.4321453898073842E-020
   1.8000000000000002E-002    -1.3366542774967972E-019
   1.8300000000000004E-002     3.4525421451915385E-019
   1.8600000000000005E-002    -7.1826695926381083E-019
   1.8900000000000000E-002     1.1083588196035711E-018
   1.9200000000000002E-002    -2.1593952160060213E-018
   1.9500000000000003E-002     1.9928981176311217E-017
   1.9799999999999998E-002    -1.9525964548091722E-016
   2.0100000000000000E-002     1.4104973429101955E-015
   2.0400000000000001E-002    -8.1122995387322711E-015
   2.0700000000000003E-002     3.8735071676376463E-014
   2.0999999999999998E-002    -1.5431240247641533E-013
   2.1299999999999999E-002     4.9808316106477423E-013
   2.1600000000000001E-002    -1.1836311504506811E-012
   2.1900000000000003E-002     1.3351038220430139E-012
   2.2200000000000004E-002     4.0273036351881264E-012
   2.2500000000000006E-002    -2.7442761905162336E-011
   2.2800000000000001E-002     7.3998118090663508E-011
   2.3100000000000002E-002    -6.5633216016877695E-011
   2.3400000000000004E-002    -2.5021503619380185E-010
   2.3699999999999999E-002     9.7084664071409772E-010
   2.4000000000000000E-002    -7.3210816379774660E-010
   2.4300000000000002E-002    -3.2693783373929387E-009
   2.4599999999999997E-002     7.2594544233044819E-009
   2.4900000000000005E-002     6.4096032590460795E-009
   2.5200000000000000E-002    -3.1616362278985018E-008
   2.5499999999999995E-002    -1.7490880306865633E-008
   2.5800000000000003E-002     9.7669322444932672E-008
   2.6099999999999998E-002     7.4156860541321249E-008
   2.6400000000000007E-002    -2.3779854056873929E-007
   2.6700000000000002E-002    -3.0335316992255206E-007
   2.6999999999999996E-002     5.5132386485160553E-007
   2.7300000000000005E-002     1.9161607185905967E-006
   2.7600000000000000E-002     2.6804254818471915E-006
   2.7900000000000008E-002     3.0551820381675298E-006
   2.8200000000000003E-002     4.9348729793884615E-006
   2.8499999999999998E-002     9.4503021953202399E-006
   2.8800000000000006E-002     1.5668713069995723E-005
   2.9100000000000001E-002     2.3068047080904066E-005
   2.9400000000000003E-002     3.3996979127103293E-005
   2.9700000000000004E-002     5.2040624385598722E-005
   3.0000000000000006E-002     7.9172645687108564E-005
   3.0300000000000001E-002     1.1691672025736666E-004
   3.0600000000000002E-002     1.6979817992054946E-004
   3.0900000000000004E-002     2.4510791676710022E-004
   3.1199999999999999E-002     3.4965418044061863E-004
   3.1500000000000007E-002     4.8990991632356061E-004
   3.1800000000000002E-002     6.7579481849905365E-004
   3.2099999999999997E-002     9.2109208016860622E-004
   3.2400000000000005E-002     1.2388555638955037E-003
   3.2700000000000000E-002     1.6393119312821947E-003
   3.3000000000000002E-002     2.1334615548843222E-003
   3.3300000000000003E-002     2.7347169818562195E-003
   3.3599999999999998E-002     3.4533501093467894E-003
   3.3900000000000000E-002     4.2902703017570210E-003
   3.4200000000000001E-002     5.2374490653754879E-003
   3.4500000000000003E-002     6.2802584328053024E-003
   3.4799999999999998E-002     7.3935351826540929E-003
   3.5099999999999999E-002     8.5342168358634729E-003
   3.5400000000000001E-002     9.6407067741016705E-003
   3.5699999999999996E-002     1.0637917821029352E-002
   3.6000000000000004E-002     1.1438637285287323E-002
   3.6299999999999999E-002     1.1941007123848713E-002
   3.6600000000000008E-002     1.2032119746547942E-002
   3.6900000000000002E-002     1.1600278890519566E-002
   3.7199999999999997E-002     1.0545510283381854E-002
   3.7500000000000006E-002     8.7819353186756599E-003
   3.7800000000000000E-002     6.2441941602795481E-003
   3.8100000000000009E-002     2.9039551288927243E-003
   3.8400000000000004E-002    -1.2189701330801855E-003
   3.8699999999999998E-002    -6.0585048442736711E-003
   3.9000000000000007E-002    -1.1504240569990831E-002
   3.9300000000000002E-002    -1.7397449104590845E-002
   3.9600000000000003E-002    -2.3527779470517762E-002
   3.9900000000000005E-002    -2.9645914853824173E-002
   4.0200000000000000E-002    -3.5477864778121759E-002
   4.0500000000000001E-002    -4.0731880443292123E-002
   4.0800000000000003E-002    -4.5101064394796886E-002
   4.1100000000000005E-002    -4.8271873464783566E-002
   4.1399999999999999E-002    -4.9934864881471253E-002
   4.1700000000000008E-002    -4.9787686802571063E-002
   4.2000000000000003E-002    -4.7530988431154553E-002
   4.2299999999999997E-002    -4.2873567894461839E-002
   4.2600000000000006E-002    -3.5542190807246521E-002
   4.2900000000000001E-002    -2.5293142717028261E-002
   4.3200000000000002E-002    -1.1923176555983822E-002
   4.3500000000000004E-002     4.7012198011866652E-003
   4.3799999999999999E-002     2.4603745417102529E-002
   4.4100000000000000E-002     4.7657328715741576E-002
   4.4400000000000002E-002     7.3550209815939294E-002
   4.4700000000000004E-002    0.10175221887051444     
   4.4999999999999998E-002    0.13147754904111331     
   4.5300000000000000E-002    0.16167856007767867     
   4.5600000000000002E-002    0.19107041049938012     
   4.5899999999999996E-002    0.21817962023358195     
   4.6200000000000005E-002    0.24140732678719967     
   4.6500000000000000E-002    0.25913046064088086     
   4.6799999999999994E-002    0.26981683921298405     
   4.7100000000000003E-002    0.27215427895047739     
   4.7399999999999998E-002    0.26516651914740574     
   4.7700000000000006E-002    0.24830508173974497     
   4.8000000000000001E-002    0.22151356015723245     
   4.8300000000000010E-002    0.18526475200545089     
   4.8600000000000004E-002    0.14054214532963272     
   4.8899999999999999E-002     8.8771874669880679E-002
   4.9200000000000008E-002     3.1725659610048695E-002
   4.9500000000000002E-002    -2.8618916318654652E-002
   4.9800000000000011E-002    -9.0228892517993931E-002
   5.0100000000000006E-002   -0.15114602391041565     
   5.0400000000000000E-002   -0.20961850967280249     
   5.0700000000000009E-002   -0.26422813118321464     
   5.1000000000000004E-002   -0.31396367560534699     
   5.1299999999999998E-002   -0.35820404939632233     
   5.1600000000000007E-002   -0.39672594470981792     
   5.1900000000000002E-002   -0.42965685545517474     
   5.2200000000000010E-002   -0.45740375997310956     
   5.2500000000000005E-002   -0.48052981917354209     
   5.2800000000000000E-002   -0.49959810416438977     
   5.3099999999999994E-002   -0.51509901234806676     
   5.3400000000000003E-002   -0.52733775415185491     
   5.3699999999999998E-002   -0.53631453802081452     
   5.4000000000000006E-002   -0.54165417214548484     
   5.4300000000000001E-002   -0.54254657699385689     
   5.4599999999999996E-002   -0.53774051125711608     
   5.4900000000000004E-002   -0.52563248675979324     
   5.5199999999999999E-002   -0.50428843701576831     
   5.5499999999999994E-002   -0.47155869386621596     
   5.5800000000000002E-002   -0.42527678635996580     
   5.6099999999999997E-002   -0.36343758693118033     
   5.6400000000000006E-002   -0.28444195807749839     
   5.6700000000000000E-002   -0.18734322917686086     
   5.6999999999999995E-002    -7.2008714534978147E-002
   5.7300000000000004E-002     6.0638945571076963E-002
   5.7599999999999998E-002    0.20847401373948049     
   5.7900000000000007E-002    0.36814047343952261     
   5.8200000000000002E-002    0.53506917330890857     
   5.8499999999999996E-002    0.70363551151308812     
   5.8800000000000005E-002    0.86731137335351249     
   5.9100000000000000E-002     1.0190286843320067     
   5.9400000000000008E-002     1.1515673606634991     
   5.9700000000000003E-002     1.2579771244927116     
   6.0000000000000012E-002     1.3319914458983746     
   6.0300000000000006E-002     1.3685070546125289     
   6.0600000000000001E-002     1.3639373837893416     
   6.0900000000000010E-002     1.3165197290154325     
   6.1200000000000004E-002     1.2264841805868727     
   6.1500000000000013E-002     1.0961641348085429     
   6.1800000000000008E-002    0.93000328966340007     
   6.2100000000000002E-002    0.73431542963599306     
   6.2399999999999997E-002    0.51703801995930121     
   6.2700000000000006E-002    0.28732186112293956     
   6.3000000000000000E-002     5.5046435474610078E-002
   6.3300000000000009E-002   -0.16968319183719682     
   6.3600000000000004E-002   -0.37711982964653146     
   6.3899999999999998E-002   -0.55843633959693406     
   6.4199999999999993E-002   -0.70629781209833453     
   6.4500000000000002E-002   -0.81531639808502376     
   6.4800000000000010E-002   -0.88238970924954074     
   6.5100000000000005E-002   -0.90700975587766308     
   6.5400000000000000E-002   -0.89126557573491993     
   6.5700000000000008E-002   -0.83988090796019677     
   6.5999999999999989E-002   -0.75990363145453088     
   6.6299999999999998E-002   -0.66019802867420196     
   6.6600000000000006E-002   -0.55095835891228262     
   6.6900000000000001E-002   -0.44303849119639871     
   6.7199999999999996E-002   -0.34704847882376377     
   6.7500000000000004E-002   -0.27257466315432843     
   6.7800000000000013E-002   -0.22743196778055363     
   6.8099999999999994E-002   -0.21705529072687213     
   6.8400000000000002E-002   -0.24386798082990424     
   6.8700000000000011E-002   -0.30691080451375186     
   6.8999999999999992E-002   -0.40192252653035609     
   6.9300000000000000E-002   -0.52149511752181610     
   6.9600000000000009E-002   -0.65549659701306950     
   6.9900000000000004E-002   -0.79176010394603225     
   7.0199999999999999E-002   -0.91691101098266969     
   7.0500000000000007E-002    -1.0175272520794678     
   7.0800000000000016E-002    -1.0812457616010605     
   7.1099999999999997E-002    -1.0976143141083696     
   7.1400000000000005E-002    -1.0590566990098971     
   7.1700000000000000E-002   -0.96171097800547400     
   7.1999999999999995E-002   -0.80594271272801521     
   7.2300000000000003E-002   -0.59632733920139014     
   7.2600000000000012E-002   -0.34143608589373908     
   7.2900000000000006E-002    -5.3452768282215235E-002
   7.3200000000000001E-002    0.25250338296403907     
   7.3499999999999996E-002    0.55966112499334741     
   7.3800000000000004E-002    0.85073831296062963     
   7.4099999999999999E-002     1.1091022741147256     
   7.4400000000000008E-002     1.3198514368327281     
   7.4700000000000003E-002     1.4709855198727411     
   7.5000000000000011E-002     1.5542272805134587     
   7.5299999999999992E-002     1.5655374153417014     
   7.5600000000000001E-002     1.5052137490694193     
   7.5900000000000009E-002     1.3779045910196146     
   7.6200000000000004E-002     1.1921998843978656     
   7.6499999999999999E-002    0.95998091391674834     
   7.6800000000000007E-002    0.69552603571477079     
   7.7099999999999988E-002    0.41454152718638820     
   7.7399999999999997E-002    0.13317910213216688     
   7.7700000000000005E-002   -0.13273250188836361     
   7.8000000000000014E-002   -0.36894123293799908     
   7.8299999999999995E-002   -0.56345688760135815     
   7.8600000000000003E-002   -0.70690778372485497     
   7.8900000000000012E-002   -0.79312485930384824     
   7.9199999999999993E-002   -0.81932421731920968     
   7.9500000000000001E-002   -0.78615557469940001     
   7.9800000000000010E-002   -0.69744031332107603     
   8.0100000000000018E-002   -0.55969398104120671     
   8.0399999999999999E-002   -0.38173856921737559     
   8.0700000000000008E-002   -0.17412321455984436     
   8.1000000000000003E-002     5.1819299847901512E-002
   8.1299999999999997E-002    0.28457909259065950     
   8.1600000000000006E-002    0.51329127835682264     
   8.1900000000000014E-002    0.72817958976498787     
   8.2199999999999995E-002    0.92100949162949064     
   8.2500000000000004E-002     1.0856046866762057     
   8.2799999999999999E-002     1.2177014602721243     
   8.3100000000000007E-002     1.3146898982826087     
   8.3400000000000002E-002     1.3754505082083028     
   8.3700000000000011E-002     1.3998152468938869     
   8.4000000000000005E-002     1.3880749066814317     
   8.4300000000000000E-002     1.3405413709037788     
   8.4599999999999995E-002     1.2570659096427619     
   8.4900000000000003E-002     1.1370704048969706     
   8.5199999999999998E-002    0.97955072921391562     
   8.5500000000000007E-002    0.78351209781532205     
   8.5800000000000001E-002    0.54851643350689061     
   8.6100000000000010E-002    0.27521263857839884     
   8.6399999999999991E-002    -3.3823732626371061E-002
   8.6699999999999999E-002   -0.37327734231127430     
   8.7000000000000008E-002   -0.73478600725501053     
   8.7300000000000003E-002    -1.1068134868940760     
   8.7599999999999997E-002    -1.4747825011544649     
   8.7900000000000006E-002    -1.8217045009975195     
   8.8200000000000014E-002    -2.1291260792249034     
   8.8499999999999995E-002    -2.3783981757991910     
   8.8800000000000004E-002    -2.5520949741447225     
   8.9100000000000013E-002    -2.6356446241221221     
   8.9399999999999993E-002    -2.6188627282005257     
   8.9700000000000002E-002    -2.4968383560170579     
   9.0000000000000011E-002    -2.2707739139975089     
   9.0299999999999991E-002    -1.9485480401065516     
   9.0600000000000000E-002    -1.5446156571837264     
   9.0900000000000009E-002    -1.0789674977686619     
   9.1200000000000017E-002   -0.57608252355036704     
   9.1499999999999998E-002    -6.3501201125482964E-002
   9.1800000000000007E-002    0.42981489869377043     
   9.2100000000000001E-002    0.87568817071931093     
   9.2399999999999996E-002     1.2487962528528556     
   9.2700000000000005E-002     1.5280606956966025     
   9.3000000000000013E-002     1.6980809979288480     
   9.3300000000000008E-002     1.7504268294346588     
   9.3600000000000003E-002     1.6840957490002779     
   9.3899999999999997E-002     1.5055069053529131     
   9.4200000000000006E-002     1.2280523797708121     
   9.4500000000000001E-002    0.87112548122042988     
   9.4800000000000009E-002    0.45892661727027395     
   9.5100000000000004E-002     1.8724291347505861E-002
   9.5399999999999999E-002   -0.42091467317284703     
   9.5699999999999993E-002   -0.83190135656960962     
   9.6000000000000002E-002    -1.1881599628056705     
   9.6300000000000011E-002    -1.4672751750241275     
   9.6600000000000005E-002    -1.6518324339361783     
   9.6900000000000000E-002    -1.7301630070113632     
   9.7200000000000009E-002    -1.6966391900757216     
   9.7499999999999989E-002    -1.5520984542573579     
   9.7799999999999998E-002    -1.3037307060727485     
   9.8100000000000007E-002   -0.96409786715032819     
   9.8400000000000015E-002   -0.55070252767042938     
   9.8699999999999996E-002    -8.5113736638703585E-002
   9.9000000000000005E-002    0.40839308751369607     
   9.9300000000000013E-002    0.90400346388284802     
   9.9599999999999994E-002     1.3756614085014505     
   9.9900000000000003E-002     1.7982123352983876     
  0.10020000000000001          2.1487903767454952     
  0.10049999999999999          2.4081548327364004     
  0.10080000000000000          2.5613995825555804     
  0.10110000000000001          2.5990842233193518     
  0.10140000000000000          2.5175703331138664     
  0.10170000000000000          2.3196100981495746     
  0.10200000000000001          2.0142756327203273     
  0.10230000000000002          1.6161354781037396     
  0.10260000000000000          1.1445876484757616     
  0.10290000000000001         0.62323808385297585     
  0.10320000000000000          7.8334577519896698E-002
  0.10350000000000001        -0.46295056320397521     
  0.10380000000000000        -0.97396821149568424     
  0.10410000000000001         -1.4299357925524561     
  0.10440000000000001         -1.8090549429984009     
  0.10470000000000000         -2.0937655709865908     
  0.10500000000000000         -2.2717781505438381     
  0.10530000000000000         -2.3361834487232613     
  0.10560000000000000         -2.2852539391599080     
  0.10590000000000001         -2.1228860881835843     
  0.10620000000000000         -1.8580880288774750     
  0.10650000000000001         -1.5040442764336426     
  0.10679999999999999         -1.0774241862212062     
  0.10710000000000000        -0.59759756762507266     
  0.10740000000000001         -8.5999744751914520E-002
  0.10770000000000000         0.43496873735807640     
  0.10800000000000000         0.94317078746228589     
  0.10830000000000001          1.4172301482469365     
  0.10859999999999999          1.8373184979857555     
  0.10890000000000000          2.1863581752801906     
  0.10920000000000001          2.4506437524212998     
  0.10950000000000001          2.6202423000857067     
  0.10979999999999999          2.6894401993416750     
  0.11009999999999999          2.6571380195438792     
  0.11040000000000001          2.5271374552540351     
  0.11070000000000001          2.3074618058606617     
  0.11100000000000000          2.0099967311325031     
  0.11130000000000000          1.6501022512447143     
  0.11160000000000002          1.2456825242447174     
  0.11190000000000001         0.81634319495828889     
  0.11220000000000001         0.38231153795825890     
  0.11250000000000000         -3.6623518345802353E-002
  0.11280000000000000        -0.42167863522761095     
  0.11309999999999999        -0.75626091597547784     
  0.11340000000000001         -1.0267867682265042     
  0.11369999999999998         -1.2232002450784947     
  0.11400000000000000         -1.3390542426125691     
  0.11430000000000000         -1.3722578975914104     
  0.11460000000000002         -1.3255017439385739     
  0.11489999999999999         -1.2057762698963330     
  0.11520000000000001         -1.0237485002324220     
  0.11550000000000001        -0.79427697384547002     
  0.11580000000000000        -0.53546918307747582     
  0.11609999999999999        -0.26729275553986653     
  0.11640000000000002         -1.0903142384384612E-002
  0.11670000000000001         0.21255202973037068     
  0.11700000000000001         0.38315540297188200     
  0.11730000000000000         0.48378065212994414     
  0.11760000000000000         0.50135578872093589     
  0.11789999999999999         0.42747666662477846     
  0.11820000000000001         0.25930039215288936     
  0.11850000000000001          2.0681351514584279E-004
  0.11880000000000000        -0.34040575598135181     
  0.11910000000000000        -0.74757817013712469     
  0.11940000000000002         -1.2019701838025227     
  0.11970000000000001         -1.6805436763815962     
  0.12000000000000001         -2.1578391361545499     
  0.12030000000000000         -2.6082587090824347     
  0.12060000000000000         -3.0074015178465743     
  0.12089999999999999         -3.3334639545537783     
  0.12119999999999999         -3.5685238920638511     
  0.12150000000000001         -3.6996339010531472     
  0.12180000000000001         -3.7194424903487260     
  0.12210000000000000         -3.6264644793992176     
  0.12239999999999999         -3.4246297153039222     
  0.12270000000000002         -3.1227894015417661     
  0.12300000000000001         -2.7334528126411541     
  0.12330000000000001         -2.2718372274056264     
  0.12360000000000000         -1.7547537628718608     
  0.12390000000000000         -1.1991486819558721     
  0.12419999999999999        -0.62078992059652194     
  0.12450000000000001         -3.3648372753125599E-002
  0.12480000000000001         0.55027792347196502     
  0.12509999999999999          1.1213033069311322     
  0.12540000000000001          1.6714785370771708     
  0.12570000000000003          2.1945585236822183     
  0.12600000000000000          2.6847257813743113     
  0.12630000000000002          3.1355850661404077     
  0.12659999999999999          3.5396306193406701     
  0.12690000000000001          3.8882928468942595     
  0.12719999999999998          4.1715150243759069     
  0.12750000000000000          4.3778464890715441     
  0.12780000000000002          4.4952650747260066     
  0.12809999999999999          4.5133027494361215     
  0.12840000000000001          4.4240676102452596     
  0.12869999999999998          4.2230504413402201     
  0.12900000000000000          3.9109155886537508     
  0.12930000000000003          3.4948796557628583     
  0.12959999999999999          2.9891493722284892     
  0.12990000000000002          2.4138142824454007     
  0.13019999999999998          1.7944378398120993     
  0.13050000000000000          1.1606977062726180     
  0.13080000000000003         0.54429128803241866     
  0.13109999999999999         -2.3855127029865031E-002
  0.13140000000000002        -0.51602030624447792     
  0.13169999999999998        -0.90989396708386394     
  0.13200000000000001         -1.1903982456101900     
  0.13229999999999997         -1.3509740068815006     
  0.13260000000000000         -1.3944186665598224     
  0.13290000000000002         -1.3328637312850020     
  0.13319999999999999         -1.1861500689051070     
  0.13350000000000001        -0.98027620999251397     
  0.13380000000000003        -0.74537468700431830     
  0.13410000000000000        -0.51317462473920727     
  0.13440000000000002        -0.31409586137867684     
  0.13469999999999999        -0.17455652933256616     
  0.13500000000000001        -0.11533619967955744     
  0.13529999999999998        -0.14968708314508383     
  0.13560000000000000        -0.28158679619512839     
  0.13590000000000002        -0.50606510447827624     
  0.13619999999999999        -0.80999030353283175     
  0.13650000000000001         -1.1720285297727315     
  0.13680000000000003         -1.5644310319775414     
  0.13710000000000000         -1.9561193164091506     
  0.13740000000000002         -2.3145312082889689     
  0.13769999999999999         -2.6077319163640169     
  0.13800000000000001         -2.8073013547843573     
  0.13829999999999998         -2.8906557894982114     
  0.13860000000000000         -2.8436696493508222     
  0.13890000000000002         -2.6608014711558496     
  0.13919999999999999         -2.3457643839309483     
  0.13950000000000001         -1.9128589407916801     
  0.13979999999999998         -1.3852736373317640     
  0.14010000000000000        -0.79349401891187910     
  0.14040000000000002        -0.17336547261438184     
  0.14069999999999999         0.43648906460484760     
  0.14100000000000001         0.99701481070377795     
  0.14130000000000004          1.4722554508602386     
  0.14160000000000000          1.8322297951400941     
  0.14189999999999997          2.0543843948603282     
  0.14219999999999999          2.1256909479818376     
  0.14250000000000002          2.0438935190592886     
  0.14279999999999998          1.8173125210882120     
  0.14310000000000000          1.4640877720477494     
  0.14339999999999997          1.0111922269251750     
  0.14369999999999999         0.49213671314806007     
  0.14400000000000002         -5.5660150323502133E-002
  0.14429999999999998        -0.59365734518074831     
  0.14460000000000001         -1.0846004424462166     
  0.14490000000000003         -1.4949636378990547     
  0.14520000000000000         -1.7985585112770295     
  0.14550000000000002         -1.9780160814561896     
  0.14579999999999999         -2.0244700715510646     
  0.14610000000000001         -1.9395964161301436     
  0.14640000000000003         -1.7360316630930654     
  0.14670000000000000         -1.4353561651894324     
  0.14699999999999996         -1.0661468547319899     
  0.14729999999999999        -0.66220041456638867     
  0.14760000000000001        -0.26071645447404507     
  0.14789999999999998         0.10194429133540117     
  0.14820000000000000         0.39386961705597034     