  -1.4999999999999999E-002     0.0000000000000000     
  -1.4700000000000000E-002     0.0000000000000000     
  -1.4400000000000000E-002     0.0000000000000000     
  -1.4100000000000000E-002     0.0000000000000000     
  -1.3800000000000000E-002     0.0000000000000000     
  -1.3500000000000000E-002     0.0000000000000000     
  -1.3200000000000000E-002     0.0000000000000000     
  -1.2899999999999998E-002     0.0000000000000000     
  -1.2600000000000000E-002     0.0000000000000000     
  -1.2299999999999998E-002     0.0000000000000000     
  -1.2000000000000000E-002     0.0000000000000000     
  -1.1699999999999999E-002     0.0000000000000000     
  -1.1399999999999999E-002     0.0000000000000000     
  -1.1099999999999999E-002     0.0000000000000000     
  -1.0799999999999999E-002     0.0000000000000000     
  -1.0499999999999999E-002     0.0000000000000000     
  -1.0199999999999999E-002     0.0000000000000000     
  -9.8999999999999991E-003     0.0000000000000000     
  -9.5999999999999992E-003     0.0000000000000000     
  -9.2999999999999992E-003     0.0000000000000000     
  -8.9999999999999993E-003     0.0000000000000000     
  -8.6999999999999994E-003     0.0000000000000000     
  -8.3999999999999995E-003     0.0000000000000000     
  -8.0999999999999996E-003     0.0000000000000000     
  -7.7999999999999988E-003     0.0000000000000000     
  -7.4999999999999997E-003     0.0000000000000000     
  -7.1999999999999998E-003     0.0000000000000000     
  -6.8999999999999981E-003     0.0000000000000000     
  -6.5999999999999982E-003     0.0000000000000000     
  -6.3000000000000000E-003     0.0000000000000000     
  -6.0000000000000001E-003     0.0000000000000000     
  -5.6999999999999985E-003     0.0000000000000000     
  -5.3999999999999986E-003     0.0000000000000000     
  -5.1000000000000004E-003     0.0000000000000000     
  -4.7999999999999987E-003     0.0000000000000000     
  -4.5000000000000005E-003     0.0000000000000000     
  -4.1999999999999989E-003     0.0000000000000000     
  -3.8999999999999990E-003     0.0000000000000000     
  -3.5999999999999990E-003     0.0000000000000000     
  -3.2999999999999991E-003     0.0000000000000000     
  -2.9999999999999992E-003     0.0000000000000000     
  -2.6999999999999993E-003     0.0000000000000000     
  -2.3999999999999994E-003     0.0000000000000000     
  -2.0999999999999977E-003     0.0000000000000000     
  -1.7999999999999995E-003     0.0000000000000000     
  -1.4999999999999979E-003     0.0000000000000000     
  -1.1999999999999997E-003     0.0000000000000000     
  -8.9999999999999976E-004     0.0000000000000000     
  -5.9999999999999810E-004     0.0000000000000000     
  -2.9999999999999992E-004     0.0000000000000000     
   0.0000000000000000          0.0000000000000000     
   3.0000000000000165E-004     0.0000000000000000     
   5.9999999999999984E-004     0.0000000000000000     
   9.0000000000000149E-004     0.0000000000000000     
   1.2000000000000031E-003     0.0000000000000000     
   1.5000000000000013E-003     0.0000000000000000     
   1.8000000000000030E-003     0.0000000000000000     
   2.1000000000000012E-003     0.0000000000000000     
   2.3999999999999994E-003     0.0000000000000000     
   2.7000000000000010E-003     0.0000000000000000     
   2.9999999999999992E-003     0.0000000000000000     
   3.3000000000000008E-003     0.0000000000000000     
   3.6000000000000025E-003     0.0000000000000000     
   3.9000000000000007E-003     0.0000000000000000     
   4.2000000000000023E-003     0.0000000000000000     
   4.5000000000000005E-003     0.0000000000000000     
   4.7999999999999987E-003     0.0000000000000000     
   5.1000000000000004E-003     0.0000000000000000     
   5.4000000000000020E-003     0.0000000000000000     
   5.7000000000000037E-003     0.0000000000000000     
   5.9999999999999984E-003     0.0000000000000000     
   6.3000000000000000E-003     0.0000000000000000     
   6.6000000000000017E-003     0.0000000000000000     
   6.9000000000000034E-003     0.0000000000000000     
   7.2000000000000015E-003     0.0000000000000000     
   7.5000000000000032E-003     0.0000000000000000     
   7.8000000000000014E-003     0.0000000000000000     
   8.0999999999999996E-003     0.0000000000000000     
   8.4000000000000012E-003     0.0000000000000000     
   8.7000000000000029E-003     0.0000000000000000     
   9.0000000000000011E-003     0.0000000000000000     
   9.2999999999999992E-003     0.0000000000000000     
   9.6000000000000009E-003     0.0000000000000000     
   9.8999999999999991E-003     0.0000000000000000     
   1.0200000000000001E-002     0.0000000000000000     
   1.0500000000000002E-002     0.0000000000000000     
   1.0800000000000004E-002     0.0000000000000000     
   1.1099999999999999E-002     0.0000000000000000     
   1.1400000000000000E-002     0.0000000000000000     
   1.1700000000000002E-002     0.0000000000000000     
   1.2000000000000004E-002     0.0000000000000000     
   1.2300000000000002E-002     0.0000000000000000     
   1.2600000000000000E-002     0.0000000000000000     
   1.2900000000000002E-002     0.0000000000000000     
   1.3200000000000000E-002     0.0000000000000000     
   1.3500000000000002E-002     5.2686569671331720E-038
   1.3800000000000003E-002    -9.1960420033191854E-038
   1.4100000000000001E-002    -2.7459220386063003E-035
   1.4400000000000000E-002     1.0361806187883206E-034
   1.4700000000000001E-002     7.0020150633012618E-034
   1.4999999999999999E-002    -5.3200740024025796E-033
   1.5300000000000001E-002    -4.7857478320434492E-033
   1.5600000000000003E-002     1.3863246614465749E-031
   1.5899999999999997E-002    -3.8247512977608648E-031
   1.6199999999999999E-002    -1.2857689863098231E-030
   1.6500000000000001E-002     1.1670345956016467E-029
   1.6800000000000002E-002    -2.5357823288471912E-029
   1.7100000000000004E-002    -6.6389453532519224E-029
   1.7400000000000006E-002     6.0070909106185654E-028
   1.7700000000000000E-002    -1.7038596844638148E-027
   1.8000000000000002E-002     6.5447887813131895E-028
   1.8300000000000004E-002     1.4788770581627878E-026
   1.8600000000000005E-002    -7.3588462421647970E-026
   1.8900000000000000E-002     1.8214784678831856E-025
   1.9200000000000002E-002     7.1859530345774058E-026
   1.9500000000000003E-002    -3.5519653005455785E-024
   1.9799999999999998E-002     2.1568936443891803E-023
   2.0100000000000000E-002    -7.4122296487182007E-023
   2.0400000000000001E-002     7.1739110002677783E-023
   2.0700000000000003E-002     1.0559042773857347E-021
   2.0999999999999998E-002    -9.7286506080219863E-021
   2.1299999999999999E-002     5.5847818332729762E-020
   2.1600000000000001E-002    -2.6036085541414297E-019
   2.1900000000000003E-002     1.0746109007578962E-018
   2.2200000000000004E-002    -4.1290889984926130E-018
   2.2500000000000006E-002     1.5372707593025476E-017
   2.2800000000000001E-002    -5.7352856818742891E-017
   2.3100000000000002E-002     2.1894642307083000E-016
   2.3400000000000004E-002    -8.5478924376095942E-016
   2.3699999999999999E-002     3.3362752254373941E-015
   2.4000000000000000E-002    -1.2544735924546400E-014
   2.4300000000000002E-002     4.3427471892501936E-014
   2.4599999999999997E-002    -1.3042509240062899E-013
   2.4900000000000005E-002     3.0453954983602111E-013
   2.5200000000000000E-002    -3.6646664084567480E-013
   2.5499999999999995E-002    -9.8420614251208574E-013
   2.5800000000000003E-002     7.8025048120696636E-012
   2.6099999999999998E-002    -2.5521963358875432E-011
   2.6400000000000007E-002     4.1501187325629063E-011
   2.6700000000000002E-002     2.6388338541768982E-011
   2.6999999999999996E-002    -3.2447231347100946E-010
   2.7300000000000005E-002     6.7818768596247679E-010
   2.7600000000000000E-002     1.8857894955445887E-010
   2.7900000000000008E-002    -3.4800883151458313E-009
   2.8200000000000003E-002     3.9403144737428093E-009
   2.8499999999999998E-002     9.9352544542015499E-009
   2.8800000000000006E-002    -2.1776444827798912E-008
   2.9100000000000001E-002    -2.9245497578984340E-008
   2.9400000000000003E-002     6.8138575411192481E-008
   2.9700000000000004E-002     9.7952602777496164E-008
   3.0000000000000006E-002    -1.5204303584650453E-007
   3.0300000000000001E-002    -3.2594354385604602E-007
   3.0600000000000002E-002     2.5984926525678388E-007
   3.0900000000000004E-002     1.4484909045879389E-006
   3.1199999999999999E-002     2.1890000191602196E-006
   3.1500000000000007E-002     2.3407712120826610E-006
   3.1800000000000002E-002     3.5008005825649941E-006
   3.2099999999999997E-002     6.9915690113486468E-006
   3.2400000000000005E-002     1.2146344532709913E-005
   3.2700000000000000E-002     1.8110098121157847E-005
   3.3000000000000002E-002     2.6527722296935626E-005
   3.3300000000000003E-002     4.0626285572991890E-005
   3.3599999999999998E-002     6.2291420621228078E-005
   3.3900000000000000E-002     9.2517096478982649E-005
   3.4200000000000001E-002     1.3475104390120105E-004
   3.4500000000000003E-002     1.9531121416026340E-004
   3.4799999999999998E-002     2.8028477837487974E-004
   3.5099999999999999E-002     3.9501435718877070E-004
   3.5400000000000001E-002     5.4774955462053368E-004
   3.5699999999999996E-002     7.5089357126262649E-004
   3.6000000000000004E-002     1.0169114353321337E-003
   3.6299999999999999E-002     1.3555900855807476E-003
   3.6600000000000008E-002     1.7772611474471262E-003
   3.6900000000000002E-002     2.2956242449073891E-003
   3.7199999999999997E-002     2.9233208544424960E-003
   3.7500000000000006E-002     3.6654963568758664E-003
   3.7800000000000000E-002     4.5195051101067085E-003
   3.8100000000000009E-002     5.4780295806259593E-003
   3.8400000000000004E-002     6.5261423155569542E-003
   3.8699999999999998E-002     7.6336613087121807E-003
   3.9000000000000007E-002     8.7532719809339521E-003
   3.9300000000000002E-002     9.8249427738832384E-003
   3.9600000000000003E-002     1.0776826372501547E-002
   3.9900000000000005E-002     1.1521072156030043E-002
   4.0200000000000000E-002     1.1955066934753289E-002
   4.0500000000000001E-002     1.1971193691751092E-002
   4.0800000000000003E-002     1.1465435690936110E-002
   4.1100000000000005E-002     1.0340211093701257E-002
   4.1399999999999999E-002     8.5062479967561999E-003
   4.1700000000000008E-002     5.8976302126700630E-003
   4.2000000000000003E-002     2.4835449902570472E-003
   4.2299999999999997E-002    -1.7293273758186983E-003
   4.2600000000000006E-002    -6.6992877190293065E-003
   4.2900000000000001E-002    -1.2346826686406187E-002
   4.3200000000000002E-002    -1.8545136545459306E-002
   4.3500000000000004E-002    -2.5126211566051881E-002
   4.3799999999999999E-002    -3.1896827108270687E-002
   4.4100000000000000E-002    -3.8642143705351906E-002
   4.4400000000000002E-002    -4.5125069168827858E-002
   4.4700000000000004E-002    -5.1091425517147515E-002
   4.4999999999999998E-002    -5.6282492435538956E-002
   4.5300000000000000E-002    -6.0440680167645366E-002
   4.5600000000000002E-002    -6.3299518598496807E-002
   4.5899999999999996E-002    -6.4584903938070592E-002
   4.6200000000000005E-002    -6.4022565149950417E-002
   4.6500000000000000E-002    -6.1346092558761445E-002
   4.6799999999999994E-002    -5.6296848226105478E-002
   4.7100000000000003E-002    -4.8633687517738000E-002
   4.7399999999999998E-002    -3.8163936877243065E-002
   4.7700000000000006E-002    -2.4776223035825495E-002
   4.8000000000000001E-002    -8.4582910731938465E-003
   4.8300000000000010E-002     1.0663395596562514E-002
   4.8600000000000004E-002     3.2296881075405348E-002
   4.8899999999999999E-002     5.5960622197820609E-002
   4.9200000000000008E-002     8.0972297291630024E-002
   4.9500000000000002E-002    0.10647237562401068     
   4.9800000000000011E-002    0.13144701708685558     
   5.0100000000000006E-002    0.15477472630956424     
   5.0400000000000000E-002    0.17529920196558901     
   5.0700000000000009E-002    0.19190951409934254     
   5.1000000000000004E-002    0.20362923264039434     
   5.1299999999999998E-002    0.20969063834333568     
   5.1600000000000007E-002    0.20959835029655505     
   5.1900000000000002E-002    0.20318523804666544     
   5.2200000000000010E-002    0.19062684084695825     
   5.2500000000000005E-002    0.17242929139945673     
   5.2800000000000000E-002    0.14938305889889492     
   5.3099999999999994E-002    0.12250486052608345     
   5.3400000000000003E-002     9.2949858779747707E-002
   5.3699999999999998E-002     6.1919984689297269E-002
   5.4000000000000006E-002     3.0568136263358303E-002
   5.4300000000000001E-002    -8.7150441526850919E-005
   5.4599999999999996E-002    -2.9221933690069452E-002
   5.4900000000000004E-002    -5.6235644652459893E-002
   5.5199999999999999E-002    -8.0785241144845754E-002
   5.5499999999999994E-002   -0.10277485890125648     
   5.5800000000000002E-002   -0.12232957610602968     
   5.6099999999999997E-002   -0.13975643317009068     
   5.6400000000000006E-002   -0.15549684209959747     
   5.6700000000000000E-002   -0.17007188527447159     
   5.6999999999999995E-002   -0.18403392746103542     
   5.7300000000000004E-002   -0.19792478877371700     
   5.7599999999999998E-002   -0.21222842089459970     
   5.7900000000000007E-002   -0.22733733192522187     
   5.8200000000000002E-002   -0.24351308444909048     
   5.8499999999999996E-002   -0.26087296604685406     
   5.8800000000000005E-002   -0.27935754501394783     
   5.9100000000000000E-002   -0.29869034521890470     
   5.9400000000000008E-002   -0.31838197116884004     
   5.9700000000000003E-002   -0.33769444923150793     
   6.0000000000000012E-002   -0.35564603784768245     
   6.0300000000000006E-002   -0.37101478743222671     
   6.0600000000000001E-002   -0.38234316822802050     
   6.0900000000000010E-002   -0.38797602098411055     
   6.1200000000000004E-002   -0.38613252664261744     
   6.1500000000000013E-002   -0.37495762480220662     
   6.1800000000000008E-002   -0.35262138413025212     
   6.2100000000000002E-002   -0.31745529933325045     
   6.2399999999999997E-002   -0.26806537182275214     
   6.2700000000000006E-002   -0.20347307734268760     
   6.3000000000000000E-002   -0.12324986092758961     
   6.3300000000000009E-002    -2.7688150250086530E-002
   6.3600000000000004E-002     8.2081822760726064E-002
   6.3899999999999998E-002    0.20406349038635785     
   6.4199999999999993E-002    0.33529642942814597     
   6.4500000000000002E-002    0.47185989196968592     
   6.4800000000000010E-002    0.60901700806279813     
   6.5100000000000005E-002    0.74133847722751511     
   6.5400000000000000E-002    0.86291178979260152     
   6.5700000000000008E-002    0.96767261956649619     
   6.5999999999999989E-002     1.0497364653755135     
   6.6299999999999998E-002     1.1037650817425231     
   6.6600000000000006E-002     1.1253337802257661     
   6.6900000000000001E-002     1.1112782768292178     
   6.7199999999999996E-002     1.0600480987393652     
   6.7500000000000004E-002    0.97183830643903235     
   6.7800000000000013E-002    0.84867482955015916     
   6.8099999999999994E-002    0.69448591043084917     
   6.8400000000000002E-002    0.51491849411393353     
   6.8700000000000011E-002    0.31708359857644730     
   6.8999999999999992E-002    0.10917959920928588     
   6.9300000000000000E-002    -9.9952044180527722E-002
   6.9600000000000009E-002   -0.30133091179421889     
   6.9900000000000004E-002   -0.48626800439146756     
   7.0199999999999999E-002   -0.64696160184088036     
   7.0500000000000007E-002   -0.77699063395118273     
   7.0800000000000016E-002   -0.87157592462917677     
   7.1099999999999997E-002   -0.92789160660372616     
   7.1400000000000005E-002   -0.94525188754741407     
   7.1700000000000000E-002   -0.92514890301620056     
   7.1999999999999995E-002   -0.87116200650233466     
   7.2300000000000003E-002   -0.78866547304129853     
   7.2600000000000012E-002   -0.68450144285640135     
   7.2900000000000006E-002   -0.56664680283595814     
   7.3200000000000001E-002   -0.44365257554462012     
   7.3499999999999996E-002   -0.32411585959944311     
   7.3800000000000004E-002   -0.21613186711222721     
   7.4099999999999999E-002   -0.12678253969146613     
   7.4400000000000008E-002    -6.1750980680493228E-002
   7.4700000000000003E-002    -2.4912520020184181E-002
   7.5000000000000011E-002    -1.8047630904581613E-002
   7.5299999999999992E-002    -4.0710401570562826E-002
   7.5600000000000001E-002    -9.0226421246510258E-002
   7.5900000000000009E-002   -0.16190172221749988     
   7.6200000000000004E-002   -0.24924463935275032     
   7.6499999999999999E-002   -0.34435835912265134     
   7.6800000000000007E-002   -0.43844295509891573     
   7.7099999999999988E-002   -0.52244269993116177     
   7.7399999999999997E-002   -0.58765796273612381     
   7.7700000000000005E-002   -0.62629494589817369     
   7.8000000000000014E-002   -0.63215502493249787     
   7.8299999999999995E-002   -0.60106055204932218     
   7.8600000000000003E-002   -0.53135142748656605     
   7.8900000000000012E-002   -0.42396713879188397     
   7.9199999999999993E-002   -0.28251063526076159     
   7.9500000000000001E-002   -0.11318442469980061     
   7.9800000000000010E-002     7.5641997478976819E-002
   8.0100000000000018E-002    0.27397144679059560     
   8.0399999999999999E-002    0.47076394385628184     
   8.0700000000000008E-002    0.65474586852992367     
   8.1000000000000003E-002    0.81516761536472160     
   8.1299999999999997E-002    0.94262018399276215     
   8.1600000000000006E-002     1.0297153350099393     
   8.1900000000000014E-002     1.0715022814067439     
   8.2199999999999995E-002     1.0659675074893258     
   8.2500000000000004E-002     1.0142139432003887     
   8.2799999999999999E-002    0.92033339334984632     
   8.3100000000000007E-002    0.79097749737896450     
   8.3400000000000002E-002    0.63503650708075199     
   8.3700000000000011E-002    0.46300564810066724     
   8.4000000000000005E-002    0.28620726355187642     
   8.4300000000000000E-002    0.11579311084152089     
   8.4599999999999995E-002    -3.8012257102404856E-002
   8.4900000000000003E-002   -0.16639530472333464     
   8.5199999999999998E-002   -0.26282969104150489     
   8.5500000000000007E-002   -0.32351591492074050     
   8.5800000000000001E-002   -0.34765993865281786     
   8.6100000000000010E-002   -0.33740418441136732     
   8.6399999999999991E-002   -0.29746754490461491     
   8.6699999999999999E-002   -0.23498397203269228     
   8.7000000000000008E-002   -0.15891194970514366     
   8.7300000000000003E-002    -7.8985406659677349E-002
   8.7599999999999997E-002    -4.9515048205455436E-003
   8.7900000000000006E-002     5.4282029959077605E-002
   8.8200000000000014E-002     9.1401019889101320E-002
   8.8499999999999995E-002    0.10154772994050143     
   8.8800000000000004E-002     8.2781028885551944E-002
   8.9100000000000013E-002     3.6259729422118414E-002
   8.9399999999999993E-002    -3.3651074566062089E-002
   8.9700000000000002E-002   -0.11977309080229065     
   9.0000000000000011E-002   -0.21273887463142938     
   9.0299999999999991E-002   -0.30174106643786214     
   9.0600000000000000E-002   -0.37552403513734411     
   9.0900000000000009E-002   -0.42350796431921545     
   9.1200000000000017E-002   -0.43682365520932187     
   9.1499999999999998E-002   -0.40927344063391224     
   9.1800000000000007E-002   -0.33792520165881967     
   9.2100000000000001E-002   -0.22360122222701317     
   9.2399999999999996E-002    -7.1037518118265863E-002
   9.2700000000000005E-002    0.11138408099722863     
   9.3000000000000013E-002    0.31232794773165962     
   9.3300000000000008E-002    0.51821761099370089     
   9.3600000000000003E-002    0.71444586652355646     
   9.3899999999999997E-002    0.88639034371497161     
   9.4200000000000006E-002     1.0204582431374689     
   9.4500000000000001E-002     1.1054589120881673     
   9.4800000000000009E-002     1.1333724098906757     
   9.5100000000000004E-002     1.0996558204337035     
   9.5399999999999999E-002     1.0040305181145186     
   9.5699999999999993E-002    0.85016953270600126     
   9.6000000000000002E-002    0.64566176274495390     
   9.6300000000000011E-002    0.40143085814651158     
   9.6600000000000005E-002    0.13085704597890424     
   9.6900000000000000E-002   -0.15069830286520158     
   9.7200000000000009E-002   -0.42727019635440033     
   9.7499999999999989E-002   -0.68308984361877023     
   9.7799999999999998E-002   -0.90337400812503432     
   9.8100000000000007E-002    -1.0756504519933934     
   9.8400000000000015E-002    -1.1902514769276173     
   9.8699999999999996E-002    -1.2408617055723070     
   9.9000000000000005E-002    -1.2251988760866723     
   9.9300000000000013E-002    -1.1450486629756114     
   9.9599999999999994E-002    -1.0063399503879573     
   9.9900000000000003E-002   -0.81867558242922911     
  0.10020000000000001        -0.59466861768568435     
  0.10049999999999999        -0.34931963107212027     
  0.10080000000000000         -9.9019844006328572E-002
  0.10110000000000001         0.13982687805890937     
  0.10140000000000000         0.35191458175163159     
  0.10170000000000000         0.52415483598785739     
  0.10200000000000001         0.64656708410693753     
  0.10230000000000002         0.71299751876900785     
  0.10260000000000000         0.72174751421681194     
  0.10290000000000001         0.67563183427030893     
  0.10320000000000000         0.58120150925156722     
  0.10350000000000001         0.44873947132420966     
  0.10380000000000000         0.29102035374029800     
  0.10410000000000001         0.12211997814553155     
  0.10440000000000001         -4.3333339123212689E-002
  0.10470000000000000        -0.19207139476590562     
  0.10500000000000000        -0.31278027610395931     
  0.10530000000000000        -0.39673097799522683     
  0.10560000000000000        -0.43908705651682478     
  0.10590000000000001        -0.43863227683502881     
  0.10620000000000000        -0.39782104129732687     
  0.10650000000000001        -0.32257012771174232     
  0.10679999999999999        -0.22146330138852832     
  0.10710000000000000        -0.10523646705156064     
  0.10740000000000001          1.4790318070425190E-002
  0.10770000000000000         0.12747206591193838     
  0.10800000000000000         0.22239251221322087     
  0.10830000000000001         0.29117194814212066     
  0.10859999999999999         0.32831078682940174     
  0.10890000000000000         0.33123111063862432     
  0.10920000000000001         0.30048249263560933     
  0.10950000000000001         0.23955107872322312     
  0.10979999999999999         0.15460957287138299     
  0.11009999999999999          5.3849300653996846E-002
  0.11040000000000001         -5.3606915733278360E-002
  0.11070000000000001        -0.15865369232712001     
  0.11100000000000000        -0.25267401027183567     
  0.11130000000000000        -0.32870572580299129     
  0.11160000000000002        -0.38193786410370301     
  0.11190000000000001        -0.41021027860933756     
  0.11220000000000001        -0.41432442332028430     
  0.11250000000000000        -0.39720720907841134     
  0.11280000000000000        -0.36414217895972811     
  0.11309999999999999        -0.32210850613391528     
  0.11340000000000001        -0.27856318094644728     
  0.11369999999999998        -0.24102740434543879     
  0.11400000000000000        -0.21617229968989182     
  0.11430000000000000        -0.20908612834653262     
  0.11460000000000002        -0.22267285936702397     
  0.11489999999999999        -0.25718117472270663     
  0.11520000000000001        -0.31060905045678044     
  0.11550000000000001        -0.37871187949077978     
  0.11580000000000000        -0.45481669428870930     
  0.11609999999999999        -0.53107620493525864     
  0.11640000000000002        -0.59923218331181971     
  0.11670000000000001        -0.65119431055688537     
  0.11700000000000001        -0.67953660216325673     
  0.11730000000000000        -0.67862606423152627     
  0.11760000000000000        -0.64531616229227851     
  0.11789999999999999        -0.57919164299293868     
  0.11820000000000001        -0.48214088328136739     
  0.11850000000000001        -0.35875867144616258     
  0.11880000000000000        -0.21638324550491106     
  0.11910000000000000         -6.3836738929893722E-002
  0.11940000000000002          8.9129624116909056E-002
  0.11970000000000001         0.23262279113246409     
  0.12000000000000001         0.35727087975562943     
  0.12030000000000000         0.45491624245446260     
  0.12060000000000000         0.51992457875263121     
  0.12089999999999999         0.54907579785676219     
  0.12119999999999999         0.54147811972226378     
  0.12150000000000001         0.49953404843317450     
  0.12180000000000001         0.42811196659255479     
  0.12210000000000000         0.33421634616171936     
  0.12239999999999999         0.22643782915375432     
  0.12270000000000002         0.11436422551173342     
  0.12300000000000001          8.0383359756025508E-003
  0.12330000000000001         -8.2815056222983241E-002
  0.12360000000000000        -0.14961371998839562     
  0.12390000000000000        -0.18520430466772719     
  0.12419999999999999        -0.18400348686304291     
  0.12450000000000001        -0.14262956384369918     
  0.12480000000000001         -6.0000904046341619E-002
  0.12509999999999999          6.2483236456342350E-002
  0.12540000000000001         0.22163775382558892     
  0.12570000000000003         0.41223845248887470     
  0.12600000000000000         0.62689215762251838     
  0.12630000000000002         0.85685679215750632     
  0.12659999999999999          1.0927308568292915     
  0.12690000000000001          1.3240530105306583     
  0.12719999999999998          1.5405566541426694     
  0.12750000000000000          1.7323979357005470     
  0.12780000000000002          1.8906501133140949     
  0.12809999999999999          2.0081423793556539     
  0.12840000000000001          2.0794114279946783     
  0.12869999999999998          2.1013637472194233     
  0.12900000000000000          2.0731555246124742     
  0.12930000000000003          1.9964703514942315     
  0.12959999999999999          1.8750306334522833     
  0.12990000000000002          1.7141280298484958     
  0.13019999999999998          1.5204351529506610     
  0.13050000000000000          1.3012786316335294     
  0.13080000000000003          1.0635912253971753     
  0.13109999999999999         0.81390151906225583     
  0.13140000000000002         0.55776347176249352     
  0.13169999999999998         0.29914124195359459     
  0.13200000000000001          4.0238609695574468E-002
  0.13229999999999997        -0.21780510181063484     
  0.13260000000000000        -0.47509250676098436     
  0.13290000000000002        -0.73232717698105620     
  0.13319999999999999        -0.99019135097708144     
  0.13350000000000001         -1.2488250149000173     
  0.13380000000000003         -1.5069697952521750     
  0.13410000000000000         -1.7619441630123163     
  0.13440000000000002         -2.0091042107177799     
  0.13469999999999999         -2.2417179854357769     
  0.13500000000000001         -2.4516485347898183     
  0.13529999999999998         -2.6297543234103742     
  0.13560000000000000         -2.7664630505291399     
  0.13590000000000002         -2.8526266727865419     
  0.13619999999999999         -2.8807626697613529     
  0.13650000000000001         -2.8463077572940989     
  0.13680000000000003         -2.7474484965222103     
  0.13710000000000000         -2.5860834838633053     
  0.13740000000000002         -2.3686331031644272     
  0.13769999999999999         -2.1050075054398434     
  0.13800000000000001         -1.8080311099027426     
  0.13829999999999998         -1.4928564100009538     
  0.13860000000000000         -1.1759824498046356     
  0.13890000000000002        -0.87358675872028613     
  0.13919999999999999        -0.59981291413305726     
  0.13950000000000001        -0.36591573050018056     
  0.13979999999999998        -0.17935173120755943     
  0.14010000000000000         -4.3142936389595349E-002
  0.14040000000000002          4.4963258609704848E-002
  0.14069999999999999          9.1753891401859189E-002
  0.14100000000000001         0.10783146405687427     
  0.14130000000000004         0.10652515804910401     
  0.14160000000000000         0.10287238851861158     
  0.14189999999999997         0.11264839972962104     
  0.14219999999999999         0.15027244669140227     
  0.14250000000000002         0.22703636282528894     
  0.14279999999999998         0.35154093901939731     
  0.14310000000000000         0.52806460919142317     
  0.14339999999999997         0.75639981105480003     
  0.14369999999999999          1.0315978984009577     
  0.14400000000000002          1.3443897720967986     
  0.14429999999999998          1.6821957146966291     
  0.14460000000000001          2.0291060598513262     
  0.14490000000000003          2.3673498022690111     
  0.14520000000000000          2.6786010815862369     
  0.14550000000000002          2.9443500556074298     
  0.14579999999999999          3.1473043548958515     
  0.14610000000000001          3.2731403794174838     
  0.14640000000000003          3.3107993990682587     
  0.14670000000000000          3.2532492034232803     
  0.14699999999999996          3.0985452931537338     
  0.14729999999999999          2.8503934228513970     
  0.14760000000000001          2.5179395915200331     
  0.14789999999999998          2.1153911841930153     
  0.14820000000000000          1.6612015232956452     