  -1.4999999999999999E-002     0.0000000000000000     
  -1.4700000000000000E-002     0.0000000000000000     
  -1.4400000000000000E-002     0.0000000000000000     
  -1.4100000000000000E-002     0.0000000000000000     
  -1.3800000000000000E-002     0.0000000000000000     
  -1.3500000000000000E-002     0.0000000000000000     
  -1.3200000000000000E-002     0.0000000000000000     
  -1.2899999999999998E-002     0.0000000000000000     
  -1.2600000000000000E-002     0.0000000000000000     
  -1.2299999999999998E-002     0.0000000000000000     
  -1.2000000000000000E-002     5.7395836264894687E-036
  -1.1699999999999999E-002    -5.2459850537957955E-035
  -1.1399999999999999E-002    -7.4049192154744953E-034
  -1.1099999999999999E-002     9.0501139623127046E-032
  -1.0799999999999999E-002    -1.9761963397775504E-030
  -1.0499999999999999E-002     2.0277385132927447E-029
  -1.0199999999999999E-002    -7.8867842335878111E-029
  -9.8999999999999991E-003    -7.1086854248960352E-028
  -9.5999999999999992E-003     1.4045592921006295E-026
  -9.2999999999999992E-003    -1.2339756709919677E-025
  -8.9999999999999993E-003     7.4753849746088531E-025
  -8.6999999999999994E-003    -3.4899170948236827E-024
  -8.3999999999999995E-003     1.3093368154451793E-023
  -8.0999999999999996E-003    -4.0163688630631710E-023
  -7.7999999999999988E-003     1.0294440437807158E-022
  -7.4999999999999997E-003    -2.3195360610176130E-022
  -7.1999999999999998E-003     4.9911484433177984E-022
  -6.8999999999999981E-003    -1.0605251129593257E-021
  -6.5999999999999982E-003     1.6860762102863264E-021
  -6.3000000000000000E-003     2.2291544117055926E-021
  -6.0000000000000001E-003    -3.5174391826874195E-020
  -5.6999999999999985E-003     1.7243077469505101E-019
  -5.3999999999999986E-003    -5.4411925184101675E-019
  -5.1000000000000004E-003     1.1570615850076705E-018
  -4.7999999999999987E-003    -1.2457910779671258E-018
  -4.5000000000000005E-003    -2.0626257290086465E-018
  -4.1999999999999989E-003     1.5136803022234468E-017
  -3.8999999999999990E-003    -4.6621272443305478E-017
  -3.5999999999999990E-003     9.9154510603645851E-017
  -3.2999999999999991E-003    -1.5142021539282942E-016
  -2.9999999999999992E-003     1.3697048182227130E-016
  -2.6999999999999993E-003     5.5682238651713395E-017
  -2.3999999999999994E-003    -5.2652446798010085E-016
  -2.0999999999999977E-003     1.2628291390837012E-015
  -1.7999999999999995E-003    -2.1078417010005632E-015
  -1.4999999999999979E-003     2.8858666622838189E-015
  -1.1999999999999997E-003    -3.4034616030548465E-015
  -8.9999999999999976E-004     2.6312854042723818E-015
  -5.9999999999999810E-004     2.9725691665230059E-015
  -2.9999999999999992E-004    -1.9328951349098338E-014
   0.0000000000000000          4.7759359807870647E-014
   3.0000000000000165E-004    -7.1280045125902969E-014
   5.9999999999999984E-004     4.9676469806182039E-014
   9.0000000000000149E-004     5.2265832585279490E-014
   1.2000000000000031E-003    -2.0715045889567463E-013
   1.5000000000000013E-003     3.0848178286975447E-013
   1.8000000000000030E-003    -3.0128902302715976E-013
   2.1000000000000012E-003     4.5419172437811961E-013
   2.3999999999999994E-003    -1.4202161582183015E-012
   2.7000000000000010E-003     3.2739889358618379E-012
   2.9999999999999992E-003    -3.3530513435242604E-012
   3.3000000000000008E-003    -2.4314348277820752E-012
   3.6000000000000025E-003     3.1123838315633146E-012
   3.9000000000000007E-003     4.9356182335591470E-011
   4.2000000000000023E-003    -1.5051820900779944E-010
   4.5000000000000005E-003    -1.7155646347966069E-010
   4.7999999999999987E-003     2.2067743188358691E-009
   5.1000000000000004E-003    -5.7583986468046078E-009
   5.4000000000000020E-003     1.2436418561634355E-009
   5.7000000000000037E-003     3.1347550333293839E-008
   5.9999999999999984E-003    -7.0676755115073320E-008
   6.3000000000000000E-003    -3.5863706671079854E-008
   6.6000000000000017E-003     3.6534382275021926E-007
   6.9000000000000034E-003    -2.0553432023007190E-007
   7.2000000000000015E-003    -1.3437577308650361E-006
   7.5000000000000032E-003     9.1609024366334779E-007
   7.8000000000000014E-003     4.2318570194765925E-006
   8.0999999999999996E-003    -1.6384981336159399E-006
   8.4000000000000012E-003    -1.2117881851736456E-005
   8.7000000000000029E-003     5.0809092044801218E-007
   9.0000000000000011E-003     4.8990445066010579E-005
   9.2999999999999992E-003     1.0456979362061247E-004
   9.6000000000000009E-003     1.4412953169085085E-004
   9.8999999999999991E-003     2.0371096616145223E-004
   1.0200000000000001E-002     3.4394659451209009E-004
   1.0500000000000002E-002     5.8308528969064355E-004
   1.0800000000000004E-002     9.1342633822932839E-004
   1.1099999999999999E-002     1.3799687149003148E-003
   1.1400000000000000E-002     2.0993303041905165E-003
   1.1700000000000002E-002     3.1984788365662098E-003
   1.2000000000000004E-002     4.7892495058476925E-003
   1.2300000000000002E-002     7.0380270481109619E-003
   1.2600000000000000E-002     1.0225484147667885E-002
   1.2900000000000002E-002     1.4699256047606468E-002
   1.3200000000000000E-002     2.0823968574404716E-002
   1.3500000000000002E-002     2.9051281511783600E-002
   1.3800000000000003E-002     3.9988320320844650E-002
   1.4100000000000001E-002     5.4321974515914917E-002
   1.4400000000000000E-002     7.2722524404525757E-002
   1.4700000000000001E-002     9.5882937312126160E-002
   1.4999999999999999E-002    0.12456770241260529     
   1.5300000000000001E-002    0.15947347879409790     
   1.5600000000000003E-002    0.20102289319038391     
   1.5899999999999997E-002    0.24932044744491577     
   1.6199999999999999E-002    0.30415490269660950     
   1.6500000000000001E-002    0.36481732130050659     
   1.6800000000000002E-002    0.42987033724784851     
   1.7100000000000004E-002    0.49709042906761169     
   1.7400000000000006E-002    0.56353765726089478     
   1.7700000000000000E-002    0.62553751468658447     
   1.8000000000000002E-002    0.67865508794784546     
   1.8300000000000004E-002    0.71788412332534790     
   1.8600000000000005E-002    0.73803383111953735     
   1.8900000000000000E-002    0.73415261507034302     
   1.9200000000000002E-002    0.70182740688323975     
   1.9500000000000003E-002    0.63758593797683716     
   1.9799999999999998E-002    0.53957706689834595     
   2.0100000000000000E-002    0.40817016363143921     
   2.0400000000000001E-002    0.24619336426258087     
   2.0700000000000003E-002     5.8824252337217331E-002
   2.0999999999999998E-002   -0.14631716907024384     
   2.1299999999999999E-002   -0.35917937755584717     
   2.1600000000000001E-002   -0.56791329383850098     
   2.1900000000000003E-002   -0.75998514890670776     
   2.2200000000000004E-002   -0.92308330535888672     
   2.2500000000000006E-002    -1.0459296703338623     
   2.2800000000000001E-002    -1.1195287704467773     
   2.3100000000000002E-002    -1.1383935213088989     
   2.3400000000000004E-002    -1.1012574434280396     
   2.3699999999999999E-002    -1.0114159584045410     
   2.4000000000000000E-002   -0.87679225206375122     
   2.4300000000000002E-002   -0.70980739593505859     
   2.4599999999999997E-002   -0.52666711807250977     
   2.4900000000000005E-002   -0.34600755572319031     
   2.5200000000000000E-002   -0.18720576167106628     
   2.5499999999999995E-002    -6.9085486233234406E-002
   2.5800000000000003E-002    -8.4639396518468857E-003
   2.6099999999999998E-002    -1.8304493278264999E-002
   2.6400000000000007E-002   -0.10610419511795044     
   2.6700000000000002E-002   -0.27338013052940369     
   2.6999999999999996E-002   -0.51562273502349854     
   2.7300000000000005E-002   -0.82203948497772217     
   2.7600000000000000E-002    -1.1757414340972900     
   2.7900000000000008E-002    -1.5551874637603760     
   2.8200000000000003E-002    -1.9359495639801025     
   2.8499999999999998E-002    -2.2921290397644043     
   2.8800000000000006E-002    -2.5979034900665283     
   2.9100000000000001E-002    -2.8295767307281494     
   2.9400000000000003E-002    -2.9672060012817383     
   2.9700000000000004E-002    -2.9957287311553955     
   3.0000000000000006E-002    -2.9059350490570068     
   3.0300000000000001E-002    -2.6949467658996582     
   3.0600000000000002E-002    -2.3662934303283691     
   3.0900000000000004E-002    -1.9295696020126343     
   3.1199999999999999E-002    -1.3995343446731567     
   3.1500000000000007E-002   -0.79512566328048706     
   3.1800000000000002E-002   -0.13853441178798676     
   3.2099999999999997E-002    0.54578083753585815     
   3.2400000000000005E-002     1.2325531244277954     
   3.2700000000000000E-002     1.8964664936065674     
   3.3000000000000002E-002     2.5129284858703613     
   3.3300000000000003E-002     3.0593242645263672     
   3.3599999999999998E-002     3.5154705047607422     
   3.3900000000000000E-002     3.8635430335998535     
   3.4200000000000001E-002     4.0895481109619141     
   3.4500000000000003E-002     4.1843810081481934     
   3.4799999999999998E-002     4.1437554359436035     
   3.5099999999999999E-002     3.9687039852142334     
   3.5400000000000001E-002     3.6671142578125000     
   3.5699999999999996E-002     3.2539911270141602     
   3.6000000000000004E-002     2.7507536411285400     
   3.6299999999999999E-002     2.1849749088287354     
   3.6600000000000008E-002     1.5902516841888428     
   3.6900000000000002E-002     1.0041739940643311     
   3.7199999999999997E-002    0.46551871299743652     
   3.7500000000000006E-002     1.2217326089739799E-002
   3.7800000000000000E-002   -0.32102489471435547     
   3.8100000000000009E-002   -0.50579470396041870     
   3.8400000000000004E-002   -0.52296185493469238     
   3.8699999999999998E-002   -0.36478215456008911     
   3.9000000000000007E-002    -3.5709448158740997E-002
   3.9300000000000002E-002    0.44726043939590454     
   3.9600000000000003E-002     1.0546320676803589     
   3.9900000000000005E-002     1.7456369400024414     
   4.0200000000000000E-002     2.4712917804718018     
   4.0500000000000001E-002     3.1776554584503174     
   4.0800000000000003E-002     3.8086736202239990     
   4.1100000000000005E-002     4.3093638420104980     
   4.1399999999999999E-002     4.6302676200866699     
   4.1700000000000008E-002     4.7305984497070312     
   4.2000000000000003E-002     4.5797295570373535     
   4.2299999999999997E-002     4.1590323448181152     
   4.2600000000000006E-002     3.4642481803894043     
   4.2900000000000001E-002     2.5052590370178223     
   4.3200000000000002E-002     1.3050681352615356     
   4.3500000000000004E-002   -0.10068105161190033     
   4.3799999999999999E-002    -1.6642041206359863     
   4.4100000000000000E-002    -3.3278212547302246     
   4.4400000000000002E-002    -5.0265545845031738     
   4.4700000000000004E-002    -6.6897664070129395     
   4.4999999999999998E-002    -8.2436714172363281     
   4.5300000000000000E-002    -9.6148366928100586     
   4.5600000000000002E-002    -10.733336448669434     
   4.5899999999999996E-002    -11.535674095153809     
   4.6200000000000005E-002    -11.968253135681152     
   4.6500000000000000E-002    -11.990816116333008     
   4.6799999999999994E-002    -11.579603195190430     
   4.7100000000000003E-002    -10.729368209838867     
   4.7399999999999998E-002    -9.4548234939575195     
   4.7700000000000006E-002    -7.7911128997802734     
   4.8000000000000001E-002    -5.7936115264892578     
   4.8300000000000010E-002    -3.5355412960052490     
   4.8600000000000004E-002    -1.1041604280471802     
   4.8899999999999999E-002     1.4027742147445679     
   4.9200000000000008E-002     3.8814744949340820     
   4.9500000000000002E-002     6.2286686897277832     
   4.9800000000000011E-002     8.3479309082031250     
   5.0100000000000006E-002     10.153371810913086     
   5.0400000000000000E-002     11.573693275451660     
   5.0700000000000009E-002     12.556899070739746     
   5.1000000000000004E-002     13.072123527526855     
   5.1299999999999998E-002     13.109040260314941     
   5.1600000000000007E-002     12.677227973937988     
   5.1900000000000002E-002     11.804823875427246     
   5.2200000000000010E-002     10.535201072692871     
   5.2500000000000005E-002     8.9232664108276367     
   5.2800000000000000E-002     7.0315709114074707     
   5.3099999999999994E-002     4.9275259971618652     
   5.3400000000000003E-002     2.6804940700531006     
   5.3699999999999998E-002    0.35950577259063721     
   5.4000000000000006E-002    -1.9684721231460571     
   5.4300000000000001E-002    -4.2383198738098145     
   5.4599999999999996E-002    -6.3865184783935547     
   5.4900000000000004E-002    -8.3519687652587891     
   5.5199999999999999E-002    -10.075991630554199     
   5.5499999999999994E-002    -11.501630783081055     
   5.5800000000000002E-002    -12.575289726257324     
   5.6099999999999997E-002    -13.249049186706543     
   5.6400000000000006E-002    -13.483139991760254     
   5.6700000000000000E-002    -13.248932838439941     
   5.6999999999999995E-002    -12.532538414001465     
   5.7300000000000004E-002    -11.338706970214844     
   5.7599999999999998E-002    -9.6928968429565430     
   5.7900000000000007E-002    -7.6426887512207031     
   5.8200000000000002E-002    -5.2580533027648926     
   5.8499999999999996E-002    -2.6289148330688477     
   5.8800000000000005E-002    0.13816830515861511     
   5.9100000000000000E-002     2.9255089759826660     
   5.9400000000000008E-002     5.6112065315246582     
   5.9700000000000003E-002     8.0767278671264648     
   6.0000000000000012E-002     10.214092254638672     
   6.0300000000000006E-002     11.932637214660645     
   6.0600000000000001E-002     13.165560722351074     
   6.0900000000000010E-002     13.873953819274902     
   6.1200000000000004E-002     14.048175811767578     
   6.1500000000000013E-002     13.708186149597168     
   6.1800000000000008E-002     12.900515556335449     
   6.2100000000000002E-002     11.694165229797363     
   6.2399999999999997E-002     10.175716400146484     
   6.2700000000000006E-002     8.4413337707519531     
   6.3000000000000000E-002     6.5891370773315430     
   6.3300000000000009E-002     4.7139587402343750     
   6.3600000000000004E-002     2.9010324478149414     
   6.3899999999999998E-002     1.2203305959701538     
   6.4199999999999993E-002   -0.27616927027702332     
   6.4500000000000002E-002    -1.5553408861160278     
   6.4800000000000010E-002    -2.6031479835510254     
   6.5100000000000005E-002    -3.4231839179992676     
   6.5400000000000000E-002    -4.0329241752624512     
   6.5700000000000008E-002    -4.4602956771850586     
   6.5999999999999989E-002    -4.7397675514221191     
   6.6299999999999998E-002    -4.9078583717346191     
   6.6600000000000006E-002    -4.9991555213928223     
   6.6900000000000001E-002    -5.0442318916320801     
   6.7199999999999996E-002    -5.0671691894531250     
   6.7500000000000004E-002    -5.0839309692382812     
   6.7800000000000013E-002    -5.1035499572753906     
   6.8099999999999994E-002    -5.1282539367675781     
   6.8400000000000002E-002    -5.1546101570129395     
   6.8700000000000011E-002    -5.1756057739257812     
   6.8999999999999992E-002    -5.1828703880310059     
   6.9300000000000000E-002    -5.1681394577026367     
   6.9600000000000009E-002    -5.1240143775939941     
   6.9900000000000004E-002    -5.0452799797058105     
   7.0199999999999999E-002    -4.9302535057067871     
   7.0500000000000007E-002    -4.7798452377319336     
   7.0800000000000016E-002    -4.5967087745666504     
   7.1099999999999997E-002    -4.3856701850891113     
   7.1400000000000005E-002    -4.1530218124389648     
   7.1700000000000000E-002    -3.9051921367645264     
   7.1999999999999995E-002    -3.6477792263031006     
   7.2300000000000003E-002    -3.3853056430816650     
   7.2600000000000012E-002    -3.1207079887390137     
   7.2900000000000006E-002    -2.8539693355560303     
   7.3200000000000001E-002    -2.5807821750640869     
   7.3499999999999996E-002    -2.2931146621704102     
   7.3800000000000004E-002    -1.9791783094406128     
   7.4099999999999999E-002    -1.6228629350662231     
   7.4400000000000008E-002    -1.2042444944381714     
   7.4700000000000003E-002   -0.70148593187332153     
   7.5000000000000011E-002    -9.4154313206672668E-002
   7.5299999999999992E-002    0.63547188043594360     
   7.5600000000000001E-002     1.4996242523193359     
   7.5900000000000009E-002     2.5011303424835205     
   7.6200000000000004E-002     3.6307802200317383     
   7.6499999999999999E-002     4.8670978546142578     
   7.6800000000000007E-002     6.1766057014465332     
   7.7099999999999988E-002     7.5153961181640625     
   7.7399999999999997E-002     8.8324108123779297     
   7.7700000000000005E-002     10.074293136596680     
   7.8000000000000014E-002     11.191685676574707     
   7.8299999999999995E-002     12.143872261047363     
   7.8600000000000003E-002     12.902192115783691     
   7.8900000000000012E-002     13.452333450317383     
   7.9199999999999993E-002     13.794388771057129     
   7.9500000000000001E-002     13.939538955688477     
   7.9800000000000010E-002     13.903954505920410     
   8.0100000000000018E-002     13.701185226440430     
   8.0399999999999999E-002     13.335349082946777     
   8.0700000000000008E-002     12.793613433837891     
   8.1000000000000003E-002     12.040764808654785     
   8.1299999999999997E-002     11.018264770507812     
   8.1600000000000006E-002     9.6480627059936523     
   8.1900000000000014E-002     7.8398900032043457     
   8.2199999999999995E-002     5.5022883415222168     
   8.2500000000000004E-002     2.5589792728424072     
   8.2799999999999999E-002    -1.0345027446746826     
   8.3100000000000007E-002    -5.2759070396423340     
   8.3400000000000002E-002    -10.101927757263184     
   8.3700000000000011E-002    -15.379419326782227     
   8.4000000000000005E-002    -20.904428482055664     
   8.4300000000000000E-002    -26.408037185668945     
   8.4599999999999995E-002    -31.568559646606445     
   8.4900000000000003E-002    -36.032455444335938     
   8.5199999999999998E-002    -39.441680908203125     
   8.5500000000000007E-002    -41.463447570800781     
   8.5800000000000001E-002    -41.821216583251953     
   8.6100000000000010E-002    -40.322410583496094     
   8.6399999999999991E-002    -36.881919860839844     
   8.6699999999999999E-002    -31.538482666015625     
   8.7000000000000008E-002    -24.460823059082031     
   8.7300000000000003E-002    -15.942502021789551     
   8.7599999999999997E-002    -6.3855218887329102     
   8.7900000000000006E-002     3.7236139774322510     
   8.8200000000000014E-002     13.846776008605957     
   8.8499999999999995E-002     23.432802200317383     
   8.8800000000000004E-002     31.957611083984375     
   8.9100000000000013E-002     38.960739135742188     
   8.9399999999999993E-002     44.078365325927734     
   8.9700000000000002E-002     47.067867279052734     
   9.0000000000000011E-002     47.822891235351562     
   9.0299999999999991E-002     46.377048492431641     
   9.0600000000000000E-002     42.895980834960938     
   9.0900000000000009E-002     37.659744262695312     
   9.1200000000000017E-002     31.038909912109375     
   9.1499999999999998E-002     23.464519500732422     
   9.1800000000000007E-002     15.393715858459473     
   9.2100000000000001E-002     7.2769584655761719     
   9.2399999999999996E-002   -0.46858394145965576     
   9.2700000000000005E-002    -7.4849753379821777     
   9.3000000000000013E-002    -13.491169929504395     
   9.3300000000000008E-002    -18.291364669799805     
   9.3600000000000003E-002    -21.778028488159180     
   9.3899999999999997E-002    -23.929376602172852     
   9.4200000000000006E-002    -24.800159454345703     
   9.4500000000000001E-002    -24.507669448852539     
   9.4800000000000009E-002    -23.217309951782227     
   9.5100000000000004E-002    -21.127033233642578     
   9.5399999999999999E-002    -18.450382232666016     
   9.5699999999999993E-002    -15.402334213256836     
   9.6000000000000002E-002    -12.187636375427246     
   9.6300000000000011E-002    -8.9907379150390625     
   9.6600000000000005E-002    -5.9666295051574707     
   9.6900000000000000E-002    -3.2364349365234375     
   9.7200000000000009E-002   -0.88616204261779785     
   9.7499999999999989E-002     1.0338267087936401     
   9.7799999999999998E-002     2.5074381828308105     
   9.8100000000000007E-002     3.5482301712036133     
   9.8400000000000015E-002     4.1941061019897461     
   9.8699999999999996E-002     4.5006413459777832     
   9.9000000000000005E-002     4.5345482826232910     
   9.9300000000000013E-002     4.3665537834167480     
   9.9599999999999994E-002     4.0652070045471191     
   9.9900000000000003E-002     3.6921112537384033     
  0.10020000000000001          3.2978298664093018     
  0.10049999999999999          2.9195020198822021     
  0.10080000000000000          2.5811176300048828     
  0.10110000000000001          2.2947907447814941     
  0.10140000000000000          2.0621478557586670     
  0.10170000000000000          1.8766982555389404     
  0.10200000000000001          1.7277843952178955     
  0.10230000000000002          1.6041705608367920     
  0.10260000000000000          1.4944008588790894     
  0.10290000000000001          1.3885926008224487     
  0.10320000000000000          1.2811684608459473     
  0.10350000000000001          1.1695327758789062     
  0.10380000000000000          1.0533491373062134     
  0.10410000000000001         0.93447393178939819     
  0.10440000000000001         0.81687188148498535     
  0.10470000000000000         0.70488524436950684     
  0.10500000000000000         0.60242944955825806     
  0.10530000000000000         0.51357567310333252     
  0.10560000000000000         0.44232803583145142     
  0.10590000000000001         0.39126145839691162     
  0.10620000000000000         0.36165443062782288     
  0.10650000000000001         0.35397627949714661     
  0.10679999999999999         0.36682927608489990     
  0.10710000000000000         0.39597392082214355     
  0.10740000000000001         0.43535295128822327     
  0.10770000000000000         0.47667577862739563     
  0.10800000000000000         0.50977647304534912     
  0.10830000000000001         0.52301239967346191     
  0.10859999999999999         0.50445425510406494     
  0.10890000000000000         0.44391176104545593     
  0.10920000000000001         0.33384397625923157     
  0.10950000000000001         0.17009979486465454     
  0.10979999999999999         -4.6760160475969315E-002
  0.11009999999999999        -0.31095170974731445     
  0.11040000000000001        -0.61126059293746948     
  0.11070000000000001        -0.93270111083984375     
  0.11100000000000000         -1.2573404312133789     
  0.11130000000000000         -1.5655845403671265     
  0.11160000000000002         -1.8378447294235229     
  0.11190000000000001         -2.0571568012237549     
  0.11220000000000001         -2.2099189758300781     
  0.11250000000000000         -2.2863512039184570     
  0.11280000000000000         -2.2817635536193848     
  0.11309999999999999         -2.1966841220855713     
  0.11340000000000001         -2.0355825424194336     
  0.11369999999999998         -1.8066071271896362     
  0.11400000000000000         -1.5211414098739624     
  0.11430000000000000         -1.1927840709686279     
  0.11460000000000002        -0.83501529693603516     
  0.11489999999999999        -0.46153727173805237     
  0.11520000000000001         -8.6440436542034149E-002
  0.11550000000000001         0.27701786160469055     
  0.11580000000000000         0.61768293380737305     
  0.11609999999999999         0.92533278465270996     
  0.11640000000000002          1.1907050609588623     
  0.11670000000000001          1.4062045812606812     
  0.11700000000000001          1.5669080018997192     
  0.11730000000000000          1.6694587469100952     
  0.11760000000000000          1.7115694284439087     
  0.11789999999999999          1.6942074298858643     
  0.11820000000000001          1.6208746433258057     
  0.11850000000000001          1.4966244697570801     
  0.11880000000000000          1.3291357755661011     
  0.11910000000000000          1.1275477409362793     
  0.11940000000000002         0.90240007638931274     
  0.11970000000000001         0.66549074649810791     
  0.12000000000000001         0.42854622006416321     
  0.12030000000000000         0.20294292271137238     
  0.12060000000000000         -1.7582559958100319E-003
  0.12089999999999999        -0.17753536999225616     
  0.12119999999999999        -0.31790480017662048     
  0.12150000000000001        -0.41962572932243347     
  0.12180000000000001        -0.48246300220489502     
  0.12210000000000000        -0.50829958915710449     
  0.12239999999999999        -0.50038200616836548     
  0.12270000000000002        -0.46399143338203430     
  0.12300000000000001        -0.40547826886177063     
  0.12330000000000001        -0.33063477277755737     
  0.12360000000000000        -0.24422243237495422     
  0.12390000000000000        -0.15008562803268433     
  0.12419999999999999         -5.0858154892921448E-002
  0.12450000000000001          5.2673812955617905E-002
  0.12480000000000001         0.16094943881034851     
  0.12509999999999999         0.27415722608566284     
  0.12540000000000001         0.39211627840995789     
  0.12570000000000003         0.51334202289581299     
  0.12600000000000000         0.63394302129745483     
  0.12630000000000002         0.74735599756240845     
  0.12659999999999999         0.84416610002517700     
  0.12690000000000001         0.91263437271118164     
  0.12719999999999998         0.93987154960632324     
  0.12750000000000000         0.91335028409957886     
  0.12780000000000002         0.82309180498123169     
  0.12809999999999999         0.66299086809158325     
  0.12840000000000001         0.43237888813018799     
  0.12869999999999998         0.13854172825813293     
  0.12900000000000000        -0.20410808920860291     
  0.12930000000000003        -0.57474005222320557     
  0.12959999999999999        -0.94701308012008667     
  0.12990000000000002         -1.2920780181884766     
  0.13019999999999998         -1.5814758539199829     
  0.13050000000000000         -1.7904683351516724     
  0.13080000000000003         -1.9010835886001587     
  0.13109999999999999         -1.9047737121582031     
  0.13140000000000002         -1.8042023181915283     
  0.13169999999999998         -1.6120588779449463     
  0.13200000000000001         -1.3507463932037354     
  0.13229999999999997         -1.0497564077377319     
  0.13260000000000000        -0.74142694473266602     
  0.13290000000000002        -0.45694902539253235     
  0.13319999999999999        -0.22286579012870789     
  0.13350000000000001         -5.7442221790552139E-002
  0.13380000000000003          3.1797681003808975E-002
  0.13410000000000000          4.8677328974008560E-002
  0.13440000000000002          7.8749414533376694E-003
  0.13469999999999999         -6.7196585237979889E-002
  0.13500000000000001        -0.14851120114326477     
  0.13529999999999998        -0.20654135942459106     
  0.13560000000000000        -0.21455641090869904     
  0.13590000000000002        -0.15226200222969055     
  0.13619999999999999         -9.0143103152513504E-003
  0.13650000000000001         0.21452231705188751     
  0.13680000000000003         0.50717425346374512     
  0.13710000000000000         0.84762972593307495     
  0.13740000000000002          1.2066504955291748     
  0.13769999999999999          1.5509111881256104     
  0.13800000000000001          1.8462728261947632     
  0.13829999999999998          2.0614116191864014     
  0.13860000000000000          2.1711997985839844     
  0.13890000000000002          2.1592669486999512     
  0.13919999999999999          2.0193181037902832     
  0.13950000000000001          1.7561684846878052     
  0.13979999999999998          1.3849271535873413     
  0.14010000000000000         0.92979508638381958     
  0.14040000000000002         0.42180359363555908     
  0.14069999999999999        -0.10373855382204056     
  0.14100000000000001        -0.60979837179183960     
  0.14130000000000004         -1.0613310337066650     
  0.14160000000000000         -1.4280830621719360     
  0.14189999999999997         -1.6859952211380005     
  0.14219999999999999         -1.8196574449539185     
  0.14250000000000002         -1.8233293294906616     
  0.14279999999999998         -1.7010085582733154     
  0.14310000000000000         -1.4660191535949707     
  0.14339999999999997         -1.1396232843399048     
  0.14369999999999999        -0.74885582923889160     
  0.14400000000000002        -0.32482540607452393     
  0.14429999999999998         0.10065539181232452     
  0.14460000000000001         0.49693274497985840     
  0.14490000000000003         0.83695566654205322     
  0.14520000000000000          1.0998328924179077     
  0.14550000000000002          1.2712606191635132     
  0.14579999999999999          1.3443521261215210     
  0.14610000000000001          1.3196362257003784     
  0.14640000000000003          1.2043299674987793     
  0.14670000000000000          1.0119578838348389     
  0.14699999999999996         0.75904005765914917     
  0.14729999999999999         0.46447336673736572     
  0.14760000000000001         0.14888441562652588     
  0.14789999999999998        -0.16842827200889587     
  0.14820000000000000        -0.47039732336997986     