  -1.4999999999999999E-002     0.0000000000000000     
  -1.4700000000000000E-002     0.0000000000000000     
  -1.4400000000000000E-002     0.0000000000000000     
  -1.4100000000000000E-002     0.0000000000000000     
  -1.3800000000000000E-002     0.0000000000000000     
  -1.3500000000000000E-002     0.0000000000000000     
  -1.3200000000000000E-002     0.0000000000000000     
  -1.2899999999999998E-002     0.0000000000000000     
  -1.2600000000000000E-002     0.0000000000000000     
  -1.2299999999999998E-002     0.0000000000000000     
  -1.2000000000000000E-002     0.0000000000000000     
  -1.1699999999999999E-002     0.0000000000000000     
  -1.1399999999999999E-002     0.0000000000000000     
  -1.1099999999999999E-002     0.0000000000000000     
  -1.0799999999999999E-002     0.0000000000000000     
  -1.0499999999999999E-002     0.0000000000000000     
  -1.0199999999999999E-002     0.0000000000000000     
  -9.8999999999999991E-003     0.0000000000000000     
  -9.5999999999999992E-003     0.0000000000000000     
  -9.2999999999999992E-003     0.0000000000000000     
  -8.9999999999999993E-003     0.0000000000000000     
  -8.6999999999999994E-003     0.0000000000000000     
  -8.3999999999999995E-003     0.0000000000000000     
  -8.0999999999999996E-003     0.0000000000000000     
  -7.7999999999999988E-003     0.0000000000000000     
  -7.4999999999999997E-003     0.0000000000000000     
  -7.1999999999999998E-003     0.0000000000000000     
  -6.8999999999999981E-003     0.0000000000000000     
  -6.5999999999999982E-003     0.0000000000000000     
  -6.3000000000000000E-003     0.0000000000000000     
  -6.0000000000000001E-003     0.0000000000000000     
  -5.6999999999999985E-003     0.0000000000000000     
  -5.3999999999999986E-003     0.0000000000000000     
  -5.1000000000000004E-003     0.0000000000000000     
  -4.7999999999999987E-003     0.0000000000000000     
  -4.5000000000000005E-003     0.0000000000000000     
  -4.1999999999999989E-003     0.0000000000000000     
  -3.8999999999999990E-003     0.0000000000000000     
  -3.5999999999999990E-003     0.0000000000000000     
  -3.2999999999999991E-003     0.0000000000000000     
  -2.9999999999999992E-003     0.0000000000000000     
  -2.6999999999999993E-003     0.0000000000000000     
  -2.3999999999999994E-003     0.0000000000000000     
  -2.0999999999999977E-003     0.0000000000000000     
  -1.7999999999999995E-003     0.0000000000000000     
  -1.4999999999999979E-003     0.0000000000000000     
  -1.1999999999999997E-003     0.0000000000000000     
  -8.9999999999999976E-004     0.0000000000000000     
  -5.9999999999999810E-004     0.0000000000000000     
  -2.9999999999999992E-004     0.0000000000000000     
   0.0000000000000000          0.0000000000000000     
   3.0000000000000165E-004     0.0000000000000000     
   5.9999999999999984E-004     0.0000000000000000     
   9.0000000000000149E-004     0.0000000000000000     
   1.2000000000000031E-003     0.0000000000000000     
   1.5000000000000013E-003     0.0000000000000000     
   1.8000000000000030E-003     0.0000000000000000     
   2.1000000000000012E-003     0.0000000000000000     
   2.3999999999999994E-003     0.0000000000000000     
   2.7000000000000010E-003     0.0000000000000000     
   2.9999999999999992E-003     0.0000000000000000     
   3.3000000000000008E-003     0.0000000000000000     
   3.6000000000000025E-003     0.0000000000000000     
   3.9000000000000007E-003     0.0000000000000000     
   4.2000000000000023E-003     0.0000000000000000     
   4.5000000000000005E-003     0.0000000000000000     
   4.7999999999999987E-003     0.0000000000000000     
   5.1000000000000004E-003     0.0000000000000000     
   5.4000000000000020E-003     0.0000000000000000     
   5.7000000000000037E-003    -4.6308924048558039E-038
   5.9999999999999984E-003    -1.3512515100609955E-037
   6.3000000000000000E-003     7.0171706380502061E-037
   6.6000000000000017E-003     3.3267256233151109E-037
   6.9000000000000034E-003    -2.5825220686542461E-036
   7.2000000000000015E-003     9.9454017074267910E-036
   7.5000000000000032E-003    -1.6659546431332740E-035
   7.8000000000000014E-003     2.8576854815773864E-035
   8.0999999999999996E-003     2.3928312821081398E-034
   8.4000000000000012E-003    -1.0951143024394378E-033
   8.7000000000000029E-003     1.8357469400634999E-034
   9.0000000000000011E-003     4.8957514760666050E-033
   9.2999999999999992E-003    -1.4520735588082715E-034
   9.6000000000000009E-003    -2.3026933235261738E-032
   9.8999999999999991E-003    -1.2009260752405788E-031
   1.0200000000000001E-002     1.0588246326376910E-030
   1.0500000000000002E-002    -1.8428764239112458E-030
   1.0800000000000004E-002    -1.2406799258695726E-029
   1.1099999999999999E-002     9.0226455951717016E-029
   1.1400000000000000E-002    -2.3537845557580899E-028
   1.1700000000000002E-002    -5.6351802360747749E-029
   1.2000000000000004E-002     2.4582085547601810E-027
   1.2300000000000002E-002    -7.7703938726024681E-027
   1.2600000000000000E-002     6.8347168852306252E-027
   1.2900000000000002E-002     9.8501359173221427E-027
   1.3200000000000000E-002     1.5513101762972822E-025
   1.3500000000000002E-002    -1.9370709137368138E-024
   1.3800000000000003E-002     1.1527508116841583E-023
   1.4100000000000001E-002    -5.0120907362171193E-023
   1.4400000000000000E-002     1.8231235175492233E-022
   1.4700000000000001E-002    -5.8641816864244352E-022
   1.4999999999999999E-002     1.6395502423554080E-021
   1.5300000000000001E-002    -3.3318241874138908E-021
   1.5600000000000003E-002    -8.6020862963300483E-022
   1.5899999999999997E-002     6.1181275215072182E-020
   1.6199999999999999E-002    -4.5336981589353135E-019
   1.6500000000000001E-002     2.4505904736996585E-018
   1.6800000000000002E-002    -1.1225941577662920E-017
   1.7100000000000004E-002     4.5277586466682597E-017
   1.7400000000000006E-002    -1.6002211550761247E-016
   1.7700000000000000E-002     4.6931064432106096E-016
   1.8000000000000002E-002    -9.1887474127122866E-016
   1.8300000000000004E-002    -6.6919664071676979E-016
   1.8600000000000005E-002     1.8497765106773259E-014
   1.8900000000000000E-002    -1.1477304947269101E-013
   1.9200000000000002E-002     4.8596274692243621E-013
   1.9500000000000003E-002    -1.5103354453468534E-012
   1.9799999999999998E-002     3.0673802188790811E-012
   2.0100000000000000E-002    -1.1275147855281200E-012
   2.0400000000000001E-002    -1.9241639237414535E-011
   2.0700000000000003E-002     7.8414032783664442E-011
   2.0999999999999998E-002    -1.2805183892601776E-010
   2.1299999999999999E-002    -1.0380905530586482E-010
   2.1600000000000001E-002     9.3592559524962617E-010
   2.1900000000000003E-002    -1.3115524933746407E-009
   2.2200000000000004E-002    -2.2492757887323453E-009
   2.2500000000000006E-002     8.2225179283658467E-009
   2.2800000000000001E-002     2.1262319176751438E-009
   2.3100000000000002E-002    -3.2898876919860717E-008
   2.3400000000000004E-002    -5.3383480385646256E-009
   2.3699999999999999E-002     1.0155281002672742E-007
   2.4000000000000000E-002     4.5546938669710879E-008
   2.4300000000000002E-002    -2.5698735454025361E-007
   2.4599999999999997E-002    -2.4038663059300549E-007
   2.4900000000000005E-002     6.9430251387287293E-007
   2.5200000000000000E-002     2.0942713396466714E-006
   2.5499999999999995E-002     2.9675411907739718E-006
   2.5800000000000003E-002     3.6446601381027723E-006
   2.6099999999999998E-002     5.9189425700645814E-006
   2.6400000000000007E-002     1.0774568264204697E-005
   2.6700000000000002E-002     1.7446613923280548E-005
   2.6999999999999996E-002     2.5792682536548940E-005
   2.7300000000000005E-002     3.8308688169641416E-005
   2.7600000000000000E-002     5.8484104058299877E-005
   2.7900000000000008E-002     8.8443126318771097E-005
   2.8200000000000003E-002     1.3026852707267566E-004
   2.8499999999999998E-002     1.8900298429677664E-004
   2.8800000000000006E-002     2.7215778401356444E-004
   2.9100000000000001E-002     3.8687825958012324E-004
   2.9400000000000003E-002     5.4036509126250895E-004
   2.9700000000000004E-002     7.4320158301830960E-004
   3.0000000000000006E-002     1.0094162503205065E-003
   3.0300000000000001E-002     1.3523197827530822E-003
   3.0600000000000002E-002     1.7826634993537913E-003
   3.0900000000000004E-002     2.3114864977188260E-003
   3.1199999999999999E-002     2.9510416631948477E-003
   3.1500000000000007E-002     3.7096350806908041E-003
   3.1800000000000002E-002     4.5862962935535045E-003
   3.2099999999999997E-002     5.5708228989096997E-003
   3.2400000000000005E-002     6.6451953990590840E-003
   3.2700000000000000E-002     7.7793899902093289E-003
   3.3000000000000002E-002     8.9257150562372933E-003
   3.3300000000000003E-002     1.0019436727223940E-002
   3.3599999999999998E-002     1.0983712428037140E-002
   3.3900000000000000E-002     1.1731395349681095E-002
   3.4200000000000001E-002     1.2164598527499959E-002
   3.4500000000000003E-002     1.2182055208318887E-002
   3.4799999999999998E-002     1.1690722538462095E-002
   3.5099999999999999E-002     1.0617177417307444E-002
   3.5400000000000001E-002     8.9136170787872671E-003
   3.5699999999999996E-002     6.5650067304528770E-003
   3.6000000000000004E-002     3.6064751970361075E-003
   3.6299999999999999E-002     1.2891029889532807E-004
   3.6600000000000008E-002    -3.7216059306524329E-003
   3.6900000000000002E-002    -7.7468942254378947E-003
   3.7199999999999997E-002    -1.1697811022663873E-002
   3.7500000000000006E-002    -1.5279863207092903E-002
   3.7800000000000000E-002    -1.8172047764888344E-002
   3.8100000000000009E-002    -2.0046346140802140E-002
   3.8400000000000004E-002    -2.0581994742804866E-002
   3.8699999999999998E-002    -1.9478488348514345E-002
   3.9000000000000007E-002    -1.6473202473834797E-002
   3.9300000000000002E-002    -1.1354184876515100E-002
   3.9600000000000003E-002    -3.9690907224256000E-003
   3.9900000000000005E-002     5.7726172444028945E-003
   4.0200000000000000E-002     1.7895312324338275E-002
   4.0500000000000001E-002     3.2348937564302127E-002
   4.0800000000000003E-002     4.9007816393822123E-002
   4.1100000000000005E-002     6.7666632417344719E-002
   4.1399999999999999E-002     8.8013186477713834E-002
   4.1700000000000008E-002    0.10961882417466340     
   4.2000000000000003E-002    0.13191981130686425     
   4.2299999999999997E-002    0.15420566121077162     
   4.2600000000000006E-002    0.17560460201807349     
   4.2900000000000001E-002    0.19507826266057116     
   4.3200000000000002E-002    0.21145740731392326     
   4.3500000000000004E-002    0.22348817394553677     
   4.3799999999999999E-002    0.22987854778259198     
   4.4100000000000000E-002    0.22938144498633317     
   4.4400000000000002E-002    0.22089644453239199     
   4.4700000000000004E-002    0.20357339199132962     
   4.4999999999999998E-002    0.17690532251331259     
   4.5300000000000000E-002    0.14079145317762753     
   4.5600000000000002E-002     9.5585914783752557E-002
   4.5899999999999996E-002     4.2102520546565048E-002
   4.6200000000000005E-002    -1.8414410168938689E-002
   4.6500000000000000E-002    -8.4363863121605931E-002
   4.6799999999999994E-002   -0.15390937398143922     
   4.7100000000000003E-002   -0.22510606853888948     
   4.7399999999999998E-002   -0.29601527500043900     
   4.7700000000000006E-002   -0.36485727784432953     
   4.8000000000000001E-002   -0.43009505385895785     
   4.8300000000000010E-002   -0.49048547508762930     
   4.8600000000000004E-002   -0.54510936757034756     
   4.8899999999999999E-002   -0.59333518918892736     
   4.9200000000000008E-002   -0.63471744794021134     
   4.9500000000000002E-002   -0.66889596411176555     
   4.9800000000000011E-002   -0.69548555072673679     
   5.0100000000000006E-002   -0.71394317471421687     
   5.0400000000000000E-002   -0.72345675975451940     
   5.0700000000000009E-002   -0.72286776818409493     
   5.1000000000000004E-002   -0.71067512164922420     
   5.1299999999999998E-002   -0.68510129421143873     
   5.1600000000000007E-002   -0.64415984302241824     
   5.1900000000000002E-002   -0.58582969038482702     
   5.2200000000000010E-002   -0.50827181003769439     
   5.2500000000000005E-002   -0.41004158462026474     
   5.2800000000000000E-002   -0.29039706595660419     
   5.3099999999999994E-002   -0.14955380826321907     
   5.3400000000000003E-002     1.1146060596321283E-002
   5.3699999999999998E-002    0.18913107580652344     
   5.4000000000000006E-002    0.38036334151096796     
   5.4300000000000001E-002    0.57942613022831679     
   5.4599999999999996E-002    0.77974186207091023     
   5.4900000000000004E-002    0.97372674123570135     
   5.5199999999999999E-002     1.1531968016588507     
   5.5499999999999994E-002     1.3097490066428961     
   5.5800000000000002E-002     1.4354002444534260     
   5.6099999999999997E-002     1.5230973784016015     
   5.6400000000000006E-002     1.5671563468704974     
   5.6700000000000000E-002     1.5639335976717206     
   5.6999999999999995E-002     1.5120673570903165     
   5.7300000000000004E-002     1.4126781626122522     
   5.7599999999999998E-002     1.2695787213104097     
   5.7900000000000007E-002     1.0889812010505864     
   5.8200000000000002E-002    0.87915738810381683     
   5.8499999999999996E-002    0.65014167891056651     
   5.8800000000000005E-002    0.41291890925034291     
   5.9100000000000000E-002    0.17869313409456611     
   5.9400000000000008E-002    -4.1801519795204467E-002
   5.9700000000000003E-002   -0.23897818976727248     
   6.0000000000000012E-002   -0.40503957853589334     
   6.0300000000000006E-002   -0.53460005937141375     
   6.0600000000000001E-002   -0.62502834460469003     
   6.0900000000000010E-002   -0.67642791361859977     
   6.1200000000000004E-002   -0.69169326897075578     
   6.1500000000000013E-002   -0.67629249799062663     
   6.1800000000000008E-002   -0.63784073076193337     
   6.2100000000000002E-002   -0.58554494729763462     
   6.2399999999999997E-002   -0.52933499227011005     
   6.2700000000000006E-002   -0.47921596651892528     
   6.3000000000000000E-002   -0.44456903538011616     
   6.3300000000000009E-002   -0.43331258973231890     
   6.3600000000000004E-002   -0.45109929949961902     
   6.3899999999999998E-002   -0.50085743179513109     
   6.4199999999999993E-002   -0.58241404750504699     
   6.4500000000000002E-002   -0.69234161599106159     
   6.4800000000000010E-002   -0.82393402138658089     
   6.5100000000000005E-002   -0.96753429180050077     
   6.5400000000000000E-002    -1.1112548923053325     
   6.5700000000000008E-002    -1.2417123884362766     
   6.5999999999999989E-002    -1.3448593207545230     
   6.6299999999999998E-002    -1.4073385968111438     
   6.6600000000000006E-002    -1.4174756600334533     
   6.6900000000000001E-002    -1.3663761246184052     
   6.7199999999999996E-002    -1.2489930559397067     
   6.7500000000000004E-002    -1.0647057927195895     
   6.7800000000000013E-002   -0.81768818594945536     
   6.8099999999999994E-002   -0.51700715508960693     
   6.8400000000000002E-002   -0.17623178219237889     
   6.8700000000000011E-002    0.18727768569451975     
   6.8999999999999992E-002    0.55361759815096967     
   6.9300000000000000E-002    0.90157342519197670     
   6.9600000000000009E-002     1.2101220784568483     
   6.9900000000000004E-002     1.4600385960344511     
   7.0199999999999999E-002     1.6354305253205723     
   7.0500000000000007E-002     1.7249174549138928     
   7.0800000000000016E-002     1.7224389206293651     
   7.1099999999999997E-002     1.6279217349656463     
   7.1400000000000005E-002     1.4475063931273482     
   7.1700000000000000E-002     1.1930902962738585     
   7.1999999999999995E-002    0.88132497329133486     
   7.2300000000000003E-002    0.53270040972269150     
   7.2600000000000012E-002    0.17028352558613147     
   7.2900000000000006E-002   -0.18205361121318742     
   7.3200000000000001E-002   -0.50123883366072697     
   7.3499999999999996E-002   -0.76642334539764079     
   7.3800000000000004E-002   -0.96042352147534160     
   7.4099999999999999E-002    -1.0707495913398404     
   7.4400000000000008E-002    -1.0904346804234386     
   7.4700000000000003E-002    -1.0184594086918928     
   7.5000000000000011E-002   -0.85960240934825727     
   7.5299999999999992E-002   -0.62419357228711503     
   7.5600000000000001E-002   -0.32757755099338048     
   7.5900000000000009E-002     1.1160342299131543E-002
   7.6200000000000004E-002    0.37050247101678302     
   7.6499999999999999E-002    0.72770542605753974     
   7.6800000000000007E-002     1.0600766717606440     
   7.7099999999999988E-002     1.3467014046506378     
   7.7399999999999997E-002     1.5696010114075349     
   7.7700000000000005E-002     1.7146725459585710     
   7.8000000000000014E-002     1.7725365877207295     
   7.8299999999999995E-002     1.7389626455963807     
   7.8600000000000003E-002     1.6150085537745369     
   7.8900000000000012E-002     1.4067225878232854     
   7.9199999999999993E-002     1.1246203435982061     
   7.9500000000000001E-002    0.78311577256590414     
   7.9800000000000010E-002    0.39942861205508784     
   8.0100000000000018E-002    -7.4403298416036989E-003
   8.0399999999999999E-002   -0.41768030016829805     
   8.0700000000000008E-002   -0.81189023691545970     
   8.1000000000000003E-002    -1.1718125790745759     
   8.1299999999999997E-002    -1.4814071858624729     
   8.1600000000000006E-002    -1.7275236100926108     
   8.1900000000000014E-002    -1.9003353506878327     
   8.2199999999999995E-002    -1.9940038091832974     
   8.2500000000000004E-002    -2.0067478898365465     
   8.2799999999999999E-002    -1.9407158551989951     
   8.3100000000000007E-002    -1.8019656754757989     
   8.3400000000000002E-002    -1.5997759454423601     
   8.3700000000000011E-002    -1.3462889142869585     
   8.4000000000000005E-002    -1.0555224961327774     
   8.4300000000000000E-002   -0.74229025871212473     
   8.4599999999999995E-002   -0.42123665805594435     
   8.4900000000000003E-002   -0.10597022232112696     
   8.5199999999999998E-002    0.19170706538901605     
   8.5500000000000007E-002    0.46262031908189982     
   8.5800000000000001E-002    0.70065298520173513     
   8.6100000000000010E-002    0.90254561553431856     
   8.6399999999999991E-002     1.0676010170919881     
   8.6699999999999999E-002     1.1972620770615947     
   8.7000000000000008E-002     1.2942817179297279     
   8.7300000000000003E-002     1.3617905399533683     
   8.7599999999999997E-002     1.4026959897725177     
   8.7900000000000006E-002     1.4190845531839500     
   8.8200000000000014E-002     1.4115400332705903     
   8.8499999999999995E-002     1.3793683032404687     
   8.8800000000000004E-002     1.3206693491054509     
   8.9100000000000013E-002     1.2330330763120898     
   8.9399999999999993E-002     1.1144056159033866     
   8.9700000000000002E-002    0.96335465479340598     
   9.0000000000000011E-002    0.78026893603292713     
   9.0299999999999991E-002    0.56779599430082328     
   9.0600000000000000E-002    0.33110032011295143     
   9.0900000000000009E-002     7.7981956571902877E-002
   9.1200000000000017E-002   -0.18170766496672242     
   9.1499999999999998E-002   -0.43655613036056806     
   9.1800000000000007E-002   -0.67455686186058372     
   9.2100000000000001E-002   -0.88429574916365183     
   9.2399999999999996E-002    -1.0554934401394611     
   9.2700000000000005E-002    -1.1802772031388074     
   9.3000000000000013E-002    -1.2539849694382497     
   9.3300000000000008E-002    -1.2750491341123578     
   9.3600000000000003E-002    -1.2450885702395311     
   9.3899999999999997E-002    -1.1689512920455698     
   9.4200000000000006E-002    -1.0542816704423039     
   9.4500000000000001E-002   -0.91044131566158271     
   9.4800000000000009E-002   -0.74755842022464591     
   9.5100000000000004E-002   -0.57634286639799903     
   9.5399999999999999E-002   -0.40730758005847356     
   9.5699999999999993E-002   -0.24969711515982063     
   9.6000000000000002E-002   -0.11143611093150341     
   9.6300000000000011E-002     1.0462104434799113E-003
   9.6600000000000005E-002     8.3269440003579387E-002
   9.6900000000000000E-002    0.13263823558534049     
   9.7200000000000009E-002    0.14826272379127348     
   9.7499999999999989E-002    0.13131520676209441     
   9.7799999999999998E-002     8.4978892090911806E-002
   9.8100000000000007E-002     1.4291616316907341E-002
   9.8400000000000015E-002    -7.3918752309012792E-002
   9.8699999999999996E-002   -0.17092180187244210     
   9.9000000000000005E-002   -0.26619064153970839     
   9.9300000000000013E-002   -0.34860391578454886     
   9.9599999999999994E-002   -0.40656516671973741     
   9.9900000000000003E-002   -0.42896826623273121     
  0.10020000000000001        -0.40642036757601741     
  0.10049999999999999        -0.33217867161068959     
  0.10080000000000000        -0.20296659838986209     
  0.10110000000000001         -2.0305564900652939E-002
  0.10140000000000000         0.20941052849279762     
  0.10170000000000000         0.47510044515052385     
  0.10200000000000001         0.76169412347776699     
  0.10230000000000002          1.0506631896375964     
  0.10260000000000000          1.3213401915537162     
  0.10290000000000001          1.5539247837209444     
  0.10320000000000000          1.7307161110896416     
  0.10350000000000001          1.8373250238615242     
  0.10380000000000000          1.8647390661227448     
  0.10410000000000001          1.8102315837777709     
  0.10440000000000001          1.6774672502636072     
  0.10470000000000000          1.4760877860470139     
  0.10500000000000000          1.2203646637430516     
  0.10530000000000000         0.92816738549596423     
  0.10560000000000000         0.61866002346995419     
  0.10590000000000001         0.31029467296430013     
  0.10620000000000000          1.9002301209400496E-002
  0.10650000000000001        -0.24325020701361666     
  0.10679999999999999        -0.46905946599981263     
  0.10710000000000000        -0.65625046830503919     
  0.10740000000000001        -0.80776961691701388     
  0.10770000000000000        -0.92988944936119822     
  0.10800000000000000         -1.0309479723719051     
  0.10830000000000001         -1.1202956884198656     
  0.10859999999999999         -1.2065631027816721     
  0.10890000000000000         -1.2953915660915953     
  0.10920000000000001         -1.3888841186316512     
  0.10950000000000001         -1.4851742450914145     
  0.10979999999999999         -1.5781903634645644     
  0.11009999999999999         -1.6582067794487472     
  0.11040000000000001         -1.7128004511242523     
  0.11070000000000001         -1.7284888750652172     
  0.11100000000000000         -1.6923827500667699     
  0.11130000000000000         -1.5936933132466393     
  0.11160000000000002         -1.4256244821216519     
  0.11190000000000001         -1.1863937986506308     
  0.11220000000000001        -0.88052289395648375     
  0.11250000000000000        -0.51878912456273696     
  0.11280000000000000        -0.11773091253812140     
  0.11309999999999999         0.30027016390906081     
  0.11340000000000001         0.70903685206681999     
  0.11369999999999998          1.0809702601449622     
  0.11400000000000000          1.3884572604027809     
  0.11430000000000000          1.6061771226217232     
  0.11460000000000002          1.7140425656173690     
  0.11489999999999999          1.6996099151588808     
  0.11520000000000001          1.5589701250052741     
  0.11550000000000001          1.2974970831181629     
  0.11580000000000000         0.93075168503131955     
  0.11609999999999999         0.48428949867729543     
  0.11640000000000002         -8.7115123675132189E-003
  0.11670000000000001        -0.51008147689767824     
  0.11700000000000001        -0.97874926087998659     
  0.11730000000000000         -1.3734806317050712     
  0.11760000000000000         -1.6575460649969571     
  0.11789999999999999         -1.8020695190978699     
  0.11820000000000001         -1.7881016942311234     
  0.11850000000000001         -1.6084003472604067     
  0.11880000000000000         -1.2692754552642995     
  0.11910000000000000        -0.79103530642868880     
  0.11940000000000002        -0.20593297858617277     
  0.11970000000000001         0.44431876406700077     
  0.12000000000000001          1.1113162363207785     
  0.12030000000000000          1.7433447235209840     
  0.12060000000000000          2.2901393683200979     
  0.12089999999999999          2.7081228198494642     
  0.12119999999999999          2.9632333495154057     
  0.12150000000000001          3.0335878289077627     
  0.12180000000000001          2.9123144655368449     
  0.12210000000000000          2.6081494671306942     
  0.12239999999999999          2.1446441217514804     
  0.12270000000000002          1.5576574679356181     
  0.12300000000000001         0.89252989994875520     
  0.12330000000000001         0.20012701580756698     
  0.12360000000000000        -0.46775025590839103     
  0.12390000000000000         -1.0630676876592666     
  0.12419999999999999         -1.5453526925629149     
  0.12450000000000001         -1.8851357195655112     
  0.12480000000000001         -2.0662979421679211     
  0.12509999999999999         -2.0871179872450014     
  0.12540000000000001         -1.9596778829598129     
  0.12570000000000003         -1.7082074825383877     
  0.12600000000000000         -1.3667528509223459     
  0.12630000000000002        -0.97565106207174068     
  0.12659999999999999        -0.57751931053764949     
  0.12690000000000001        -0.21324856528316083     
  0.12719999999999998          8.1522269057968888E-002
  0.12750000000000000         0.27937005491351297     
  0.12780000000000002         0.36362449015039466     
  0.12809999999999999         0.32963492059350408     
  0.12840000000000001         0.18457484177099026     
  0.12869999999999998         -5.3128447678173263E-002
  0.12900000000000000        -0.35539532181200961     
  0.12930000000000003        -0.68703490461559014     
  0.12959999999999999         -1.0091286018983716     
  0.12990000000000002         -1.2821970727445375     
  0.13019999999999998         -1.4693462604903686     
  0.13050000000000000         -1.5391767067218467     
  0.13080000000000003         -1.4690093287976680     
  0.13109999999999999         -1.2466267390986756     
  0.13140000000000002        -0.87091776515526398     
  0.13169999999999998        -0.35285294215105267     
  0.13200000000000001         0.28470219378860184     
  0.13229999999999997          1.0084948288070485     
  0.13260000000000000          1.7767809466782438     
  0.13290000000000002          2.5417223447820447     
  0.13319999999999999          3.2522022526661658     
  0.13350000000000001          3.8568448526765167     
  0.13380000000000003          4.3076494433852588     
  0.13410000000000000          4.5631252043295945     
  0.13440000000000002          4.5910250435423734     
  0.13469999999999999          4.3712563660894688     
  0.13500000000000001          3.8977702997339279     
  0.13529999999999998          3.1800694360388824     
  0.13560000000000000          2.2425651191815206     
  0.13590000000000002          1.1241814999810558     
  0.13619999999999999        -0.12312552950133338     
  0.13650000000000001         -1.4374924545060033     
  0.13680000000000003         -2.7514352041832950     
  0.13710000000000000         -3.9962551546122711     
  0.13740000000000002         -5.1058631585887611     
  0.13769999999999999         -6.0211653544777164     
  0.13800000000000001         -6.6947630131090250     
  0.13829999999999998         -7.0935026312900789     
  0.13860000000000000         -7.2001346227896761     
  0.13890000000000002         -7.0137141986340623     
  0.13919999999999999         -6.5488491158279629     
  0.13950000000000001         -5.8335953018446958     
  0.13979999999999998         -4.9064956876687518     
  0.14010000000000000         -3.8132417527869542     
  0.14040000000000002         -2.6022693325766681     
  0.14069999999999999         -1.3219298021903398     
  0.14100000000000001         -1.7915507406549125E-002
  0.14130000000000004          1.2690743170258187     
  0.14160000000000000          2.5047023786940912     
  0.14189999999999997          3.6608266628938253     
  0.14219999999999999          4.7138359523005136     
  0.14250000000000002          5.6447281745028022     
  0.14279999999999998          6.4376402887403401     
  0.14310000000000000          7.0779403539796135     
  0.14339999999999997          7.5513687099728486     
  0.14369999999999999          7.8438513709797633     
  0.14400000000000002          7.9420979603366959     
  0.14429999999999998          7.8344297481008880     
  0.14460000000000001          7.5118325211060437     
  0.14490000000000003          6.9696822269002894     
  0.14520000000000000          6.2099212395097965     
  0.14550000000000002          5.2424703851839070     
  0.14579999999999999          4.0859096809903335     
  0.14610000000000001          2.7675020336745888     
  0.14640000000000003          1.3237134485034119     
  0.14670000000000000        -0.20171612091570168     
  0.14699999999999996         -1.7603304936009714     
  0.14729999999999999         -3.3011666241487063     
  0.14760000000000001         -4.7723910005620951     
  0.14789999999999998         -6.1254415322051443     
  0.14820000000000000         -7.3178730055558958     