  -1.4999999999999999E-002     0.0000000000000000     
  -1.4700000000000000E-002    -9.6439570995698887E-008
  -1.4400000000000000E-002     1.3463187542583910E-007
  -1.4100000000000000E-002     3.1360464163299184E-006
  -1.3800000000000000E-002    -5.6615772336954251E-007
  -1.3500000000000000E-002     1.4223014943581802E-007
  -1.3200000000000000E-002    -1.3077352377877105E-005
  -1.2899999999999998E-002    -2.3642542146262713E-005
  -1.2600000000000000E-002     3.2004041713662446E-005
  -1.2299999999999998E-002     4.8498914111405611E-005
  -1.2000000000000000E-002     2.8468046366469935E-005
  -1.1699999999999999E-002    -3.7854766560485587E-005
  -1.1399999999999999E-002    -7.8948360169306397E-005
  -1.1099999999999999E-002    -6.0788352129748091E-005
  -1.0799999999999999E-002    -5.5872274970170110E-005
  -1.0499999999999999E-002     1.1091673513874412E-004
  -1.0199999999999999E-002     1.9281443383079022E-004
  -9.8999999999999991E-003     1.6324126045219600E-004
  -9.5999999999999992E-003     2.0064576528966427E-004
  -9.2999999999999992E-003     2.2498736507259309E-004
  -8.9999999999999993E-003     3.3646065276116133E-004
  -8.6999999999999994E-003     5.4362323135137558E-004
  -8.3999999999999995E-003     9.8454253748059273E-004
  -8.0999999999999996E-003     1.6091784927994013E-003
  -7.7999999999999988E-003     2.4656809400767088E-003
  -7.4999999999999997E-003     3.8055619224905968E-003
  -7.1999999999999998E-003     5.6217242963612080E-003
  -6.8999999999999981E-003     8.2029448822140694E-003
  -6.5999999999999982E-003     1.2084907852113247E-002
  -6.3000000000000000E-003     1.7642619088292122E-002
  -6.0000000000000001E-003     2.4587469175457954E-002
  -5.6999999999999985E-003     3.3180113881826401E-002
  -5.3999999999999986E-003     4.4542606920003891E-002
  -5.1000000000000004E-003     5.9551388025283813E-002
  -4.7999999999999987E-003     7.8925065696239471E-002
  -4.5000000000000005E-003    0.10286740958690643     
  -4.1999999999999989E-003    0.13120692968368530     
  -3.8999999999999990E-003    0.16323740780353546     
  -3.5999999999999990E-003    0.19884285330772400     
  -3.2999999999999991E-003    0.23761886358261108     
  -2.9999999999999992E-003    0.27664804458618164     
  -2.6999999999999993E-003    0.31168594956398010     
  -2.3999999999999994E-003    0.33680015802383423     
  -2.0999999999999977E-003    0.34544348716735840     
  -1.7999999999999995E-003    0.32862582802772522     
  -1.4999999999999979E-003    0.27473747730255127     
  -1.1999999999999997E-003    0.17084030807018280     
  -8.9999999999999976E-004    -1.6291625797748566E-004
  -5.9999999999999810E-004   -0.25502395629882812     
  -2.9999999999999992E-004   -0.61197763681411743     
   0.0000000000000000         -1.0898551940917969     
   3.0000000000000165E-004    -1.7039479017257690     
   5.9999999999999984E-004    -2.4682519435882568     
   9.0000000000000149E-004    -3.3880760669708252     
   1.2000000000000031E-003    -4.4617509841918945     
   1.5000000000000013E-003    -5.6749863624572754     
   1.8000000000000030E-003    -6.9956240653991699     
   2.1000000000000012E-003    -8.3762817382812500     
   2.3999999999999994E-003    -9.7438850402832031     
   2.7000000000000010E-003    -11.005723953247070     
   2.9999999999999992E-003    -12.045777320861816     
   3.3000000000000008E-003    -12.726681709289551     
   3.6000000000000025E-003    -12.900636672973633     
   3.9000000000000007E-003    -12.407956123352051     
   4.2000000000000023E-003    -11.102162361145020     
   4.5000000000000005E-003    -8.8538036346435547     
   4.7999999999999987E-003    -5.5717711448669434     
   5.1000000000000004E-003    -1.2255835533142090     
   5.4000000000000020E-003     4.1505560874938965     
   5.7000000000000037E-003     10.428573608398438     
   5.9999999999999984E-003     17.391359329223633     
   6.3000000000000000E-003     24.726570129394531     
   6.6000000000000017E-003     32.032432556152344     
   6.9000000000000034E-003     38.846694946289062     
   7.2000000000000015E-003     44.659606933593750     
   7.5000000000000032E-003     48.963859558105469     
   7.8000000000000014E-003     51.289096832275391     
   8.0999999999999996E-003     51.244224548339844     
   8.4000000000000012E-003     48.568138122558594     
   8.7000000000000029E-003     43.152801513671875     
   9.0000000000000011E-003     35.075439453125000     
   9.2999999999999992E-003     24.604158401489258     
   9.6000000000000009E-003     12.191547393798828     
   9.8999999999999991E-003    -1.5490713119506836     
   1.0200000000000001E-002    -15.884371757507324     
   1.0500000000000002E-002    -30.009620666503906     
   1.0800000000000004E-002    -43.109272003173828     
   1.1099999999999999E-002    -54.420024871826172     
   1.1400000000000000E-002    -63.285598754882812     
   1.1700000000000002E-002    -69.205718994140625     
   1.2000000000000004E-002    -71.874305725097656     
   1.2300000000000002E-002    -71.192184448242188     
   1.2600000000000000E-002    -67.274932861328125     
   1.2900000000000002E-002    -60.435146331787109     
   1.3200000000000000E-002    -51.146026611328125     
   1.3500000000000002E-002    -40.014278411865234     
   1.3800000000000003E-002    -27.710769653320312     
   1.4100000000000001E-002    -14.940863609313965     
   1.4400000000000000E-002    -2.3810799121856689     
   1.4700000000000001E-002     9.3616456985473633     
   1.4999999999999999E-002     19.765783309936523     
   1.5300000000000001E-002     28.453903198242188     
   1.5600000000000003E-002     35.162765502929688     
   1.5899999999999997E-002     39.777175903320312     
   1.6199999999999999E-002     42.306377410888672     
   1.6500000000000001E-002     42.861255645751953     
   1.6800000000000002E-002     41.661582946777344     
   1.7100000000000004E-002     38.972347259521484     
   1.7400000000000006E-002     35.113132476806641     
   1.7700000000000000E-002     30.419015884399414     
   1.8000000000000002E-002     25.212778091430664     
   1.8300000000000004E-002     19.813671112060547     
   1.8600000000000005E-002     14.486383438110352     
   1.8900000000000000E-002     9.4628152847290039     
   1.9200000000000002E-002     4.9229030609130859     
   1.9500000000000003E-002    0.98612612485885620     
   1.9799999999999998E-002    -2.2662138938903809     
   2.0100000000000000E-002    -4.8133144378662109     
   2.0400000000000001E-002    -6.6695871353149414     
   2.0700000000000003E-002    -7.8835377693176270     
   2.0999999999999998E-002    -8.5361232757568359     
   2.1299999999999999E-002    -8.7180938720703125     
   2.1600000000000001E-002    -8.5340957641601562     
   2.1900000000000003E-002    -8.0897331237792969     
   2.2200000000000004E-002    -7.4800462722778320     
   2.2500000000000006E-002    -6.7940301895141602     
   2.2800000000000001E-002    -6.1040344238281250     
   2.3100000000000002E-002    -5.4590349197387695     
   2.3400000000000004E-002    -4.8996648788452148     
   2.3699999999999999E-002    -4.4402341842651367     
   2.4000000000000000E-002    -4.0831718444824219     
   2.4300000000000002E-002    -3.8265058994293213     
   2.4599999999999997E-002    -3.6453981399536133     
   2.4900000000000005E-002    -3.5301327705383301     
   2.5200000000000000E-002    -3.4556040763854980     
   2.5499999999999995E-002    -3.4009497165679932     
   2.5800000000000003E-002    -3.3613445758819580     
   2.6099999999999998E-002    -3.3138267993927002     
   2.6400000000000007E-002    -3.2638857364654541     
   2.6700000000000002E-002    -3.2026669979095459     
   2.6999999999999996E-002    -3.1229739189147949     
   2.7300000000000005E-002    -3.0332362651824951     
   2.7600000000000000E-002    -2.9141407012939453     
   2.7900000000000008E-002    -2.7699782848358154     
   2.8200000000000003E-002    -2.5861995220184326     
   2.8499999999999998E-002    -2.3458418846130371     
   2.8800000000000006E-002    -2.0458774566650391     
   2.9100000000000001E-002    -1.6626323461532593     
   2.9400000000000003E-002    -1.1946873664855957     
   2.9700000000000004E-002   -0.63670748472213745     
   3.0000000000000006E-002     1.2533731758594513E-002
   3.0300000000000001E-002    0.73379284143447876     
   3.0600000000000002E-002     1.5137988328933716     
   3.0900000000000004E-002     2.3240058422088623     
   3.1199999999999999E-002     3.1270987987518311     
   3.1500000000000007E-002     3.8872613906860352     
   3.1800000000000002E-002     4.5609488487243652     
   3.2099999999999997E-002     5.1060113906860352     
   3.2400000000000005E-002     5.4922256469726562     
   3.2700000000000000E-002     5.6835026741027832     
   3.3000000000000002E-002     5.6639175415039062     
   3.3300000000000003E-002     5.4266109466552734     
   3.3599999999999998E-002     4.9670419692993164     
   3.3900000000000000E-002     4.3145871162414551     
   3.4200000000000001E-002     3.4882886409759521     
   3.4500000000000003E-002     2.5324039459228516     
   3.4799999999999998E-002     1.5024019479751587     
   3.5099999999999999E-002    0.43968895077705383     
   3.5400000000000001E-002   -0.58341366052627563     
   3.5699999999999996E-002    -1.5227557420730591     
   3.6000000000000004E-002    -2.3252139091491699     
   3.6299999999999999E-002    -2.9441823959350586     
   3.6600000000000008E-002    -3.3640530109405518     
   3.6900000000000002E-002    -3.5564439296722412     
   3.7199999999999997E-002    -3.5324552059173584     
   3.7500000000000006E-002    -3.3075530529022217     
   3.7800000000000000E-002    -2.9065473079681396     
   3.8100000000000009E-002    -2.3810522556304932     
   3.8400000000000004E-002    -1.7703880071640015     
   3.8699999999999998E-002    -1.1328548192977905     
   3.9000000000000007E-002   -0.51925116777420044     
   3.9300000000000002E-002     2.6259297505021095E-002
   3.9600000000000003E-002    0.46190711855888367     
   3.9900000000000005E-002    0.76426905393600464     
   4.0200000000000000E-002    0.92058563232421875     
   4.0500000000000001E-002    0.92865735292434692     
   4.0800000000000003E-002    0.80003011226654053     
   4.1100000000000005E-002    0.55958873033523560     
   4.1399999999999999E-002    0.22938595712184906     
   4.1700000000000008E-002   -0.14999067783355713     
   4.2000000000000003E-002   -0.54784828424453735     
   4.2299999999999997E-002   -0.93460410833358765     
   4.2600000000000006E-002    -1.2719614505767822     
   4.2900000000000001E-002    -1.5498352050781250     
   4.3200000000000002E-002    -1.7385004758834839     
   4.3500000000000004E-002    -1.8336298465728760     
   4.3799999999999999E-002    -1.8309357166290283     
   4.4100000000000000E-002    -1.7186536788940430     
   4.4400000000000002E-002    -1.5158069133758545     
   4.4700000000000004E-002    -1.2125598192214966     
   4.4999999999999998E-002   -0.82524174451828003     
   4.5300000000000000E-002   -0.36472350358963013     
   4.5600000000000002E-002    0.16778238117694855     
   4.5899999999999996E-002    0.74489825963973999     
   4.6200000000000005E-002     1.3639615774154663     
   4.6500000000000000E-002     1.9982073307037354     
   4.6799999999999994E-002     2.6252281665802002     
   4.7100000000000003E-002     3.2263991832733154     
   4.7399999999999998E-002     3.7655742168426514     
   4.7700000000000006E-002     4.2205891609191895     
   4.8000000000000001E-002     4.5590686798095703     
   4.8300000000000010E-002     4.7545762062072754     
   4.8600000000000004E-002     4.7862739562988281     
   4.8899999999999999E-002     4.6392097473144531     
   4.9200000000000008E-002     4.3067898750305176     
   4.9500000000000002E-002     3.7942781448364258     
   4.9800000000000011E-002     3.1160514354705811     
   5.0100000000000006E-002     2.2925050258636475     
   5.0400000000000000E-002     1.3633443117141724     
   5.0700000000000009E-002    0.35894149541854858     
   5.1000000000000004E-002   -0.67232227325439453     
   5.1299999999999998E-002    -1.6900222301483154     
   5.1600000000000007E-002    -2.6603939533233643     
   5.1900000000000002E-002    -3.5374906063079834     
   5.2200000000000010E-002    -4.3070111274719238     
   5.2500000000000005E-002    -4.9361925125122070     
   5.2800000000000000E-002    -5.4127893447875977     
   5.3099999999999994E-002    -5.7324748039245605     
   5.3400000000000003E-002    -5.8774490356445312     
   5.3699999999999998E-002    -5.8584756851196289     
   5.4000000000000006E-002    -5.6629409790039062     
   5.4300000000000001E-002    -5.2954664230346680     
   5.4599999999999996E-002    -4.7618298530578613     
   5.4900000000000004E-002    -4.0607886314392090     
   5.5199999999999999E-002    -3.2149772644042969     
   5.5499999999999994E-002    -2.2374613285064697     
   5.5800000000000002E-002    -1.1637301445007324     
   5.6099999999999997E-002    -3.4623950719833374E-002
   5.6400000000000006E-002     1.0983489751815796     
   5.6700000000000000E-002     2.1727063655853271     
   5.6999999999999995E-002     3.1254317760467529     
   5.7300000000000004E-002     3.8895590305328369     
   5.7599999999999998E-002     4.4114127159118652     
   5.7900000000000007E-002     4.6398878097534180     
   5.8200000000000002E-002     4.5552220344543457     
   5.8499999999999996E-002     4.1491270065307617     
   5.8800000000000005E-002     3.4446768760681152     
   5.9100000000000000E-002     2.4953122138977051     
   5.9400000000000008E-002     1.3603509664535522     
   5.9700000000000003E-002    0.14120472967624664     
   6.0000000000000012E-002    -1.0755517482757568     
   6.0300000000000006E-002    -2.1850790977478027     
   6.0600000000000001E-002    -3.0895411968231201     
   6.0900000000000010E-002    -3.7234201431274414     
   6.1200000000000004E-002    -4.0154290199279785     
   6.1500000000000013E-002    -3.9520998001098633     
   6.1800000000000008E-002    -3.5268120765686035     
   6.2100000000000002E-002    -2.7668075561523438     
   6.2399999999999997E-002    -1.7373836040496826     
   6.2700000000000006E-002   -0.49894726276397705     
   6.3000000000000000E-002    0.84896290302276611     
   6.3300000000000009E-002     2.2225959300994873     
   6.3600000000000004E-002     3.5304138660430908     
   6.3899999999999998E-002     4.6873679161071777     
   6.4199999999999993E-002     5.6345009803771973     
   6.4500000000000002E-002     6.3159518241882324     
   6.4800000000000010E-002     6.7073774337768555     
   6.5100000000000005E-002     6.7944359779357910     
   6.5400000000000000E-002     6.5845546722412109     
   6.5700000000000008E-002     6.0970258712768555     
   6.5999999999999989E-002     5.3638930320739746     
   6.6299999999999998E-002     4.4263396263122559     
   6.6600000000000006E-002     3.3250484466552734     
   6.6900000000000001E-002     2.1153776645660400     
   6.7199999999999996E-002    0.83717900514602661     
   6.7500000000000004E-002   -0.45375004410743713     
   6.7800000000000013E-002    -1.7151345014572144     
   6.8099999999999994E-002    -2.9055171012878418     
   6.8400000000000002E-002    -3.9755420684814453     
   6.8700000000000011E-002    -4.9046611785888672     
   6.8999999999999992E-002    -5.6489071846008301     
   6.9300000000000000E-002    -6.1952338218688965     
   6.9600000000000009E-002    -6.5293288230895996     
   6.9900000000000004E-002    -6.6375675201416016     
   7.0199999999999999E-002    -6.5392093658447266     
   7.0500000000000007E-002    -6.2307910919189453     
   7.0800000000000016E-002    -5.7461214065551758     
   7.1099999999999997E-002    -5.1082940101623535     
   7.1400000000000005E-002    -4.3481950759887695     
   7.1700000000000000E-002    -3.5131042003631592     
   7.1999999999999995E-002    -2.6280736923217773     
   7.2300000000000003E-002    -1.7412612438201904     
   7.2600000000000012E-002   -0.88002842664718628     
   7.2900000000000006E-002    -7.6415538787841797E-002
   7.3200000000000001E-002    0.64201843738555908     
   7.3499999999999996E-002     1.2609115839004517     
   7.3800000000000004E-002     1.7614434957504272     
   7.4099999999999999E-002     2.1430871486663818     
   7.4400000000000008E-002     2.3994112014770508     
   7.4700000000000003E-002     2.5409166812896729     
   7.5000000000000011E-002     2.5733137130737305     
   7.5299999999999992E-002     2.5127220153808594     
   7.5600000000000001E-002     2.3795111179351807     
   7.5900000000000009E-002     2.1880333423614502     
   7.6200000000000004E-002     1.9719835519790649     
   7.6499999999999999E-002     1.7417025566101074     
   7.6800000000000007E-002     1.5278439521789551     
   7.7099999999999988E-002     1.3457562923431396     
   7.7399999999999997E-002     1.2050647735595703     
   7.7700000000000005E-002     1.1281442642211914     
   7.8000000000000014E-002     1.1031595468521118     
   7.8299999999999995E-002     1.1432029008865356     
   7.8600000000000003E-002     1.2330514192581177     
   7.8900000000000012E-002     1.3611447811126709     
   7.9199999999999993E-002     1.5218743085861206     
   7.9500000000000001E-002     1.6848161220550537     
   7.9800000000000010E-002     1.8497867584228516     
   8.0100000000000018E-002     1.9890890121459961     
   8.0399999999999999E-002     2.0936963558197021     
   8.0700000000000008E-002     2.1563222408294678     
   8.1000000000000003E-002     2.1601583957672119     
   8.1299999999999997E-002     2.1124482154846191     
   8.1600000000000006E-002     1.9993007183074951     
   8.1900000000000014E-002     1.8290741443634033     
   8.2199999999999995E-002     1.5991671085357666     
   8.2500000000000004E-002     1.3111879825592041     
   8.2799999999999999E-002    0.97363078594207764     
   8.3100000000000007E-002    0.58247047662734985     
   8.3400000000000002E-002    0.15350779891014099     
   8.3700000000000011E-002   -0.31492620706558228     
   8.4000000000000005E-002   -0.80711156129837036     
   8.4300000000000000E-002    -1.3147164583206177     
   8.4599999999999995E-002    -1.8263779878616333     
   8.4900000000000003E-002    -2.3184812068939209     
   8.5199999999999998E-002    -2.7841627597808838     
   8.5500000000000007E-002    -3.1936726570129395     
   8.5800000000000001E-002    -3.5388555526733398     
   8.6100000000000010E-002    -3.7993834018707275     
   8.6399999999999991E-002    -3.9603819847106934     
   8.6699999999999999E-002    -4.0200843811035156     
   8.7000000000000008E-002    -3.9627566337585449     
   8.7300000000000003E-002    -3.8009133338928223     
   8.7599999999999997E-002    -3.5311625003814697     
   8.7900000000000006E-002    -3.1696126461029053     
   8.8200000000000014E-002    -2.7325930595397949     
   8.8499999999999995E-002    -2.2322587966918945     
   8.8800000000000004E-002    -1.6981582641601562     
   8.9100000000000013E-002    -1.1409493684768677     
   8.9399999999999993E-002   -0.59097427129745483     
   8.9700000000000002E-002    -6.1659805476665497E-002
   9.0000000000000011E-002    0.42765668034553528     
   9.0299999999999991E-002    0.86005967855453491     
   9.0600000000000000E-002     1.2320590019226074     
   9.0900000000000009E-002     1.5269654989242554     
   9.1200000000000017E-002     1.7531884908676147     
   9.1499999999999998E-002     1.9027105569839478     
   9.1800000000000007E-002     1.9846786260604858     
   9.2100000000000001E-002     2.0089743137359619     
   9.2399999999999996E-002     1.9784846305847168     
   9.2700000000000005E-002     1.9189592599868774     
   9.3000000000000013E-002     1.8314465284347534     
   9.3300000000000008E-002     1.7399222850799561     
   9.3600000000000003E-002     1.6534990072250366     
   9.3899999999999997E-002     1.5792292356491089     
   9.4200000000000006E-002     1.5363475084304810     
   9.4500000000000001E-002     1.5160163640975952     
   9.4800000000000009E-002     1.5314813852310181     
   9.5100000000000004E-002     1.5715862512588501     
   9.5399999999999999E-002     1.6309285163879395     
   9.5699999999999993E-002     1.7039970159530640     
   9.6000000000000002E-002     1.7688899040222168     
   9.6300000000000011E-002     1.8235362768173218     
   9.6600000000000005E-002     1.8450441360473633     
   9.6900000000000000E-002     1.8281764984130859     
   9.7200000000000009E-002     1.7602251768112183     
   9.7499999999999989E-002     1.6327676773071289     
   9.7799999999999998E-002     1.4473952054977417     
   9.8100000000000007E-002     1.1970385313034058     
   9.8400000000000015E-002    0.89502418041229248     
   9.8699999999999996E-002    0.53837406635284424     
   9.9000000000000005E-002    0.14379800856113434     
   9.9300000000000013E-002   -0.28124544024467468     
   9.9599999999999994E-002   -0.72639673948287964     
   9.9900000000000003E-002    -1.1704212427139282     
  0.10020000000000001         -1.6127707958221436     
  0.10049999999999999         -2.0262029170989990     
  0.10080000000000000         -2.4097995758056641     
  0.10110000000000001         -2.7466518878936768     
  0.10140000000000000         -3.0214977264404297     
  0.10170000000000000         -3.2360503673553467     
  0.10200000000000001         -3.3655290603637695     
  0.10230000000000002         -3.4189867973327637     
  0.10260000000000000         -3.3813855648040771     
  0.10290000000000001         -3.2532687187194824     
  0.10320000000000000         -3.0426578521728516     
  0.10350000000000001         -2.7423944473266602     
  0.10380000000000000         -2.3754484653472900     
  0.10410000000000001         -1.9414858818054199     
  0.10440000000000001         -1.4628211259841919     
  0.10470000000000000        -0.95618343353271484     
  0.10500000000000000        -0.43544974923133850     
  0.10530000000000000          7.2027370333671570E-002
  0.10560000000000000         0.55652737617492676     
  0.10590000000000001         0.99293327331542969     
  0.10620000000000000          1.3731399774551392     
  0.10650000000000001          1.6814702749252319     
  0.10679999999999999          1.9118596315383911     
  0.10710000000000000          2.0625548362731934     
  0.10740000000000001          2.1278183460235596     
  0.10770000000000000          2.1197309494018555     
  0.10800000000000000          2.0356383323669434     
  0.10830000000000001          1.8949761390686035     
  0.10859999999999999          1.7043151855468750     
  0.10890000000000000          1.4772071838378906     
  0.10920000000000001          1.2370067834854126     
  0.10950000000000001         0.98647356033325195     
  0.10979999999999999         0.75606495141983032     
  0.11009999999999999         0.54879981279373169     
  0.11040000000000001         0.38185110688209534     
  0.11070000000000001         0.26918703317642212     
  0.11100000000000000         0.20669643580913544     
  0.11130000000000000         0.21233829855918884     
  0.11160000000000002         0.26964798569679260     
  0.11190000000000001         0.38255578279495239     
  0.11220000000000001         0.53997981548309326     
  0.11250000000000000         0.72253179550170898     
  0.11280000000000000         0.92555290460586548     
  0.11309999999999999          1.1192229986190796     
  0.11340000000000001          1.2974699735641479     
  0.11369999999999998          1.4375417232513428     
  0.11400000000000000          1.5260876417160034     
  0.11430000000000000          1.5554552078247070     
  0.11460000000000002          1.5118197202682495     
  0.11489999999999999          1.3993020057678223     
  0.11520000000000001          1.2103024721145630     
  0.11550000000000001         0.95572179555892944     
  0.11580000000000000         0.63743078708648682     
  0.11609999999999999         0.26698023080825806     
  0.11640000000000002        -0.14149545133113861     
  0.11670000000000001        -0.58124804496765137     
  0.11700000000000001         -1.0278111696243286     
  0.11730000000000000         -1.4767541885375977     
  0.11760000000000000         -1.9037234783172607     
  0.11789999999999999         -2.2973151206970215     
  0.11820000000000001         -2.6452865600585938     
  0.11850000000000001         -2.9244294166564941     
  0.11880000000000000         -3.1349518299102783     
  0.11910000000000000         -3.2545249462127686     
  0.11940000000000002         -3.2845313549041748     
  0.11970000000000001         -3.2190241813659668     
  0.12000000000000001         -3.0536899566650391     
  0.12030000000000000         -2.8034367561340332     
  0.12060000000000000         -2.4652194976806641     
  0.12089999999999999         -2.0617682933807373     
  0.12119999999999999         -1.6033865213394165     
  0.12150000000000001         -1.1088182926177979     
  0.12180000000000001        -0.60118257999420166     
  0.12210000000000000         -9.4024688005447388E-002
  0.12239999999999999         0.38622334599494934     
  0.12270000000000002         0.82969540357589722     
  0.12300000000000001          1.2166353464126587     
  0.12330000000000001          1.5389376878738403     
  0.12360000000000000          1.7888200283050537     
  0.12390000000000000          1.9588344097137451     
  0.12419999999999999          2.0528733730316162     
  0.12450000000000001          2.0659160614013672     
  0.12480000000000001          2.0117959976196289     
  0.12509999999999999          1.8913449048995972     
  0.12540000000000001          1.7173942327499390     
  0.12570000000000003          1.5041512250900269     
  0.12600000000000000          1.2573481798171997     
  0.12630000000000002          1.0021550655364990     
  0.12659999999999999         0.74214702844619751     
  0.12690000000000001         0.50021743774414062     
  0.12719999999999998         0.28774809837341309     
  0.12750000000000000         0.11152343451976776     
  0.12780000000000002         -9.8935458809137344E-003
  0.12809999999999999         -8.2487404346466064E-002
  0.12840000000000001         -9.3203186988830566E-002
  0.12869999999999998         -4.9413144588470459E-002
  0.12900000000000000          4.4658433645963669E-002
  0.12930000000000003         0.18522115051746368     
  0.12959999999999999         0.35306403040885925     
  0.12990000000000002         0.54544466733932495     
  0.13019999999999998         0.74128967523574829     
  0.13050000000000000         0.93235665559768677     
  0.13080000000000003          1.1046838760375977     
  0.13109999999999999          1.2460798025131226     
  0.13140000000000002          1.3517255783081055     
  0.13169999999999998          1.4081753492355347     
  0.13200000000000001          1.4176980257034302     
  0.13229999999999997          1.3711411952972412     
  0.13260000000000000          1.2739572525024414     
  0.13290000000000002          1.1246142387390137     
  0.13319999999999999         0.92434120178222656     
  0.13350000000000001         0.68465238809585571     
  0.13380000000000003         0.40275886654853821     
  0.13410000000000000          9.7553543746471405E-002
  0.13440000000000002        -0.22866272926330566     
  0.13469999999999999        -0.56162291765213013     
  0.13500000000000001        -0.88626122474670410     
  0.13529999999999998         -1.1985026597976685     
  0.13560000000000000         -1.4754672050476074     
  0.13590000000000002         -1.7170407772064209     
  0.13619999999999999         -1.9073758125305176     
  0.13650000000000001         -2.0413446426391602     
  0.13680000000000003         -2.1208438873291016     
  0.13710000000000000         -2.1377849578857422     
  0.13740000000000002         -2.1049108505249023     
  0.13769999999999999         -2.0203995704650879     
  0.13800000000000001         -1.8974366188049316     
  0.13829999999999998         -1.7464264631271362     
  0.13860000000000000         -1.5749199390411377     
  0.13890000000000002         -1.3992002010345459     
  0.13919999999999999         -1.2240368127822876     
  0.13950000000000001         -1.0635741949081421     
  0.13979999999999998        -0.92075872421264648     
  0.14010000000000000        -0.80295640230178833     
  0.14040000000000002        -0.71259546279907227     
  0.14069999999999999        -0.64851361513137817     
  0.14100000000000001        -0.61353111267089844     
  0.14130000000000004        -0.59795582294464111     
  0.14160000000000000        -0.60274547338485718     
  0.14189999999999997        -0.61529290676116943     
  0.14219999999999999        -0.63113063573837280     
  0.14250000000000002        -0.64230161905288696     
  0.14279999999999998        -0.63377231359481812     
  0.14310000000000000        -0.60511106252670288     
  0.14339999999999997        -0.53886401653289795     
  0.14369999999999999        -0.43491718173027039     
  0.14400000000000002        -0.28549250960350037     
  0.14429999999999998         -8.5622549057006836E-002
  0.14460000000000001         0.15672153234481812     
  0.14490000000000003         0.44821009039878845     
  0.14520000000000000         0.77400481700897217     
  0.14550000000000002          1.1306111812591553     
  0.14579999999999999          1.5055944919586182     
  0.14610000000000001          1.8832706212997437     
  0.14640000000000003          2.2568058967590332     
  0.14670000000000000          2.6057896614074707     
  0.14699999999999996          2.9245891571044922     
  0.14729999999999999          3.1975152492523193     
  0.14760000000000001          3.4170873165130615     
  0.14789999999999998          3.5771863460540771     
  0.14820000000000000          3.6689574718475342     