  -1.4999999999999999E-002     0.0000000000000000     
  -1.4700000000000000E-002    -1.3135291857661840E-014
  -1.4400000000000000E-002    -6.3747886010617038E-013
  -1.4100000000000000E-002     3.6157116699635518E-011
  -1.3800000000000000E-002     3.3975901254727996E-011
  -1.3500000000000000E-002    -7.1997934422640984E-010
  -1.3200000000000000E-002    -7.1196333814543365E-010
  -1.2899999999999998E-002     6.1510927464043176E-010
  -1.2600000000000000E-002     1.2750039708967385E-008
  -1.2299999999999998E-002     1.5545820001868933E-008
  -1.2000000000000000E-002    -5.2293464544764654E-008
  -1.1699999999999999E-002    -1.0633082588168284E-007
  -1.1399999999999999E-002     2.0511343430256015E-008
  -1.1099999999999999E-002     3.8907049919958684E-007
  -1.0799999999999999E-002     2.3068281923145578E-007
  -1.0499999999999999E-002    -5.9949783620783661E-007
  -1.0199999999999999E-002    -4.4357140579362223E-007
  -9.8999999999999991E-003    -7.0670193621869351E-008
  -9.5999999999999992E-003    -2.4698866466445445E-007
  -9.2999999999999992E-003     8.9376171683878238E-007
  -8.9999999999999993E-003     1.7830791568841145E-006
  -8.6999999999999994E-003     8.8366967311589539E-007
  -8.3999999999999995E-003    -7.7832574581237525E-007
  -8.0999999999999996E-003    -3.3600486832198886E-006
  -7.7999999999999988E-003    -5.0260255101745314E-006
  -7.4999999999999997E-003    -1.6439380676829573E-006
  -7.1999999999999998E-003     5.9478968093172672E-006
  -6.8999999999999981E-003     9.2446638431180747E-006
  -6.5999999999999982E-003     8.5957454008290276E-006
  -6.3000000000000000E-003     1.4053181235929566E-007
  -6.0000000000000001E-003    -2.3582819646468731E-005
  -5.6999999999999985E-003    -2.6644906376435261E-005
  -5.3999999999999986E-003     3.4796476546595530E-005
  -5.1000000000000004E-003     1.9285619119917600E-004
  -4.7999999999999987E-003     4.5287172957370937E-004
  -4.5000000000000005E-003     7.5448695912156208E-004
  -4.1999999999999989E-003     1.0638069304102771E-003
  -3.8999999999999990E-003     1.4521862420957855E-003
  -3.5999999999999990E-003     2.1072112447140350E-003
  -3.2999999999999991E-003     3.2304195953358553E-003
  -2.9999999999999992E-003     4.9797923327410121E-003
  -2.6999999999999993E-003     7.5522693028533816E-003
  -2.3999999999999994E-003     1.1205874783902239E-002
  -2.0999999999999977E-003     1.6342632927273226E-002
  -1.7999999999999995E-003     2.3522996756866754E-002
  -1.4999999999999979E-003     3.3398111924653973E-002
  -1.1999999999999997E-003     4.6634763808606428E-002
  -8.9999999999999976E-004     6.3950495534828233E-002
  -5.9999999999999810E-004     8.6176259125015475E-002
  -2.9999999999999992E-004    0.11408641758231441     
   0.0000000000000000         0.14836578486150076     
   3.0000000000000165E-004    0.18939810548273694     
   5.9999999999999984E-004    0.23691541987656928     
   9.0000000000000149E-004    0.28978932615637465     
   1.2000000000000031E-003    0.34581680799945946     
   1.5000000000000013E-003    0.40149952735055638     
   1.8000000000000030E-003    0.45152245962681725     
   2.1000000000000012E-003    0.48865575669335293     
   2.3999999999999994E-003    0.50392711029507709     
   2.7000000000000010E-003    0.48649261637303631     
   2.9999999999999992E-003    0.42398299425078356     
   3.3000000000000008E-003    0.30320485169055011     
   3.6000000000000025E-003    0.11149470686484847     
   3.9000000000000007E-003   -0.16211251824375594     
   4.2000000000000023E-003   -0.52542274955025370     
   4.5000000000000005E-003   -0.98068419575357435     
   4.7999999999999987E-003    -1.5232048045273177     
   5.1000000000000004E-003    -2.1396934598240307     
   5.4000000000000020E-003    -2.8068905864480058     
   5.7000000000000037E-003    -3.4912580079962083     
   5.9999999999999984E-003    -4.1494385330746724     
   6.3000000000000000E-003    -4.7306625809602849     
   6.6000000000000017E-003    -5.1793737829836459     
   6.9000000000000034E-003    -5.4393079621743254     
   7.2000000000000015E-003    -5.4594906811276758     
   7.5000000000000032E-003    -5.1995457916648320     
   7.8000000000000014E-003    -4.6359611209817615     
   8.0999999999999996E-003    -3.7674588553011858     
   8.4000000000000012E-003    -2.6181726647555337     
   8.7000000000000029E-003    -1.2404744742140217     
   9.0000000000000011E-003    0.28676950714566729     
   9.2999999999999992E-003     1.8616839868176527     
   9.6000000000000009E-003     3.3662685454398087     
   9.8999999999999991E-003     4.6765238361493555     
   1.0200000000000001E-002     5.6735868951940631     
   1.0500000000000002E-002     6.2578296836792333     
   1.0800000000000004E-002     6.3610913618145162     
   1.1099999999999999E-002     5.9585919618797050     
   1.1400000000000000E-002     5.0783602396980143     
   1.1700000000000002E-002     3.8056118583292573     
   1.2000000000000004E-002     2.2819924669192915     
   1.2300000000000002E-002    0.69885307939741370     
   1.2600000000000000E-002   -0.71516701277475647     
   1.2900000000000002E-002    -1.7135675457084716     
   1.3200000000000000E-002    -2.0548001789585939     
   1.3500000000000002E-002    -1.5290600943522170     
   1.3800000000000003E-002     1.3746685312190365E-002
   1.4100000000000001E-002     2.6398203156320790     
   1.4400000000000000E-002     6.3091024961093325     
   1.4700000000000001E-002     10.864200124902567     
   1.4999999999999999E-002     16.027177906355519     
   1.5300000000000001E-002     21.408592141443506     
   1.5600000000000003E-002     26.531004023534635     
   1.5899999999999997E-002     30.861011362187579     
   1.6199999999999999E-002     33.854272083876168     
   1.6500000000000001E-002     35.006938419979150     
   1.6800000000000002E-002     33.905475635696632     
   1.7100000000000004E-002     30.277505115807003     
   1.7400000000000006E-002     24.033119008364451     
   1.7700000000000000E-002     15.287814059800894     
   1.8000000000000002E-002     4.3760014801507623     
   1.8300000000000004E-002    -8.1636777921783050     
   1.8600000000000005E-002    -21.618179018508727     
   1.8900000000000000E-002    -35.146718878498746     
   1.9200000000000002E-002    -47.851164491958912     
   1.9500000000000003E-002    -58.839569797145373     
   1.9799999999999998E-002    -67.307719954852701     
   2.0100000000000000E-002    -72.603364823676259     
   2.0400000000000001E-002    -74.281451522757152     
   2.0700000000000003E-002    -72.149028661851958     
   2.0999999999999998E-002    -66.273780087150953     
   2.1299999999999999E-002    -56.985938623605307     
   2.1600000000000001E-002    -44.846573969281962     
   2.1900000000000003E-002    -30.600843975043290     
   2.2200000000000004E-002    -15.120992035812819     
   2.2500000000000006E-002    0.66831793206358725     
   2.2800000000000001E-002     15.854417751463757     
   2.3100000000000002E-002     29.607503906571537     
   2.3400000000000004E-002     41.234909074224788     
   2.3699999999999999E-002     50.219758157754086     
   2.4000000000000000E-002     56.251444188656137     
   2.4300000000000002E-002     59.225887193188470     
   2.4599999999999997E-002     59.239843805228134     
   2.4900000000000005E-002     56.565635258503107     
   2.5200000000000000E-002     51.613168706812985     
   2.5499999999999995E-002     44.891413303071431     
   2.5800000000000003E-002     36.957356893960423     
   2.6099999999999998E-002     28.376696406970723     
   2.6400000000000007E-002     19.679659170073307     
   2.6700000000000002E-002     11.332536074891038     
   2.6999999999999996E-002     3.7145865500834674     
   2.7300000000000005E-002    -2.8987375889994382     
   2.7600000000000000E-002    -8.3313058693582889     
   2.7900000000000008E-002    -12.507726170530418     
   2.8200000000000003E-002    -15.439051133552425     
   2.8499999999999998E-002    -17.201261936529590     
   2.8800000000000006E-002    -17.924794391045566     
   2.9100000000000001E-002    -17.766433848211896     
   2.9400000000000003E-002    -16.898202994387333     
   2.9700000000000004E-002    -15.493365632151665     
   3.0000000000000006E-002    -13.709399582685592     
   3.0300000000000001E-002    -11.693823047827493     
   3.0600000000000002E-002    -9.5679623968942167     
   3.0900000000000004E-002    -7.4363656129868900     
   3.1199999999999999E-002    -5.3879517401827286     
   3.1500000000000007E-002    -3.4897149021298759     
   3.1800000000000002E-002    -1.8040908432023954     
   3.2099999999999997E-002   -0.37465108240717626     
   3.2400000000000005E-002    0.76359388706915610     
   3.2700000000000000E-002     1.5842303552684740     
   3.3000000000000002E-002     2.0819498058736343     
   3.3300000000000003E-002     2.2550591461937444     
   3.3599999999999998E-002     2.1242418367001648     
   3.3900000000000000E-002     1.7233191551418940     
   3.4200000000000001E-002     1.0939823724796156     
   3.4500000000000003E-002    0.29900752085069549     
   3.4799999999999998E-002   -0.60305327102579653     
   3.5099999999999999E-002    -1.5435595613961439     
   3.5400000000000001E-002    -2.4551005869883795     
   3.5699999999999996E-002    -3.2836653253551162     
   3.6000000000000004E-002    -3.9715097835958773     
   3.6299999999999999E-002    -4.4847142002520002     
   3.6600000000000008E-002    -4.7947901917273441     
   3.6900000000000002E-002    -4.8851347972508847     
   3.7199999999999997E-002    -4.7608173328439420     
   3.7500000000000006E-002    -4.4252878255919654     
   3.7800000000000000E-002    -3.9043880694522812     
   3.8100000000000009E-002    -3.2264910332699088     
   3.8400000000000004E-002    -2.4250589916816097     
   3.8699999999999998E-002    -1.5482263761994446     
   3.9000000000000007E-002   -0.63554140607782372     
   3.9300000000000002E-002    0.26197152041489602     
   3.9600000000000003E-002     1.0984856151212554     
   3.9900000000000005E-002     1.8351742231548442     
   4.0200000000000000E-002     2.4310072963088061     
   4.0500000000000001E-002     2.8644737019056805     
   4.0800000000000003E-002     3.1181874830708267     
   4.1100000000000005E-002     3.1883905560122656     
   4.1399999999999999E-002     3.0894381926071617     
   4.1700000000000008E-002     2.8392385280984200     
   4.2000000000000003E-002     2.4739509205723209     
   4.2299999999999997E-002     2.0316355196154987     
   4.2600000000000006E-002     1.5523428433424939     
   4.2900000000000001E-002     1.0813543710484375     
   4.3200000000000002E-002    0.65236127869101068     
   4.3500000000000004E-002    0.29731744404596760     
   4.3799999999999999E-002     3.8930024652476636E-002
   4.4100000000000000E-002   -0.11315680337255785     
   4.4400000000000002E-002   -0.15126341452849434     
   4.4700000000000004E-002    -7.9677836257664225E-002
   4.4999999999999998E-002     9.4489051328865203E-002
   4.5300000000000000E-002    0.36276857308266308     
   4.5600000000000002E-002    0.70942448900024502     
   4.5899999999999996E-002     1.1254601950444396     
   4.6200000000000005E-002     1.5954928217777251     
   4.6500000000000000E-002     2.1030933960848017     
   4.6799999999999994E-002     2.6343110899966860     
   4.7100000000000003E-002     3.1642244649588207     
   4.7399999999999998E-002     3.6711136759697496     
   4.7700000000000006E-002     4.1256506375495121     
   4.8000000000000001E-002     4.4958849297030667     
   4.8300000000000010E-002     4.7528434594357520     
   4.8600000000000004E-002     4.8630833982067259     
   4.8899999999999999E-002     4.8043012305410286     
   4.9200000000000008E-002     4.5589770959907128     
   4.9500000000000002E-002     4.1182864577183693     
   4.9800000000000011E-002     3.4894543678740888     
   5.0100000000000006E-002     2.6857602148218120     
   5.0400000000000000E-002     1.7354395102694227     
   5.0700000000000009E-002    0.67585732020666001     
   5.1000000000000004E-002   -0.45248091720752215     
   5.1299999999999998E-002    -1.5999828626786154     
   5.1600000000000007E-002    -2.7215468826387479     
   5.1900000000000002E-002    -3.7709499340566879     
   5.2200000000000010E-002    -4.7054359532981493     
   5.2500000000000005E-002    -5.4916525901006992     
   5.2800000000000000E-002    -6.0976093270600416     
   5.3099999999999994E-002    -6.5027810594600339     
   5.3400000000000003E-002    -6.6940921569896830     
   5.3699999999999998E-002    -6.6635150225924065     
   5.4000000000000006E-002    -6.4170249962350283     
   5.4300000000000001E-002    -5.9657737185526400     
   5.4599999999999996E-002    -5.3309034608686545     
   5.4900000000000004E-002    -4.5460254862960880     
   5.5199999999999999E-002    -3.6477257053881971     
   5.5499999999999994E-002    -2.6861633343859808     
   5.5800000000000002E-002    -1.7116100648198014     
   5.6099999999999997E-002   -0.77596316476240901     
   5.6400000000000006E-002     6.6240930704760892E-002
   5.6700000000000000E-002    0.77581816493469447     
   5.6999999999999995E-002     1.3150266966601656     
   5.7300000000000004E-002     1.6644935492084869     
   5.7599999999999998E-002     1.8211817106416035     
   5.7900000000000007E-002     1.7920348673510702     
   5.8200000000000002E-002     1.6074281085249069     
   5.8499999999999996E-002     1.3019113013861485     
   5.8800000000000005E-002    0.92262059574794719     
   5.9100000000000000E-002    0.52057859307440957     
   5.9400000000000008E-002    0.13951024757627817     
   5.9700000000000003E-002   -0.17502746811192615     
   6.0000000000000012E-002   -0.39444134948118093     
   6.0300000000000006E-002   -0.49978613269922967     
   6.0600000000000001E-002   -0.48281700317785869     
   6.0900000000000010E-002   -0.35345409277307382     
   6.1200000000000004E-002   -0.12442567968527452     
   6.1500000000000013E-002    0.17993728026114475     
   6.1800000000000008E-002    0.53365887332980677     
   6.2100000000000002E-002    0.91502257370887463     
   6.2399999999999997E-002     1.3011521615158514     
   6.2700000000000006E-002     1.6798324986075741     
   6.3000000000000000E-002     2.0445703051996773     
   6.3300000000000009E-002     2.3933020088113892     
   6.3600000000000004E-002     2.7320631842686112     
   6.3899999999999998E-002     3.0656433568427275     
   6.4199999999999993E-002     3.3978191611897870     
   6.4500000000000002E-002     3.7294977460620942     
   6.4800000000000010E-002     4.0501719792430038     
   6.5100000000000005E-002     4.3446140326913110     
   6.5400000000000000E-002     4.5862286166288584     
   6.5700000000000008E-002     4.7385418565500288     
   6.5999999999999989E-002     4.7654019195585136     
   6.6299999999999998E-002     4.6240504791741444     
   6.6600000000000006E-002     4.2792176358429259     
   6.6900000000000001E-002     3.7058295540953381     
   6.7199999999999996E-002     2.8889177848254946     
   6.7500000000000004E-002     1.8377448549811746     
   6.7800000000000013E-002    0.57794312862415609     
   6.8099999999999994E-002   -0.84198164061528580     
   6.8400000000000002E-002    -2.3511559298047757     
   6.8700000000000011E-002    -3.8689646323245626     
   6.8999999999999992E-002    -5.2991577399248513     
   6.9300000000000000E-002    -6.5468837145364915     
   6.9600000000000009E-002    -7.5248460415774332     
   6.9900000000000004E-002    -8.1558126934691160     
   7.0199999999999999E-002    -8.3906579251791982     
   7.0500000000000007E-002    -8.2046025164721641     
   7.0800000000000016E-002    -7.6035468386870377     
   7.1099999999999997E-002    -6.6285710275725194     
   7.1400000000000005E-002    -5.3445036862165978     
   7.1700000000000000E-002    -3.8418156752234580     
   7.1999999999999995E-002    -2.2268447734173336     
   7.2300000000000003E-002   -0.60689529006837617     
   7.2600000000000012E-002    0.90809720742056754     
   7.2900000000000006E-002     2.2262716789933137     
   7.3200000000000001E-002     3.2755997220078257     
   7.3499999999999996E-002     4.0038593284370734     
   7.3800000000000004E-002     4.3963976616669225     
   7.4099999999999999E-002     4.4568666169987523     
   7.4400000000000008E-002     4.2170564749487198     
   7.4700000000000003E-002     3.7317998936762820     
   7.5000000000000011E-002     3.0589191283821435     
   7.5299999999999992E-002     2.2753409219625809     
   7.5600000000000001E-002     1.4478826720272124     
   7.5900000000000009E-002    0.64092268954154186     
   7.6200000000000004E-002    -8.4741102248834466E-002
   7.6499999999999999E-002   -0.69396531456182231     
   7.6800000000000007E-002    -1.1502262205763429     
   7.7099999999999988E-002    -1.4402884663986342     
   7.7399999999999997E-002    -1.5628894851403885     
   7.7700000000000005E-002    -1.5181167686141919     
   7.8000000000000014E-002    -1.3287671691947178     
   7.8299999999999995E-002    -1.0119218967845320     
   7.8600000000000003E-002   -0.59511960349401249     
   7.8900000000000012E-002   -0.11247814666775913     
   7.9199999999999993E-002    0.41114431329502210     
   7.9500000000000001E-002    0.93880578722367147     
   7.9800000000000010E-002     1.4426450908778534     
   8.0100000000000018E-002     1.8980437844153926     
   8.0399999999999999E-002     2.2759761808853298     
   8.0700000000000008E-002     2.5647773817789989     
   8.1000000000000003E-002     2.7491250490500398     
   8.1299999999999997E-002     2.8216718341509619     
   8.1600000000000006E-002     2.7884322865754712     
   8.1900000000000014E-002     2.6483440322544141     
   8.2199999999999995E-002     2.4160704612439758     
   8.2500000000000004E-002     2.1046714850340464     
   8.2799999999999999E-002     1.7239073716292168     
   8.3100000000000007E-002     1.2962439721058132     
   8.3400000000000002E-002    0.82962168261004265     
   8.3700000000000011E-002    0.33935247586196304     
   8.4000000000000005E-002   -0.15926177019429488     
   8.4300000000000000E-002   -0.66264634235505859     
   8.4599999999999995E-002    -1.1509278451077734     
   8.4900000000000003E-002    -1.6188776863946401     
   8.5199999999999998E-002    -2.0539978443051083     
   8.5500000000000007E-002    -2.4371689589168071     
   8.5800000000000001E-002    -2.7634867615563650     
   8.6100000000000010E-002    -3.0108363868973242     
   8.6399999999999991E-002    -3.1715171151835335     
   8.6699999999999999E-002    -3.2371322083316727     
   8.7000000000000008E-002    -3.1961410745291374     
   8.7300000000000003E-002    -3.0561393352641346     
   8.7599999999999997E-002    -2.8163487233595959     
   8.7900000000000006E-002    -2.4896550868531904     
   8.8200000000000014E-002    -2.0946538319213488     
   8.8499999999999995E-002    -1.6453166791578866     
   8.8800000000000004E-002    -1.1689167564612930     
   8.9100000000000013E-002   -0.68514927200985198     
   8.9399999999999993E-002   -0.21390173996671802     
   8.9700000000000002E-002    0.22190339911158663     
   9.0000000000000011E-002    0.61189835067226284     
   9.0299999999999991E-002    0.94200294989468958     
   9.0600000000000000E-002     1.2046088402938793     
   9.0900000000000009E-002     1.4001422671859700     
   9.1200000000000017E-002     1.5247400360162686     
   9.1499999999999998E-002     1.5844738860384808     
   9.1800000000000007E-002     1.5864175461770529     
   9.2100000000000001E-002     1.5349814496637890     
   9.2399999999999996E-002     1.4451225552508902     
   9.2700000000000005E-002     1.3247042108407001     
   9.3000000000000013E-002     1.1863395664690302     
   9.3300000000000008E-002     1.0458979795576475     
   9.3600000000000003E-002    0.90979241567073288     
   9.3899999999999997E-002    0.79479318909822538     
   9.4200000000000006E-002    0.70695528283170361     
   9.4500000000000001E-002    0.65165558402224022     
   9.4800000000000009E-002    0.63623031086014770     
   9.5100000000000004E-002    0.65378716044389762     
   9.5399999999999999E-002    0.70411941612854712     
   9.5699999999999993E-002    0.77784443794613267     
   9.6000000000000002E-002    0.86261220339761380     
   9.6300000000000011E-002    0.95021505558924702     
   9.6600000000000005E-002     1.0237315163359781     
   9.6900000000000000E-002     1.0735388520915201     
   9.7200000000000009E-002     1.0895397678470005     
   9.7499999999999989E-002     1.0620208837663938     
   9.7799999999999998E-002    0.98834587294204823     
   9.8100000000000007E-002    0.86488058100450615     
   9.8400000000000015E-002    0.69201603282704482     
   9.8699999999999996E-002    0.47386601037411147     
   9.9000000000000005E-002    0.21379120892156056     
   9.9300000000000013E-002    -8.2267219004041769E-002
   9.9599999999999994E-002   -0.40487872620914800     
   9.9900000000000003E-002   -0.74796061695040095     
  0.10020000000000001         -1.1000808593199665     
  0.10049999999999999         -1.4502697901291484     
  0.10080000000000000         -1.7894624035977884     
  0.10110000000000001         -2.1000126936975647     
  0.10140000000000000         -2.3728724511444881     
  0.10170000000000000         -2.5924081023434127     
  0.10200000000000001         -2.7445447265564269     
  0.10230000000000002         -2.8233546073008284     
  0.10260000000000000         -2.8144005339876657     
  0.10290000000000001         -2.7181255818893391     
  0.10320000000000000         -2.5324346214514151     
  0.10350000000000001         -2.2587400707618883     
  0.10380000000000000         -1.9108080247197776     
  0.10410000000000001         -1.4949231277139603     
  0.10440000000000001         -1.0304989616394771     
  0.10470000000000000        -0.53477555203111748     
  0.10500000000000000         -2.3759058854817328E-002
  0.10530000000000000         0.47869036633629669     
  0.10560000000000000         0.95741926209169748     
  0.10590000000000001          1.3943000420418485     
  0.10620000000000000          1.7720693972443797     
  0.10650000000000001          2.0816863118379700     
  0.10679999999999999          2.3104317008016579     
  0.10710000000000000          2.4523974126657464     
  0.10740000000000001          2.5076122853315752     
  0.10770000000000000          2.4725744179765599     
  0.10800000000000000          2.3564144345587721     
  0.10830000000000001          2.1672476059569163     
  0.10859999999999999          1.9146406369895317     
  0.10890000000000000          1.6204422338497864     
  0.10920000000000001          1.2960900675665528     
  0.10950000000000001         0.96478796620324658     
  0.10979999999999999         0.64649594221570794     
  0.11009999999999999         0.35288726585314123     
  0.11040000000000001         0.10760640170453839     
  0.11070000000000001         -8.5823144637229287E-002
  0.11100000000000000        -0.21749028047568508     
  0.11130000000000000        -0.28259510703121293     
  0.11160000000000002        -0.29175475368018056     
  0.11190000000000001        -0.24195856838187879     
  0.11220000000000001        -0.15077575248791586     
  0.11250000000000000         -2.8075496220500901E-002
  0.11280000000000000         0.11635570437166165     
  0.11309999999999999         0.26108992651292873     
  0.11340000000000001         0.40150070576580354     
  0.11369999999999998         0.51989577303428014     
  0.11400000000000000         0.60679983759531808     
  0.11430000000000000         0.65702227390070789     
  0.11460000000000002         0.65719648847069578     
  0.11489999999999999         0.60768193827981776     
  0.11520000000000001         0.50256277601106270     
  0.11550000000000001         0.34012648551248148     
  0.11580000000000000         0.12518194539617183     
  0.11609999999999999        -0.14119848676668489     
  0.11640000000000002        -0.44996414708563215     
  0.11670000000000001        -0.78984868838074007     
  0.11700000000000001         -1.1503956806374305     
  0.11730000000000000         -1.5133229727996422     
  0.11760000000000000         -1.8625352908902855     
  0.11789999999999999         -2.1818438738260824     
  0.11820000000000001         -2.4507597071048366     
  0.11850000000000001         -2.6585269876172788     
  0.11880000000000000         -2.7897216481346447     
  0.11910000000000000         -2.8350353374464845     
  0.11940000000000002         -2.7931571442477150     
  0.11970000000000001         -2.6578781736113228     
  0.12000000000000001         -2.4367916470575892     
  0.12030000000000000         -2.1341190052942522     
  0.12060000000000000         -1.7585822333706744     
  0.12089999999999999         -1.3261503404770636     
  0.12119999999999999        -0.84608790243473564     
  0.12150000000000001        -0.33844708999949713     
  0.12180000000000001         0.18196049649826662     
  0.12210000000000000         0.69789566739189368     
  0.12239999999999999          1.1886557250396379     
  0.12270000000000002          1.6401671755984921     
  0.12300000000000001          2.0323606747687109     
  0.12330000000000001          2.3526270404432807     
  0.12360000000000000          2.5883377667314136     
  0.12390000000000000          2.7307511399165776     
  0.12419999999999999          2.7771075217082739     
  0.12450000000000001          2.7272338772814777     
  0.12480000000000001          2.5890981246944591     
  0.12509999999999999          2.3716211224715380     
  0.12540000000000001          2.0920410653931043     
  0.12570000000000003          1.7658863890738061     
  0.12600000000000000          1.4133413166572169     
  0.12630000000000002          1.0543661057414795     
  0.12659999999999999         0.70380417213224788     
  0.12690000000000001         0.38142046376333383     
  0.12719999999999998          9.5010239548413367E-002
  0.12750000000000000        -0.14374603740140124     
  0.12780000000000002        -0.32959059621028608     
  0.12809999999999999        -0.46361879020100361     
  0.12840000000000001        -0.54159969917075657     
  0.12869999999999998        -0.57159906451111553     
  0.12900000000000000        -0.55470552693996567     
  0.12930000000000003        -0.49716220892667806     
  0.12959999999999999        -0.40891241397380540     
  0.12990000000000002        -0.29299228359183793     
  0.13019999999999998        -0.16292418031015732     
  0.13050000000000000         -2.5140193236526387E-002
  0.13080000000000003         0.10993308875906616     
  0.13109999999999999         0.23021619581352493     
  0.13140000000000002         0.32853613107807611     
  0.13169999999999998         0.39330742384467987     
  0.13200000000000001         0.41885726356640873     
  0.13229999999999997         0.39966016933255077     
  0.13260000000000000         0.33357123532311406     
  0.13290000000000002         0.22140071110947712     
  0.13319999999999999          6.7936674443931366E-002
  0.13350000000000001        -0.12123689320176689     
  0.13380000000000003        -0.33627002691613583     
  0.13410000000000000        -0.56583343487354654     
  0.13440000000000002        -0.80131178581882878     
  0.13469999999999999         -1.0278747808651509     
  0.13500000000000001         -1.2388191013351388     
  0.13529999999999998         -1.4232478649320655     
  0.13560000000000000         -1.5728790330808096     
  0.13590000000000002         -1.6850728228554814     
  0.13619999999999999         -1.7502403197843464     
  0.13650000000000001         -1.7700352641179151     
  0.13680000000000003         -1.7401870494416443     
  0.13710000000000000         -1.6599746516951015     
  0.13740000000000002         -1.5341526838929909     
  0.13769999999999999         -1.3612286056943859     
  0.13800000000000001         -1.1505525712016293     
  0.13829999999999998        -0.90718784251889772     
  0.13860000000000000        -0.64069263699281187     
  0.13890000000000002        -0.36475173342016554     
  0.13919999999999999         -8.8439883662631891E-002
  0.13950000000000001         0.17191233141302131     
  0.13979999999999998         0.40609146747666713     
  0.14010000000000000         0.60290187791763827     
  0.14040000000000002         0.75380540128124807     
  0.14069999999999999         0.85508655166220393     
  0.14100000000000001         0.90524270552980823     
  0.14130000000000004         0.90824141650380241     
  0.14160000000000000         0.86946115121384793     
  0.14189999999999997         0.80021361573895788     
  0.14219999999999999         0.70902971950643590     
  0.14250000000000002         0.60952556436762961     
  0.14279999999999998         0.51224228376942271     
  0.14310000000000000         0.42546765503951178     
  0.14339999999999997         0.36053725261890790     
  0.14369999999999999         0.31854307200291387     
  0.14400000000000002         0.30712299786890007     
  0.14429999999999998         0.32498367673670536     
  0.14460000000000001         0.37130877515453875     
  0.14490000000000003         0.44712305250165230     
  0.14520000000000000         0.54424986221554406     
  0.14550000000000002         0.66357542386877810     
  0.14579999999999999         0.79662205366898320     
  0.14610000000000001         0.93788355822796277     
  0.14640000000000003          1.0829568674698784     
  0.14670000000000000          1.2207778911048308     
  0.14699999999999996          1.3471829459293261     
  0.14729999999999999          1.4514456330682393     
  0.14760000000000001          1.5275516331063201     
  0.14789999999999998          1.5694307194283752     
  0.14820000000000000          1.5704378955376939     