  -1.4999999999999999E-002     0.0000000000000000     
  -1.4700000000000000E-002     0.0000000000000000     
  -1.4400000000000000E-002     0.0000000000000000     
  -1.4100000000000000E-002     0.0000000000000000     
  -1.3800000000000000E-002     0.0000000000000000     
  -1.3500000000000000E-002     0.0000000000000000     
  -1.3200000000000000E-002     0.0000000000000000     
  -1.2899999999999998E-002     0.0000000000000000     
  -1.2600000000000000E-002     0.0000000000000000     
  -1.2299999999999998E-002     0.0000000000000000     
  -1.2000000000000000E-002     0.0000000000000000     
  -1.1699999999999999E-002     0.0000000000000000     
  -1.1399999999999999E-002     0.0000000000000000     
  -1.1099999999999999E-002     0.0000000000000000     
  -1.0799999999999999E-002     0.0000000000000000     
  -1.0499999999999999E-002     0.0000000000000000     
  -1.0199999999999999E-002     0.0000000000000000     
  -9.8999999999999991E-003     0.0000000000000000     
  -9.5999999999999992E-003     0.0000000000000000     
  -9.2999999999999992E-003     0.0000000000000000     
  -8.9999999999999993E-003     0.0000000000000000     
  -8.6999999999999994E-003     0.0000000000000000     
  -8.3999999999999995E-003     0.0000000000000000     
  -8.0999999999999996E-003     0.0000000000000000     
  -7.7999999999999988E-003     0.0000000000000000     
  -7.4999999999999997E-003     0.0000000000000000     
  -7.1999999999999998E-003     0.0000000000000000     
  -6.8999999999999981E-003     0.0000000000000000     
  -6.5999999999999982E-003     0.0000000000000000     
  -6.3000000000000000E-003     0.0000000000000000     
  -6.0000000000000001E-003     0.0000000000000000     
  -5.6999999999999985E-003     0.0000000000000000     
  -5.3999999999999986E-003     0.0000000000000000     
  -5.1000000000000004E-003     0.0000000000000000     
  -4.7999999999999987E-003    -1.1463357995682314E-038
  -4.5000000000000005E-003     7.3685500097470813E-038
  -4.1999999999999989E-003     1.0488012453357854E-036
  -3.8999999999999990E-003    -1.7624705733961976E-036
  -3.5999999999999990E-003    -4.8467554655220646E-036
  -3.2999999999999991E-003     2.8254489675711620E-035
  -2.9999999999999992E-003    -6.4343500482326554E-035
  -2.6999999999999993E-003    -7.0938799253964670E-034
  -2.3999999999999994E-003     3.6633357143291435E-033
  -2.0999999999999977E-003    -3.9168699330747259E-033
  -1.7999999999999995E-003    -3.1417040005960879E-032
  -1.4999999999999979E-003     1.2132457796969183E-031
  -1.1999999999999997E-003    -8.4650718297458623E-032
  -8.9999999999999976E-004    -3.2537832280663233E-031
  -5.9999999999999810E-004     2.4205094355944612E-031
  -2.9999999999999992E-004     1.7365111706250780E-030
   0.0000000000000000          1.7706024294661544E-030
   3.0000000000000165E-004    -3.9506495797873872E-029
   5.9999999999999984E-004     1.3161707648640132E-028
   9.0000000000000149E-004    -1.2384602478551903E-028
   1.2000000000000031E-003    -6.3785309476874408E-028
   1.5000000000000013E-003     3.2743735918632700E-027
   1.8000000000000030E-003    -7.3650170847828623E-027
   2.1000000000000012E-003     5.4921151374869508E-027
   2.3999999999999994E-003     2.2052540916491664E-026
   2.7000000000000010E-003    -9.8638273437260175E-026
   2.9999999999999992E-003     2.0949456016272792E-025
   3.3000000000000008E-003    -2.2544634951478733E-025
   3.6000000000000025E-003    -1.4577530114459095E-025
   3.9000000000000007E-003     1.2132370485626908E-024
   4.2000000000000023E-003    -2.7573162551913178E-024
   4.5000000000000005E-003     3.1649730435863920E-024
   4.7999999999999987E-003     9.1403618881221990E-025
   5.1000000000000004E-003    -1.2722927403288617E-023
   5.4000000000000020E-003     2.9956771674494002E-023
   5.7000000000000037E-003    -3.6967705527821780E-023
   5.9999999999999984E-003     1.0740176961462405E-024
   6.3000000000000000E-003     1.1557179191826069E-022
   6.6000000000000017E-003    -3.1989493757799420E-022
   6.9000000000000034E-003     5.4367328198853216E-022
   7.2000000000000015E-003    -6.7951877963003249E-022
   7.5000000000000032E-003     9.3985245790601250E-022
   7.8000000000000014E-003    -2.9493441592026573E-021
   8.0999999999999996E-003     1.1446807999787361E-020
   8.4000000000000012E-003    -3.2519307288140184E-020
   8.7000000000000029E-003     5.1259707298026158E-020
   9.0000000000000011E-003     5.0669003131525655E-020
   9.2999999999999992E-003    -6.5683222844503472E-019
   9.6000000000000009E-003     2.3627869916858094E-018
   9.8999999999999991E-003    -4.0639540969637443E-018
   1.0200000000000001E-002    -6.2868725907009793E-018
   1.0500000000000002E-002     8.0848076303007384E-017
   1.0800000000000004E-002    -3.7524894505520619E-016
   1.1099999999999999E-002     1.1960301778750475E-015
   1.1400000000000000E-002    -2.5548936159588535E-015
   1.1700000000000002E-002     7.2256068226175447E-016
   1.2000000000000004E-002     2.8496083574131638E-014
   1.2300000000000002E-002    -1.9179895321316072E-013
   1.2600000000000000E-002     8.4263982478158719E-013
   1.2900000000000002E-002    -2.7576374211234642E-012
   1.3200000000000000E-002     6.1795686095757930E-012
   1.3500000000000002E-002    -4.4673344045756508E-012
   1.3800000000000003E-002    -3.3086640657837572E-011
   1.4100000000000001E-002     1.6650053246158929E-010
   1.4400000000000000E-002    -3.5247700441554665E-010
   1.4700000000000001E-002     1.8063475373665306E-011
   1.4999999999999999E-002     2.0073434026016018E-009
   1.5300000000000001E-002    -4.6151643462185940E-009
   1.5600000000000003E-002    -1.0633164178956912E-009
   1.5899999999999997E-002     2.1670865193531619E-008
   1.6199999999999999E-002    -1.9745405457837040E-008
   1.6500000000000001E-002    -6.6956710016669438E-008
   1.6800000000000002E-002     8.8591905049796699E-008
   1.7100000000000004E-002     2.0949169478427417E-007
   1.7400000000000006E-002    -2.2116518171655293E-007
   1.7700000000000000E-002    -7.5279980371025072E-007
   1.8000000000000002E-002     2.5431457894723439E-007
   1.8300000000000004E-002     3.9319666418829525E-006
   1.8600000000000005E-002     9.9277448538500550E-006
   1.8900000000000000E-002     1.8198067214543262E-005
   1.9200000000000002E-002     3.0942342971384640E-005
   1.9500000000000003E-002     5.2480622021100574E-005
   1.9799999999999998E-002     8.8664446239255634E-005
   2.0100000000000000E-002     1.4661167549568505E-004
   2.0400000000000001E-002     2.3542411810033130E-004
   2.0700000000000003E-002     3.6863275577969819E-004
   2.0999999999999998E-002     5.6678290119646993E-004
   2.1299999999999999E-002     8.6019221619391614E-004
   2.1600000000000001E-002     1.2922909719495224E-003
   2.1900000000000003E-002     1.9216893874451219E-003
   2.2200000000000004E-002     2.8229819426128372E-003
   2.2500000000000006E-002     4.0902852770544756E-003
   2.2800000000000001E-002     5.8462782128141100E-003
   2.3100000000000002E-002     8.2498677077170179E-003
   2.3400000000000004E-002     1.1497035719735704E-002
   2.3699999999999999E-002     1.5819414786719332E-002
   2.4000000000000000E-002     2.1483692988769509E-002
   2.4300000000000002E-002     2.8788441304509860E-002
   2.4599999999999997E-002     3.8056551517245518E-002
   2.4900000000000005E-002     4.9619978337080539E-002
   2.5200000000000000E-002     6.3794939318304156E-002
   2.5499999999999995E-002     8.0849317383847374E-002
   2.5800000000000003E-002    0.10095938680303806     
   2.6099999999999998E-002    0.12415991250819003     
   2.6400000000000007E-002    0.15029098687311659     
   2.6700000000000002E-002    0.17894410949218376     
   2.6999999999999996E-002    0.20939547835162031     
   2.7300000000000005E-002    0.24054786538516115     
   2.7600000000000000E-002    0.27089088546840934     
   2.7900000000000008E-002    0.29849078295158371     
   2.8200000000000003E-002    0.32100514889557452     
   2.8499999999999998E-002    0.33573179861157421     
   2.8800000000000006E-002    0.33968324376050951     
   2.9100000000000001E-002    0.32974590832841066     
   2.9400000000000003E-002    0.30284584844324769     
   2.9700000000000004E-002    0.25618526097798888     
   3.0000000000000006E-002    0.18749120789506568     
   3.0300000000000001E-002     9.5245724127508646E-002
   3.0600000000000002E-002    -2.0995013086639258E-002
   3.0900000000000004E-002   -0.16041416474693548     
   3.1199999999999999E-002   -0.32077900236522972     
   3.1500000000000007E-002   -0.49829820592996832     
   3.1800000000000002E-002   -0.68763113968424960     
   3.2099999999999997E-002   -0.88203374370059251     
   3.2400000000000005E-002    -1.0735176028039319     
   3.2700000000000000E-002    -1.2532339283376643     
   3.3000000000000002E-002    -1.4119498799819965     
   3.3300000000000003E-002    -1.5404740366287442     
   3.3599999999999998E-002    -1.6302981177625071     
   3.3900000000000000E-002    -1.6740732450793772     
   3.4200000000000001E-002    -1.6660994806326670     
   3.4500000000000003E-002    -1.6028571739221817     
   3.4799999999999998E-002    -1.4832000558665754     
   3.5099999999999999E-002    -1.3086544008938006     
   3.5400000000000001E-002    -1.0833542398214959     
   3.5699999999999996E-002   -0.81378145533478552     
   3.6000000000000004E-002   -0.50859066481207926     
   3.6299999999999999E-002   -0.17803628398239901     
   3.6600000000000008E-002    0.16654937445634044     
   3.6900000000000002E-002    0.51339047080011291     
   3.7199999999999997E-002    0.85089716421022388     
   3.7500000000000006E-002     1.1682793298945100     
   3.7800000000000000E-002     1.4560844837027389     
   3.8100000000000009E-002     1.7066204395181543     
   3.8400000000000004E-002     1.9142757406521937     
   3.8699999999999998E-002     2.0756418343847116     
   3.9000000000000007E-002     2.1895101146594698     
   3.9300000000000002E-002     2.2566404347357434     
   3.9600000000000003E-002     2.2797484388456439     
   3.9900000000000005E-002     2.2627728804184812     
   4.0200000000000000E-002     2.2106611904924165     
   4.0500000000000001E-002     2.1288912859543672     
   4.0800000000000003E-002     2.0226195272222682     
   4.1100000000000005E-002     1.8965394980232944     
   4.1399999999999999E-002     1.7541311629457397     
   4.1700000000000008E-002     1.5973493627688171     
   4.2000000000000003E-002     1.4265428462393288     
   4.2299999999999997E-002     1.2400417582555434     
   4.2600000000000006E-002     1.0346764552114145     
   4.2900000000000001E-002    0.80591633781294014     
   4.3200000000000002E-002    0.54845358061156091     
   4.3500000000000004E-002    0.25727511223711197     
   4.3799999999999999E-002    -7.1670846880634853E-002
   4.4100000000000000E-002   -0.44009098760692744     
   4.4400000000000002E-002   -0.84643825146561369     
   4.4700000000000004E-002    -1.2851031904429675     
   4.4999999999999998E-002    -1.7454456739204858     
   4.5300000000000000E-002    -2.2119291289687055     
   4.5600000000000002E-002    -2.6642769030485312     
   4.5899999999999996E-002    -3.0782259336938580     
   4.6200000000000005E-002    -3.4273938112643805     
   4.6500000000000000E-002    -3.6848772733760313     
   4.6799999999999994E-002    -3.8255427099058039     
   4.7100000000000003E-002    -3.8285168597902413     
   4.7399999999999998E-002    -3.6793443880701062     
   4.7700000000000006E-002    -3.3720499985044086     
   4.8000000000000001E-002    -2.9104092836017514     
   4.8300000000000010E-002    -2.3083324281572004     
   4.8600000000000004E-002    -1.5896980678919732     
   4.8899999999999999E-002   -0.78679113846799709     
   4.9200000000000008E-002     6.1742780120509710E-002
   4.9500000000000002E-002    0.91339333292085101     
   4.9800000000000011E-002     1.7253784061376507     
   5.0100000000000006E-002     2.4574235621348635     
   5.0400000000000000E-002     3.0748640148541568     
   5.0700000000000009E-002     3.5511744468184503     
   5.1000000000000004E-002     3.8691969093764129     
   5.1299999999999998E-002     4.0221703626707068     
   5.1600000000000007E-002     4.0132282573959515     
   5.1900000000000002E-002     3.8542405303878837     
   5.2200000000000010E-002     3.5641083330569074     
   5.2500000000000005E-002     3.1659153710146768     
   5.2800000000000000E-002     2.6849489161469435     
   5.3099999999999994E-002     2.1460758221575489     
   5.3400000000000003E-002     1.5715491263576524     
   5.3699999999999998E-002    0.98014658838164204     
   5.4000000000000006E-002    0.38610922036031781     
   5.4300000000000001E-002   -0.20055626297411333     
   5.4599999999999996E-002   -0.77293991509971605     
   5.4900000000000004E-002    -1.3266487460802807     
   5.5199999999999999E-002    -1.8574165302002612     
   5.5499999999999994E-002    -2.3597582258214089     
   5.5800000000000002E-002    -2.8259620416609579     
   5.6099999999999997E-002    -3.2445879155219615     
   5.6400000000000006E-002    -3.6012568277862727     
   5.6700000000000000E-002    -3.8785485853416191     
   5.6999999999999995E-002    -4.0576139255049384     
   5.7300000000000004E-002    -4.1199835945209742     
   5.7599999999999998E-002    -4.0496051518583727     
   5.7900000000000007E-002    -3.8355824126161622     
   5.8200000000000002E-002    -3.4735230466478981     
   5.8499999999999996E-002    -2.9674398922132639     
   5.8800000000000005E-002    -2.3306860567603103     
   5.9100000000000000E-002    -1.5851066521502446     
   5.9400000000000008E-002   -0.76087165871598117     
   5.9700000000000003E-002    0.10586911504638818     
   6.0000000000000012E-002    0.97552037553452209     
   6.0300000000000006E-002     1.8071607186057861     
   6.0600000000000001E-002     2.5622660456265294     
   6.0900000000000010E-002     3.2068945188907350     
   6.1200000000000004E-002     3.7140762595028605     
   6.1500000000000013E-002     4.0657293269942159     
   6.1800000000000008E-002     4.2530009253089673     
   6.2100000000000002E-002     4.2764552909004863     
   6.2399999999999997E-002     4.1453532655536662     
   6.2700000000000006E-002     3.8760563120735867     
   6.3000000000000000E-002     3.4904654651779907     
   6.3300000000000009E-002     3.0138736154642203     
   6.3600000000000004E-002     2.4732214359052591     
   6.3899999999999998E-002     1.8950962306484946     
   6.4199999999999993E-002     1.3042211258358467     
   6.4500000000000002E-002    0.72304224341386103     
   6.4800000000000010E-002    0.17016361970571481     
   6.5100000000000005E-002   -0.33899028479458870     
   6.5400000000000000E-002   -0.79214509603198024     
   6.5700000000000008E-002    -1.1803728973581471     
   6.5999999999999989E-002    -1.4967406657539470     
   6.6299999999999998E-002    -1.7369328774628983     
   6.6600000000000006E-002    -1.8980981733085542     
   6.6900000000000001E-002    -1.9790238238502198     
   6.7199999999999996E-002    -1.9806083917419386     
   6.7500000000000004E-002    -1.9047409282455234     
   6.7800000000000013E-002    -1.7557040090158864     
   6.8099999999999994E-002    -1.5400003504454745     
   6.8400000000000002E-002    -1.2661113205725094     
   6.8700000000000011E-002   -0.94545423805819695     
   6.8999999999999992E-002   -0.59155212429151938     
   6.9300000000000000E-002   -0.22017809455541038     
   6.9600000000000009E-002    0.15095241747090382     
   6.9900000000000004E-002    0.50316627152462345     
   7.0199999999999999E-002    0.81693641235890624     
   7.0500000000000007E-002     1.0730966701017266     
   7.0800000000000016E-002     1.2541585461046694     
   7.1099999999999997E-002     1.3443625008737996     
   7.1400000000000005E-002     1.3318586824426148     
   7.1700000000000000E-002     1.2088974176482594     
   7.1999999999999995E-002    0.97286534725098051     
   7.2300000000000003E-002    0.62783766964828314     
   7.2600000000000012E-002    0.18368387634579619     
   7.2900000000000006E-002   -0.34240406500277754     
   7.3200000000000001E-002   -0.92715490728642536     
   7.3499999999999996E-002    -1.5418774991552766     
   7.3800000000000004E-002    -2.1526068139100687     
   7.4099999999999999E-002    -2.7234517440239756     
   7.4400000000000008E-002    -3.2170781927255661     
   7.4700000000000003E-002    -3.5976866373915044     
   7.5000000000000011E-002    -3.8337318385189292     
   7.5299999999999992E-002    -3.8992218734099140     
   7.5600000000000001E-002    -3.7767690620601968     
   7.5900000000000009E-002    -3.4582527875483748     
   7.6200000000000004E-002    -2.9465309387229794     
   7.6499999999999999E-002    -2.2559134105818321     
   7.6800000000000007E-002    -1.4112269131634783     
   7.7099999999999988E-002   -0.44779913663042947     
   7.7399999999999997E-002    0.59076328743870121     
   7.7700000000000005E-002     1.6545426883097392     
   7.8000000000000014E-002     2.6893915391242018     
   7.8299999999999995E-002     3.6404589966740843     
   7.8600000000000003E-002     4.4548158392487096     
   7.8900000000000012E-002     5.0847592311315850     
   7.9199999999999993E-002     5.4912198399063357     
   7.9500000000000001E-002     5.6463340244188203     
   7.9800000000000010E-002     5.5355582031894528     
   8.0100000000000018E-002     5.1600672509975141     
   8.0399999999999999E-002     4.5370099110828050     
   8.0700000000000008E-002     3.6995982005686514     
   8.1000000000000003E-002     2.6958949875452856     
   8.1299999999999997E-002     1.5854594010696381     
   8.1600000000000006E-002    0.43698078209022739     
   8.1900000000000014E-002   -0.67790253312827886     
   8.2199999999999995E-002    -1.6889630038722601     
   8.2500000000000004E-002    -2.5326254092014011     
   8.2799999999999999E-002    -3.1585750357376696     
   8.3100000000000007E-002    -3.5322655969098804     
   8.3400000000000002E-002    -3.6401366839889420     
   8.3700000000000011E-002    -3.4898357727124960     
   8.4000000000000005E-002    -3.1098568478413711     
   8.4300000000000000E-002    -2.5484806962109658     
   8.4599999999999995E-002    -1.8682148374321415     
   8.4900000000000003E-002    -1.1415871608756092     
   8.5199999999999998E-002   -0.44398422907925994     
   8.5500000000000007E-002    0.15321401867993778     
   8.5800000000000001E-002    0.58838367220638776     
   8.6100000000000010E-002    0.81635175720187192     
   8.6399999999999991E-002    0.81137838795991257     
   8.6699999999999999E-002    0.57017876989560534     
   8.7000000000000008E-002    0.11163711185599290     
   8.7300000000000003E-002   -0.52492811390032923     
   8.7599999999999997E-002    -1.2831984956387679     
   8.7900000000000006E-002    -2.0954739910309002     
   8.8200000000000014E-002    -2.8881037681203452     
   8.8499999999999995E-002    -3.5888635140435241     
   8.8800000000000004E-002    -4.1317997890669034     
   8.9100000000000013E-002    -4.4627465499525556     
   8.9399999999999993E-002    -4.5441474161348481     
   8.9700000000000002E-002    -4.3558269662704276     
   9.0000000000000011E-002    -3.8972749961669990     
   9.0299999999999991E-002    -3.1852800637556342     
   9.0600000000000000E-002    -2.2523578987163972     
   9.0900000000000009E-002    -1.1439683542414016     
   9.1200000000000017E-002     8.7594352797733421E-002
   9.1499999999999998E-002     1.3847707856737372     
   9.1800000000000007E-002     2.6907855191803094     
   9.2100000000000001E-002     3.9522615674803490     
   9.2399999999999996E-002     5.1209886989791187     
   9.2700000000000005E-002     6.1574876701614585     
   9.3000000000000013E-002     7.0292944171027045     
   9.3300000000000008E-002     7.7125893945972734     
   9.3600000000000003E-002     8.1910808166160791     
   9.3899999999999997E-002     8.4539946647961983     
   9.4200000000000006E-002     8.4972401084589251     
   9.4500000000000001E-002     8.3194570208901553     
   9.4800000000000009E-002     7.9240180585002236     
   9.5100000000000004E-002     7.3179884538421049     
   9.5399999999999999E-002     6.5107731297924403     
   9.5699999999999993E-002     5.5172415608932042     
   9.6000000000000002E-002     4.3552987100240088     
   9.6300000000000011E-002     3.0481250845485022     
   9.6600000000000005E-002     1.6239903265703077     
   9.6900000000000000E-002    0.11438516244760777     
   9.7200000000000009E-002    -1.4435689739184703     
   9.7499999999999989E-002    -3.0111103493930926     
   9.7799999999999998E-002    -4.5473143853835722     
   9.8100000000000007E-002    -6.0105131062628629     
   9.8400000000000015E-002    -7.3617195563719804     
   9.8699999999999996E-002    -8.5625889792228520     
   9.9000000000000005E-002    -9.5800435345193478     
   9.9300000000000013E-002    -10.385112836850283     
   9.9599999999999994E-002    -10.952736596574653     
   9.9900000000000003E-002    -11.264913893385142     
  0.10020000000000001         -11.307483154219881     
  0.10049999999999999         -11.072557482586092     
  0.10080000000000000         -10.558071033010208     
  0.10110000000000001         -9.7663638489256925     
  0.10140000000000000         -8.7073772372766243     
  0.10170000000000000         -7.3969556414102211     
  0.10200000000000001         -5.8586126425794305     
  0.10230000000000002         -4.1241471913261591     
  0.10260000000000000         -2.2336625119469460     
  0.10290000000000001        -0.23674701858336533     
  0.10320000000000000          1.8093472487275193     
  0.10350000000000001          3.8393420533776634     
  0.10380000000000000          5.7827479525074068     
  0.10410000000000001          7.5666146586080743     
  0.10440000000000001          9.1181843391806865     
  0.10470000000000000          10.369747655227229     
  0.10500000000000000          11.262014378335721     
  0.10530000000000000          11.749658337080120     
  0.10560000000000000          11.803247145942265     
  0.10590000000000001          11.413637338736692     
  0.10620000000000000          10.593676570567780     
  0.10650000000000001          9.3773515136254453     
  0.10679999999999999          7.8214612422043217     
  0.10710000000000000          6.0004087301251445     
  0.10740000000000001          4.0042918568031070     
  0.10770000000000000          1.9338154333041473     
  0.10800000000000000        -0.10680785249813596     
  0.10830000000000001         -2.0127803052193975     
  0.10859999999999999         -3.6887093609960289     
  0.10890000000000000         -5.0512854626494175     
  0.10920000000000001         -6.0348565973969528     
  0.10950000000000001         -6.5977337181883655     
  0.10979999999999999         -6.7204677198148488     
  0.11009999999999999         -6.4114979343578877     
  0.11040000000000001         -5.7043475613024057     
  0.11070000000000001         -4.6553107893040959     
  0.11100000000000000         -3.3429935554328978     
  0.11130000000000000         -1.8599059912717308     
  0.11160000000000002        -0.31022198826265424     
  0.11190000000000001          1.1986435761854146     
  0.11220000000000001          2.5635824930953959     
  0.11250000000000000          3.6893177335609408     
  0.11280000000000000          4.4991014212265412     
  0.11309999999999999          4.9372692404543272     
  0.11340000000000001          4.9733248127779683     
  0.11369999999999998          4.6061752828226901     
  0.11400000000000000          3.8620257321045131     
  0.11430000000000000          2.7947378327227597     
  0.11460000000000002          1.4805813828447469     
  0.11489999999999999          1.3058216584429516E-002
  0.11520000000000001         -1.5023595477642466     
  0.11550000000000001         -2.9589128149477375     
  0.11580000000000000         -4.2541125782876179     
  0.11609999999999999         -5.2985169098315907     
  0.11640000000000002         -6.0232504271252623     
  0.11670000000000001         -6.3836534582847406     
  0.11700000000000001         -6.3639028873176287     
  0.11730000000000000         -5.9774244076638681     
  0.11760000000000000         -5.2654669248088553     
  0.11789999999999999         -4.2940546671414737     
  0.11820000000000001         -3.1472813432817759     
  0.11850000000000001         -1.9208105911957176     
  0.11880000000000000        -0.71353004916315399     
  0.11910000000000000         0.38152520111932731     
  0.11940000000000002          1.2836676126087170     
  0.11970000000000001          1.9329982308881952     
  0.12000000000000001          2.2945813790245504     
  0.12030000000000000          2.3607303322167397     
  0.12060000000000000          2.1519053967350033     
  0.12089999999999999          1.7135475023373985     
  0.12119999999999999          1.1124940967397805     
  0.12150000000000001         0.42895482877989011     
  0.12180000000000001        -0.25042542569251758     
  0.12210000000000000        -0.84139466441594912     
  0.12239999999999999         -1.2704851005506086     
  0.12270000000000002         -1.4820719045863644     
  0.12300000000000001         -1.4440817555959100     
  0.12330000000000001         -1.1498712821012305     
  0.12360000000000000        -0.62020423684046477     
  0.12390000000000000          9.9942044003503483E-002
  0.12419999999999999         0.94634408467485898     
  0.12450000000000001          1.8413681199017873     
  0.12480000000000001          2.7034117078816990     
  0.12509999999999999          3.4540375362226285     
  0.12540000000000001          4.0271637175382153     
  0.12570000000000003          4.3756141852444586     
  0.12600000000000000          4.4744632972123739     
  0.12630000000000002          4.3252165757216190     
  0.12659999999999999          3.9524367686665443     
  0.12690000000000001          3.4022656510422618     
  0.12719999999999998          2.7361158884984595     
  0.12750000000000000          2.0214356076401820     
  0.12780000000000002          1.3269402683560081     
  0.12809999999999999         0.71154916195465567     
  0.12840000000000001         0.21999353853181702     
  0.12869999999999998        -0.12202442347672848     
  0.12900000000000000        -0.31110818206663016     
  0.12930000000000003        -0.36261244647741364     
  0.12959999999999999        -0.31029796256746245     
  0.12990000000000002        -0.19991570220549182     
  0.13019999999999998         -8.0998698716174156E-002
  0.13050000000000000         -2.8950005687717884E-003
  0.13080000000000003         -5.9292187192845347E-003
  0.13109999999999999        -0.11692091697089602     
  0.13140000000000002        -0.34741533850472273     
  0.13169999999999998        -0.69079231767370430     
  0.13200000000000001         -1.1255263776755804     
  0.13229999999999997         -1.6179232484027821     
  0.13260000000000000         -2.1254916600269169     
  0.13290000000000002         -2.6051024761168549     
  0.13319999999999999         -3.0153268377422080     
  0.13350000000000001         -3.3227190913712121     
  0.13380000000000003         -3.5056519418479439     
  0.13410000000000000         -3.5523625143858339     
  0.13440000000000002         -3.4663427149955055     
  0.13469999999999999         -3.2605543842723961     
  0.13500000000000001         -2.9559359388367170     
  0.13529999999999998         -2.5812079026581429     
  0.13560000000000000         -2.1639545528044373     
  0.13590000000000002         -1.7333509116863119     
  0.13619999999999999         -1.3137215303029617     
  0.13650000000000001        -0.92332069960522700     
  0.13680000000000003        -0.57668324862170373     
  0.13710000000000000        -0.27863408773056975     
  0.13740000000000002         -3.0714623771508798E-002
  0.13769999999999999         0.17035297287330509     
  0.13800000000000001         0.33256247076464973     
  0.13829999999999998         0.46399294016555004     
  0.13860000000000000         0.57512871453222481     
  0.13890000000000002         0.67453526832650823     
  0.13919999999999999         0.77020474984171727     
  0.13950000000000001         0.86908968964450040     
  0.13979999999999998         0.97477248693109786     
  0.14010000000000000          1.0903512296994045     
  0.14040000000000002          1.2171350960674445     
  0.14069999999999999          1.3546927471196213     
  0.14100000000000001          1.5029888299144503     
  0.14130000000000004          1.6612267013236703     
  0.14160000000000000          1.8282195581806988     
  0.14189999999999997          2.0033244524323877     
  0.14219999999999999          2.1845283617643858     
  0.14250000000000002          2.3695681617133317     
  0.14279999999999998          2.5546440710530192     
  0.14310000000000000          2.7330698523698800     
  0.14339999999999997          2.8967381369704128     
  0.14369999999999999          3.0336093122847956     
  0.14400000000000002          3.1303023417529445     
  0.14429999999999998          3.1727695509521894     
  0.14460000000000001          3.1455504612781340     
  0.14490000000000003          3.0370221963796098     
  0.14520000000000000          2.8380273275214449     
  0.14550000000000002          2.5449706224487478     
  0.14579999999999999          2.1616457335807020     
  0.14610000000000001          1.6957430580160846     
  0.14640000000000003          1.1626152814991748     
  0.14670000000000000         0.58028602060037571     
  0.14699999999999996         -3.1652357845768364E-002
  0.14729999999999999        -0.65275801732951422     
  0.14760000000000001         -1.2677004024332845     
  0.14789999999999998         -1.8633053390016840     
  0.14820000000000000         -2.4326203368415946     