  -1.4999999999999999E-002     0.0000000000000000     
  -1.4700000000000000E-002     0.0000000000000000     
  -1.4400000000000000E-002     0.0000000000000000     
  -1.4100000000000000E-002     0.0000000000000000     
  -1.3800000000000000E-002     0.0000000000000000     
  -1.3500000000000000E-002     0.0000000000000000     
  -1.3200000000000000E-002     0.0000000000000000     
  -1.2899999999999998E-002     0.0000000000000000     
  -1.2600000000000000E-002     0.0000000000000000     
  -1.2299999999999998E-002     0.0000000000000000     
  -1.2000000000000000E-002     0.0000000000000000     
  -1.1699999999999999E-002     0.0000000000000000     
  -1.1399999999999999E-002     0.0000000000000000     
  -1.1099999999999999E-002     0.0000000000000000     
  -1.0799999999999999E-002     0.0000000000000000     
  -1.0499999999999999E-002     0.0000000000000000     
  -1.0199999999999999E-002     0.0000000000000000     
  -9.8999999999999991E-003     0.0000000000000000     
  -9.5999999999999992E-003     0.0000000000000000     
  -9.2999999999999992E-003     0.0000000000000000     
  -8.9999999999999993E-003     0.0000000000000000     
  -8.6999999999999994E-003     0.0000000000000000     
  -8.3999999999999995E-003     0.0000000000000000     
  -8.0999999999999996E-003     0.0000000000000000     
  -7.7999999999999988E-003     0.0000000000000000     
  -7.4999999999999997E-003     0.0000000000000000     
  -7.1999999999999998E-003     0.0000000000000000     
  -6.8999999999999981E-003     0.0000000000000000     
  -6.5999999999999982E-003     0.0000000000000000     
  -6.3000000000000000E-003     0.0000000000000000     
  -6.0000000000000001E-003     0.0000000000000000     
  -5.6999999999999985E-003     0.0000000000000000     
  -5.3999999999999986E-003     0.0000000000000000     
  -5.1000000000000004E-003     0.0000000000000000     
  -4.7999999999999987E-003     0.0000000000000000     
  -4.5000000000000005E-003     0.0000000000000000     
  -4.1999999999999989E-003     0.0000000000000000     
  -3.8999999999999990E-003     0.0000000000000000     
  -3.5999999999999990E-003     0.0000000000000000     
  -3.2999999999999991E-003     0.0000000000000000     
  -2.9999999999999992E-003     0.0000000000000000     
  -2.6999999999999993E-003     0.0000000000000000     
  -2.3999999999999994E-003     0.0000000000000000     
  -2.0999999999999977E-003     0.0000000000000000     
  -1.7999999999999995E-003     0.0000000000000000     
  -1.4999999999999979E-003     0.0000000000000000     
  -1.1999999999999997E-003     0.0000000000000000     
  -8.9999999999999976E-004     0.0000000000000000     
  -5.9999999999999810E-004     0.0000000000000000     
  -2.9999999999999992E-004     0.0000000000000000     
   0.0000000000000000          0.0000000000000000     
   3.0000000000000165E-004     0.0000000000000000     
   5.9999999999999984E-004     0.0000000000000000     
   9.0000000000000149E-004     0.0000000000000000     
   1.2000000000000031E-003     0.0000000000000000     
   1.5000000000000013E-003     0.0000000000000000     
   1.8000000000000030E-003     0.0000000000000000     
   2.1000000000000012E-003     0.0000000000000000     
   2.3999999999999994E-003     0.0000000000000000     
   2.7000000000000010E-003     0.0000000000000000     
   2.9999999999999992E-003     0.0000000000000000     
   3.3000000000000008E-003     0.0000000000000000     
   3.6000000000000025E-003     0.0000000000000000     
   3.9000000000000007E-003     0.0000000000000000     
   4.2000000000000023E-003     0.0000000000000000     
   4.5000000000000005E-003     0.0000000000000000     
   4.7999999999999987E-003     0.0000000000000000     
   5.1000000000000004E-003     0.0000000000000000     
   5.4000000000000020E-003     0.0000000000000000     
   5.7000000000000037E-003     0.0000000000000000     
   5.9999999999999984E-003     0.0000000000000000     
   6.3000000000000000E-003     0.0000000000000000     
   6.6000000000000017E-003     0.0000000000000000     
   6.9000000000000034E-003     0.0000000000000000     
   7.2000000000000015E-003     0.0000000000000000     
   7.5000000000000032E-003     0.0000000000000000     
   7.8000000000000014E-003     4.2227113561301420E-037
   8.0999999999999996E-003     5.6972302436051051E-036
   8.4000000000000012E-003    -2.0528648523824411E-035
   8.7000000000000029E-003    -1.4215397251428521E-035
   9.0000000000000011E-003     2.5257456815259820E-034
   9.2999999999999992E-003    -1.3507145259874414E-034
   9.6000000000000009E-003    -2.5174445791927650E-033
   9.8999999999999991E-003     1.2659119069195993E-032
   1.0200000000000001E-002    -5.0220630456501204E-033
   1.0500000000000002E-002    -2.8062717696502568E-031
   1.0800000000000004E-002     1.4049957990067735E-030
   1.1099999999999999E-002    -3.5390307493652799E-031
   1.1400000000000000E-002    -2.6352457299333015E-029
   1.1700000000000002E-002     1.3325776507995069E-028
   1.2000000000000004E-002    -2.1471345540797762E-028
   1.2300000000000002E-002    -9.4457600049161416E-028
   1.2600000000000000E-002     7.5277822252692806E-027
   1.2900000000000002E-002    -2.4979596416334218E-026
   1.3200000000000000E-002     3.8067715576604333E-026
   1.3500000000000002E-002     5.4034247972325967E-026
   1.3800000000000003E-002    -5.2549643796174298E-025
   1.4100000000000001E-002     1.9190723765381496E-024
   1.4400000000000000E-002    -6.2452504645796328E-024
   1.4700000000000001E-002     2.6265942676953207E-023
   1.4999999999999999E-002    -1.2521485650022355E-022
   1.5300000000000001E-002     5.1361019501965214E-022
   1.5600000000000003E-002    -1.5491640864181622E-021
   1.5899999999999997E-002     2.3221540694809880E-021
   1.6199999999999999E-002     8.6355894960560146E-021
   1.6500000000000001E-002    -9.6604749991797389E-020
   1.6800000000000002E-002     5.5496369306916351E-019
   1.7100000000000004E-002    -2.5640071952372508E-018
   1.7400000000000006E-002     1.0630413207732341E-017
   1.7700000000000000E-002    -4.1579318750941606E-017
   1.8000000000000002E-002     1.5722568656908179E-016
   1.8300000000000004E-002    -5.7753475082744535E-016
   1.8600000000000005E-002     2.0326834087995051E-015
   1.8900000000000000E-002    -6.6345596246399682E-015
   1.9200000000000002E-002     1.8907869248161596E-014
   1.9500000000000003E-002    -4.0967260101854377E-014
   1.9799999999999998E-002     3.1389462155830689E-014
   2.0100000000000000E-002     2.6363999416738337E-013
   2.0400000000000001E-002    -1.7090197529726070E-012
   2.0700000000000003E-002     5.8669171951186705E-012
   2.0999999999999998E-002    -1.1474354452700730E-011
   2.1299999999999999E-002     3.5916191895579708E-013
   2.1600000000000001E-002     7.9426770716040096E-011
   2.1900000000000003E-002    -2.4910964957491899E-010
   2.2200000000000004E-002     2.0653458110420075E-010
   2.2500000000000006E-002     8.6620854933272540E-010
   2.2800000000000001E-002    -2.6560500465677706E-009
   2.3100000000000002E-002     9.1846419358887488E-011
   2.3400000000000004E-002     1.0843542064264966E-008
   2.3699999999999999E-002    -8.6644522667711499E-009
   2.4000000000000000E-002    -3.7074059378028323E-008
   2.4300000000000002E-002     2.7455357098915556E-008
   2.4599999999999997E-002     1.1764527840796291E-007
   2.4900000000000005E-002    -3.6322727936521915E-008
   2.5200000000000000E-002    -3.3591044257264002E-007
   2.5499999999999995E-002    -5.4095661283781737E-008
   2.5800000000000003E-002     1.1518758356032777E-006
   2.6099999999999998E-002     2.4276671410916606E-006
   2.6400000000000007E-002     3.0066862564126495E-006
   2.6700000000000002E-002     3.8981474972388241E-006
   2.6999999999999996E-002     6.9673296820838004E-006
   2.7300000000000005E-002     1.2509387488535140E-005
   2.7600000000000000E-002     1.9461715055513196E-005
   2.7900000000000008E-002     2.8438344088499434E-005
   2.8200000000000003E-002     4.2688134271884337E-005
   2.8499999999999998E-002     6.5381420427002013E-005
   2.8800000000000006E-002     9.8128264653496444E-005
   2.9100000000000001E-002     1.4358344196807593E-004
   2.9400000000000003E-002     2.0782546198461205E-004
   2.9700000000000004E-002     2.9847511905245483E-004
   3.0000000000000006E-002     4.2223793570883572E-004
   3.0300000000000001E-002     5.8689428260549903E-004
   3.0600000000000002E-002     8.0438947770744562E-004
   3.0900000000000004E-002     1.0889027034863830E-003
   3.1199999999999999E-002     1.4525537844747305E-003
   3.1500000000000007E-002     1.9056823803111911E-003
   3.1800000000000002E-002     2.4602001067250967E-003
   3.2099999999999997E-002     3.1282866839319468E-003
   3.2400000000000005E-002     3.9159478619694710E-003
   3.2700000000000000E-002     4.8189065419137478E-003
   3.3000000000000002E-002     5.8249193243682384E-003
   3.3300000000000003E-002     6.9137471728026867E-003
   3.3599999999999998E-002     8.0504547804594040E-003
   3.3900000000000000E-002     9.1812061145901680E-003
   3.4200000000000001E-002     1.0236243717372417E-002
   3.4500000000000003E-002     1.1133325286209583E-002
   3.4799999999999998E-002     1.1779157444834709E-002
   3.5099999999999999E-002     1.2067455798387527E-002
   3.5400000000000001E-002     1.1888708919286728E-002
   3.5699999999999996E-002     1.1144358664751053E-002
   3.6000000000000004E-002     9.7528109326958656E-003
   3.6299999999999999E-002     7.6545616611838341E-003
   3.6600000000000008E-002     4.8228106461465359E-003
   3.6900000000000002E-002     1.2813903158530593E-003
   3.7199999999999997E-002    -2.8929212130606174E-003
   3.7500000000000006E-002    -7.5726686045527458E-003
   3.7800000000000000E-002    -1.2578873895108700E-002
   3.8100000000000009E-002    -1.7679831013083458E-002
   3.8400000000000004E-002    -2.2597569972276688E-002
   3.8699999999999998E-002    -2.7025125920772552E-002
   3.9000000000000007E-002    -3.0638946220278740E-002
   3.9300000000000002E-002    -3.3112194389104843E-002
   3.9600000000000003E-002    -3.4121036529541016E-002
   3.9900000000000005E-002    -3.3357840031385422E-002
   4.0200000000000000E-002    -3.0546249821782112E-002
   4.0500000000000001E-002    -2.5441473349928856E-002
   4.0800000000000003E-002    -1.7836408689618111E-002
   4.1100000000000005E-002    -7.5682573951780796E-003
   4.1399999999999999E-002     5.4692728444933891E-003
   4.1700000000000008E-002     2.1312106400728226E-002
   4.2000000000000003E-002     3.9917360991239548E-002
   4.2299999999999997E-002     6.1124641448259354E-002
   4.2600000000000006E-002     8.4622666239738464E-002
   4.2900000000000001E-002    0.10993256419897079     
   4.3200000000000002E-002    0.13637822866439819     
   4.3500000000000004E-002    0.16306614875793457     
   4.3799999999999999E-002    0.18888087570667267     
   4.4100000000000000E-002    0.21251524984836578     
   4.4400000000000002E-002    0.23252187669277191     
   4.4700000000000004E-002    0.24737770855426788     
   4.4999999999999998E-002    0.25559586286544800     
   4.5300000000000000E-002    0.25581243634223938     
   4.5600000000000002E-002    0.24691636860370636     
   4.5899999999999996E-002    0.22817215323448181     
   4.6200000000000005E-002    0.19928576052188873     
   4.6500000000000000E-002    0.16048748791217804     
   4.6799999999999994E-002    0.11252320557832718     
   4.7100000000000003E-002     5.6618172675371170E-002
   4.7399999999999998E-002    -5.5673853494226933E-003
   4.7700000000000006E-002    -7.2091065347194672E-002
   4.8000000000000001E-002   -0.14084942638874054     
   4.8300000000000010E-002   -0.20973788201808929     
   4.8600000000000004E-002   -0.27681955695152283     
   4.8899999999999999E-002   -0.34040713310241699     
   4.9200000000000008E-002   -0.39917123317718506     
   4.9500000000000002E-002   -0.45222654938697815     
   4.9800000000000011E-002   -0.49903786182403564     
   5.0100000000000006E-002   -0.53943502902984619     
   5.0400000000000000E-002   -0.57347750663757324     
   5.0700000000000009E-002   -0.60130566358566284     
   5.1000000000000004E-002   -0.62311410903930664     
   5.1299999999999998E-002   -0.63885909318923950     
   5.1600000000000007E-002   -0.64820528030395508     
   5.1900000000000002E-002   -0.65055453777313232     
   5.2200000000000010E-002   -0.64478099346160889     
   5.2500000000000005E-002   -0.62943148612976074     
   5.2800000000000000E-002   -0.60272043943405151     
   5.3099999999999994E-002   -0.56261187791824341     
   5.3400000000000003E-002   -0.50713342428207397     
   5.3699999999999998E-002   -0.43436670303344727     
   5.4000000000000006E-002   -0.34285414218902588     
   5.4300000000000001E-002   -0.23180325329303741     
   5.4599999999999996E-002   -0.10130918025970459     
   5.4900000000000004E-002     4.7442004084587097E-002
   5.5199999999999999E-002    0.21201133728027344     
   5.5499999999999994E-002    0.38869592547416687     
   5.5800000000000002E-002    0.57241177558898926     
   5.6099999999999997E-002    0.75697892904281616     
   5.6400000000000006E-002    0.93530261516571045     
   5.6700000000000000E-002     1.0997265577316284     
   5.6999999999999995E-002     1.2424771785736084     
   5.7300000000000004E-002     1.3561013936996460     
   5.7599999999999998E-002     1.4340633153915405     
   5.7900000000000007E-002     1.4712182283401489     
   5.8200000000000002E-002     1.4641811847686768     
   5.8499999999999996E-002     1.4117029905319214     
   5.8800000000000005E-002     1.3148615360260010     
   5.9100000000000000E-002     1.1770412921905518     
   5.9400000000000008E-002     1.0038976669311523     
   5.9700000000000003E-002    0.80295896530151367     
   6.0000000000000012E-002    0.58325242996215820     
   6.0300000000000006E-002    0.35483786463737488     
   6.0600000000000001E-002    0.12797537446022034     
   6.0900000000000010E-002    -8.7322875857353210E-002
   6.1200000000000004E-002   -0.28184536099433899     
   6.1500000000000013E-002   -0.44801431894302368     
   6.1800000000000008E-002   -0.58008605241775513     
   6.2100000000000002E-002   -0.67462557554244995     
   6.2399999999999997E-002   -0.73078715801239014     
   6.2700000000000006E-002   -0.75011515617370605     
   6.3000000000000000E-002   -0.73661625385284424     
   6.3300000000000009E-002   -0.69659793376922607     
   6.3600000000000004E-002   -0.63795268535614014     
   6.3899999999999998E-002   -0.56986671686172485     
   6.4199999999999993E-002   -0.50206738710403442     
   6.4500000000000002E-002   -0.44403570890426636     
   6.4800000000000010E-002   -0.40453416109085083     
   6.5100000000000005E-002   -0.39063909649848938     
   6.5400000000000000E-002   -0.40712979435920715     
   6.5700000000000008E-002   -0.45611992478370667     
   6.5999999999999989E-002   -0.53658974170684814     
   6.6299999999999998E-002   -0.64433795213699341     
   6.6600000000000006E-002   -0.77199137210845947     
   6.6900000000000001E-002   -0.90951144695281982     
   6.7199999999999996E-002    -1.0448350906372070     
   6.7500000000000004E-002    -1.1645720005035400     
   6.7800000000000013E-002    -1.2550917863845825     
   6.8099999999999994E-002    -1.3036508560180664     
   6.8400000000000002E-002    -1.2995519638061523     
   6.8700000000000011E-002    -1.2350229024887085     
   6.8999999999999992E-002    -1.1060795783996582     
   6.9300000000000000E-002   -0.91325527429580688     
   6.9600000000000009E-002   -0.66189646720886230     
   6.9900000000000004E-002   -0.36164048314094543     
   7.0199999999999999E-002    -2.6414392516016960E-002
   7.0500000000000007E-002    0.32646086812019348     
   7.0800000000000016E-002    0.67763894796371460     
   7.1099999999999997E-002     1.0070298910140991     
   7.1400000000000005E-002     1.2949295043945312     
   7.1700000000000000E-002     1.5238453149795532     
   7.1999999999999995E-002     1.6796231269836426     
   7.2300000000000003E-002     1.7525032758712769     
   7.2600000000000012E-002     1.7377712726593018     
   7.2900000000000006E-002     1.6367228031158447     
   7.3200000000000001E-002     1.4557861089706421     
   7.3499999999999996E-002     1.2065008878707886     
   7.3800000000000004E-002    0.90509259700775146     
   7.4099999999999999E-002    0.57086634635925293     
   7.4400000000000008E-002    0.22481748461723328     
   7.4700000000000003E-002   -0.11118622869253159     
   7.5000000000000011E-002   -0.41619521379470825     
   7.5299999999999992E-002   -0.67157340049743652     
   7.5600000000000001E-002   -0.86199694871902466     
   7.5900000000000009E-002   -0.97660291194915771     
   7.6200000000000004E-002    -1.0092382431030273     
   7.6499999999999999E-002   -0.95893484354019165     
   7.6800000000000007E-002   -0.83001971244812012     
   7.7099999999999988E-002   -0.63143122196197510     
   7.7399999999999997E-002   -0.37617152929306030     
   7.7700000000000005E-002    -8.0450870096683502E-002
   7.8000000000000014E-002    0.23788812756538391     
   7.8299999999999995E-002    0.55983668565750122     
   7.8600000000000003E-002    0.86691242456436157     
   7.8900000000000012E-002     1.1423118114471436     
   7.9199999999999993E-002     1.3712104558944702     
   7.9500000000000001E-002     1.5422886610031128     
   7.9800000000000010E-002     1.6474599838256836     
   8.0100000000000018E-002     1.6818745136260986     
   8.0399999999999999E-002     1.6447238922119141     
   8.0700000000000008E-002     1.5375396013259888     
   8.1000000000000003E-002     1.3644732236862183     
   8.1299999999999997E-002     1.1322226524353027     
   8.1600000000000006E-002    0.84851032495498657     
   8.1900000000000014E-002    0.52228087186813354     
   8.2199999999999995E-002    0.16374246776103973     
   8.2500000000000004E-002   -0.21640197932720184     
   8.2799999999999999E-002   -0.60639530420303345     
   8.3100000000000007E-002   -0.99357032775878906     
   8.3400000000000002E-002    -1.3647987842559814     
   8.3700000000000011E-002    -1.7059987783432007     
   8.4000000000000005E-002    -2.0028126239776611     
   8.4300000000000000E-002    -2.2416000366210938     
   8.4599999999999995E-002    -2.4095337390899658     
   8.4900000000000003E-002    -2.4962625503540039     
   8.5199999999999998E-002    -2.4942007064819336     
   8.5500000000000007E-002    -2.3996067047119141     
   8.5800000000000001E-002    -2.2144155502319336     
   8.6100000000000010E-002    -1.9448790550231934     
   8.6399999999999991E-002    -1.6020332574844360     
   8.6699999999999999E-002    -1.2022194862365723     
   8.7000000000000008E-002   -0.76474756002426147     
   8.7300000000000003E-002   -0.31163358688354492     
   8.7599999999999997E-002    0.13466970622539520     
   8.7900000000000006E-002    0.55324876308441162     
   8.8200000000000014E-002    0.92439490556716919     
   8.8499999999999995E-002     1.2328577041625977     
   8.8800000000000004E-002     1.4683711528778076     
   8.9100000000000013E-002     1.6251281499862671     
   8.9399999999999993E-002     1.7026096582412720     
   8.9700000000000002E-002     1.7050994634628296     
   9.0000000000000011E-002     1.6405529975891113     
   9.0299999999999991E-002     1.5197805166244507     
   9.0600000000000000E-002     1.3549890518188477     
   9.0900000000000009E-002     1.1588306427001953     
   9.1200000000000017E-002    0.94387549161911011     
   9.1499999999999998E-002    0.72103571891784668     
   9.1800000000000007E-002    0.49965429306030273     
   9.2100000000000001E-002    0.28729403018951416     
   9.2399999999999996E-002     8.9301630854606628E-002
   9.2700000000000005E-002    -8.9825697243213654E-002
   9.3000000000000013E-002   -0.24705645442008972     
   9.3300000000000008E-002   -0.38074290752410889     
   9.3600000000000003E-002   -0.48850604891777039     
   9.3899999999999997E-002   -0.56889510154724121     
   9.4200000000000006E-002   -0.62051033973693848     
   9.4500000000000001E-002   -0.64161777496337891     
   9.4800000000000009E-002   -0.63144648075103760     
   9.5100000000000004E-002   -0.58923286199569702     
   9.5399999999999999E-002   -0.51521611213684082     
   9.5699999999999993E-002   -0.41148090362548828     
   9.6000000000000002E-002   -0.28083047270774841     
   9.6300000000000011E-002   -0.12802091240882874     
   9.6600000000000005E-002     4.0266819298267365E-002
   9.6900000000000000E-002    0.21596066653728485     
   9.7200000000000009E-002    0.38939324021339417     
   9.7499999999999989E-002    0.55010527372360229     
   9.7799999999999998E-002    0.68757122755050659     
   9.8100000000000007E-002    0.79086476564407349     
   9.8400000000000015E-002    0.85024225711822510     
   9.8699999999999996E-002    0.85793477296829224     
   9.9000000000000005E-002    0.80814361572265625     
   9.9300000000000013E-002    0.69867008924484253     
   9.9599999999999994E-002    0.53044515848159790     
   9.9900000000000003E-002    0.30838429927825928     
  0.10020000000000001          4.2421795427799225E-002
  0.10049999999999999        -0.25441560149192810     
  0.10080000000000000        -0.56568247079849243     
  0.10110000000000001        -0.87122637033462524     
  0.10140000000000000         -1.1500951051712036     
  0.10170000000000000         -1.3805978298187256     
  0.10200000000000001         -1.5426465272903442     
  0.10230000000000002         -1.6194019317626953     
  0.10260000000000000         -1.5974675416946411     
  0.10290000000000001         -1.4700617790222168     
  0.10320000000000000         -1.2377977371215820     
  0.10350000000000001        -0.90756672620773315     
  0.10380000000000000        -0.49420794844627380     
  0.10410000000000001         -1.8823064863681793E-002
  0.10440000000000001         0.49218043684959412     
  0.10470000000000000          1.0085391998291016     
  0.10500000000000000          1.4995313882827759     
  0.10530000000000000          1.9351398944854736     
  0.10560000000000000          2.2884936332702637     
  0.10590000000000001          2.5389509201049805     
  0.10620000000000000          2.6723973751068115     
  0.10650000000000001          2.6827783584594727     
  0.10679999999999999          2.5725295543670654     
  0.10710000000000000          2.3514790534973145     
  0.10740000000000001          2.0363917350769043     
  0.10770000000000000          1.6487290859222412     
  0.10800000000000000          1.2124149799346924     
  0.10830000000000001         0.75310170650482178     
  0.10859999999999999         0.29482376575469971     
  0.10890000000000000        -0.14194668829441071     
  0.10920000000000001        -0.53977435827255249     
  0.10950000000000001        -0.88618373870849609     
  0.10979999999999999         -1.1742711067199707     
  0.11009999999999999         -1.4007977247238159     
  0.11040000000000001         -1.5667500495910645     
  0.11070000000000001         -1.6758437156677246     
  0.11100000000000000         -1.7333694696426392     
  0.11130000000000000         -1.7458083629608154     
  0.11160000000000002         -1.7194367647171021     
  0.11190000000000001         -1.6604391336441040     
  0.11220000000000001         -1.5738668441772461     
  0.11250000000000000         -1.4643994569778442     
  0.11280000000000000         -1.3368985652923584     
  0.11309999999999999         -1.1954724788665771     
  0.11340000000000001         -1.0445715188980103     
  0.11369999999999998        -0.88977324962615967     
  0.11400000000000000        -0.73650145530700684     
  0.11430000000000000        -0.59136247634887695     
  0.11460000000000002        -0.46091800928115845     
  0.11489999999999999        -0.35139077901840210     
  0.11520000000000001        -0.26910698413848877     
  0.11550000000000001        -0.21925577521324158     
  0.11580000000000000        -0.20496775209903717     
  0.11609999999999999        -0.22799283266067505     
  0.11640000000000002        -0.28860378265380859     
  0.11670000000000001        -0.38400417566299438     
  0.11700000000000001        -0.50993162393569946     
  0.11730000000000000        -0.65996968746185303     
  0.11760000000000000        -0.82541310787200928     
  0.11789999999999999        -0.99680453538894653     
  0.11820000000000001         -1.1626265048980713     
  0.11850000000000001         -1.3099590539932251     
  0.11880000000000000         -1.4260958433151245     
  0.11910000000000000         -1.4970332384109497     
  0.11940000000000002         -1.5091853141784668     
  0.11970000000000001         -1.4495159387588501     
  0.12000000000000001         -1.3070783615112305     
  0.12030000000000000         -1.0738168954849243     
  0.12060000000000000        -0.74435275793075562     
  0.12089999999999999        -0.31910979747772217     
  0.12119999999999999         0.19512550532817841     
  0.12150000000000001         0.78614896535873413     
  0.12180000000000001          1.4341064691543579     
  0.12210000000000000          2.1124138832092285     
  0.12239999999999999          2.7893116474151611     
  0.12270000000000002          3.4286170005798340     
  0.12300000000000001          3.9928669929504395     
  0.12330000000000001          4.4452605247497559     
  0.12360000000000000          4.7522368431091309     
  0.12390000000000000          4.8880505561828613     
  0.12419999999999999          4.8367471694946289     
  0.12450000000000001          4.5921406745910645     
  0.12480000000000001          4.1611838340759277     
  0.12509999999999999          3.5636622905731201     
  0.12540000000000001          2.8301310539245605     
  0.12570000000000003          2.0004434585571289     
  0.12600000000000000          1.1202603578567505     
  0.12630000000000002         0.23842148482799530     
  0.12659999999999999        -0.59687340259552002     
  0.12690000000000001         -1.3435302972793579     
  0.12719999999999998         -1.9664382934570312     
  0.12750000000000000         -2.4408824443817139     
  0.12780000000000002         -2.7543876171112061     
  0.12809999999999999         -2.9065530300140381     
  0.12840000000000001         -2.9102225303649902     
  0.12869999999999998         -2.7874183654785156     
  0.12900000000000000         -2.5682241916656494     
  0.12930000000000003         -2.2891778945922852     
  0.12959999999999999         -1.9883570671081543     
  0.12990000000000002         -1.7020125389099121     
  0.13019999999999998         -1.4625055789947510     
  0.13050000000000000         -1.2947342395782471     
  0.13080000000000003         -1.2147341966629028     
  0.13109999999999999         -1.2270061969757080     
  0.13140000000000002         -1.3251416683197021     
  0.13169999999999998         -1.4929262399673462     
  0.13200000000000001         -1.7039328813552856     
  0.13229999999999997         -1.9241878986358643     
  0.13260000000000000         -2.1168925762176514     
  0.13290000000000002         -2.2436046600341797     
  0.13319999999999999         -2.2684390544891357     
  0.13350000000000001         -2.1619074344635010     
  0.13380000000000003         -1.9031397104263306     
  0.13410000000000000         -1.4834426641464233     
  0.13440000000000002        -0.90616250038146973     
  0.13469999999999999        -0.18791306018829346     
  0.13500000000000001         0.64079076051712036     
  0.13529999999999998          1.5391832590103149     
  0.13560000000000000          2.4580266475677490     
  0.13590000000000002          3.3421893119812012     
  0.13619999999999999          4.1354150772094727     
  0.13650000000000001          4.7828664779663086     
  0.13680000000000003          5.2364726066589355     
  0.13710000000000000          5.4586572647094727     
  0.13740000000000002          5.4235939979553223     
  0.13769999999999999          5.1199111938476562     
  0.13800000000000001          4.5535211563110352     
  0.13829999999999998          3.7461318969726562     
  0.13860000000000000          2.7346208095550537     
  0.13890000000000002          1.5686855316162109     
  0.13919999999999999         0.30818465352058411     
  0.13950000000000001        -0.97976446151733398     
  0.13979999999999998         -2.2269904613494873     
  0.14010000000000000         -3.3687551021575928     
  0.14040000000000002         -4.3462080955505371     
  0.14069999999999999         -5.1128025054931641     
  0.14100000000000001         -5.6369075775146484     
  0.14130000000000004         -5.9027156829833984     
  0.14160000000000000         -5.9122366905212402     
  0.14189999999999997         -5.6837949752807617     
  0.14219999999999999         -5.2501440048217773     
  0.14250000000000002         -4.6549725532531738     
  0.14279999999999998         -3.9485528469085693     
  0.14310000000000000         -3.1825845241546631     
  0.14339999999999997         -2.4060194492340088     
  0.14369999999999999         -1.6608006954193115     
  0.14400000000000002        -0.97805768251419067     
  0.14429999999999998        -0.37561622262001038     
  0.14460000000000001         0.14117947220802307     
  0.14490000000000003         0.57944113016128540     
  0.14520000000000000         0.95722150802612305     
  0.14550000000000002          1.3000230789184570     
  0.14579999999999999          1.6359620094299316     
  0.14610000000000001          1.9926282167434692     
  0.14640000000000003          2.3937487602233887     
  0.14670000000000000          2.8545227050781250     
  0.14699999999999996          3.3795161247253418     
  0.14729999999999999          3.9617822170257568     
  0.14760000000000001          4.5831322669982910     
  0.14789999999999998          5.2142667770385742     
  0.14820000000000000          5.8164238929748535     