  -1.4999999999999999E-002     0.0000000000000000     
  -1.4700000000000000E-002     0.0000000000000000     
  -1.4400000000000000E-002     0.0000000000000000     
  -1.4100000000000000E-002     0.0000000000000000     
  -1.3800000000000000E-002     0.0000000000000000     
  -1.3500000000000000E-002     0.0000000000000000     
  -1.3200000000000000E-002     0.0000000000000000     
  -1.2899999999999998E-002     0.0000000000000000     
  -1.2600000000000000E-002     0.0000000000000000     
  -1.2299999999999998E-002     0.0000000000000000     
  -1.2000000000000000E-002     0.0000000000000000     
  -1.1699999999999999E-002     0.0000000000000000     
  -1.1399999999999999E-002     0.0000000000000000     
  -1.1099999999999999E-002     0.0000000000000000     
  -1.0799999999999999E-002     0.0000000000000000     
  -1.0499999999999999E-002     0.0000000000000000     
  -1.0199999999999999E-002     0.0000000000000000     
  -9.8999999999999991E-003     0.0000000000000000     
  -9.5999999999999992E-003     0.0000000000000000     
  -9.2999999999999992E-003     0.0000000000000000     
  -8.9999999999999993E-003     0.0000000000000000     
  -8.6999999999999994E-003     0.0000000000000000     
  -8.3999999999999995E-003     0.0000000000000000     
  -8.0999999999999996E-003     0.0000000000000000     
  -7.7999999999999988E-003     0.0000000000000000     
  -7.4999999999999997E-003     0.0000000000000000     
  -7.1999999999999998E-003     0.0000000000000000     
  -6.8999999999999981E-003     0.0000000000000000     
  -6.5999999999999982E-003     0.0000000000000000     
  -6.3000000000000000E-003     0.0000000000000000     
  -6.0000000000000001E-003     0.0000000000000000     
  -5.6999999999999985E-003     0.0000000000000000     
  -5.3999999999999986E-003     0.0000000000000000     
  -5.1000000000000004E-003     0.0000000000000000     
  -4.7999999999999987E-003     0.0000000000000000     
  -4.5000000000000005E-003     0.0000000000000000     
  -4.1999999999999989E-003     0.0000000000000000     
  -3.8999999999999990E-003     0.0000000000000000     
  -3.5999999999999990E-003     0.0000000000000000     
  -3.2999999999999991E-003     0.0000000000000000     
  -2.9999999999999992E-003     0.0000000000000000     
  -2.6999999999999993E-003     0.0000000000000000     
  -2.3999999999999994E-003     0.0000000000000000     
  -2.0999999999999977E-003     0.0000000000000000     
  -1.7999999999999995E-003     0.0000000000000000     
  -1.4999999999999979E-003     0.0000000000000000     
  -1.1999999999999997E-003     0.0000000000000000     
  -8.9999999999999976E-004     0.0000000000000000     
  -5.9999999999999810E-004     0.0000000000000000     
  -2.9999999999999992E-004     0.0000000000000000     
   0.0000000000000000          0.0000000000000000     
   3.0000000000000165E-004     0.0000000000000000     
   5.9999999999999984E-004     0.0000000000000000     
   9.0000000000000149E-004     0.0000000000000000     
   1.2000000000000031E-003     0.0000000000000000     
   1.5000000000000013E-003     0.0000000000000000     
   1.8000000000000030E-003     0.0000000000000000     
   2.1000000000000012E-003     0.0000000000000000     
   2.3999999999999994E-003     0.0000000000000000     
   2.7000000000000010E-003     0.0000000000000000     
   2.9999999999999992E-003     0.0000000000000000     
   3.3000000000000008E-003     0.0000000000000000     
   3.6000000000000025E-003     0.0000000000000000     
   3.9000000000000007E-003     0.0000000000000000     
   4.2000000000000023E-003     0.0000000000000000     
   4.5000000000000005E-003     0.0000000000000000     
   4.7999999999999987E-003     0.0000000000000000     
   5.1000000000000004E-003     0.0000000000000000     
   5.4000000000000020E-003     0.0000000000000000     
   5.7000000000000037E-003     0.0000000000000000     
   5.9999999999999984E-003     0.0000000000000000     
   6.3000000000000000E-003     0.0000000000000000     
   6.6000000000000017E-003     0.0000000000000000     
   6.9000000000000034E-003     0.0000000000000000     
   7.2000000000000015E-003     0.0000000000000000     
   7.5000000000000032E-003     0.0000000000000000     
   7.8000000000000014E-003     0.0000000000000000     
   8.0999999999999996E-003     0.0000000000000000     
   8.4000000000000012E-003     0.0000000000000000     
   8.7000000000000029E-003     0.0000000000000000     
   9.0000000000000011E-003     0.0000000000000000     
   9.2999999999999992E-003     0.0000000000000000     
   9.6000000000000009E-003     0.0000000000000000     
   9.8999999999999991E-003     0.0000000000000000     
   1.0200000000000001E-002     0.0000000000000000     
   1.0500000000000002E-002    -1.9476943758301806E-036
   1.0800000000000004E-002    -8.0295677299518431E-036
   1.1099999999999999E-002     2.0016418824847685E-034
   1.1400000000000000E-002    -8.9199495994020311E-035
   1.1700000000000002E-002    -8.3241310022335615E-033
   1.2000000000000004E-002     3.3686529524650064E-032
   1.2300000000000002E-002     6.8447284561799076E-032
   1.2600000000000000E-002    -1.0296152197665974E-030
   1.2900000000000002E-002     3.3087578007284623E-030
   1.3200000000000000E-002     2.7820296907125709E-030
   1.3500000000000002E-002    -6.8564917598039536E-029
   1.3800000000000003E-002     3.1046457741533756E-028
   1.4100000000000001E-002    -6.5740164574550283E-028
   1.4400000000000000E-002    -6.8513267768049716E-028
   1.4700000000000001E-002     1.2576820197146280E-026
   1.4999999999999999E-002    -6.4640057597690750E-026
   1.5300000000000001E-002     2.3588824471519468E-025
   1.5600000000000003E-002    -6.9402375137250231E-025
   1.5899999999999997E-002     1.5082287853260022E-024
   1.6199999999999999E-002     5.9820505734267157E-026
   1.6500000000000001E-002    -2.9035533918710122E-023
   1.6800000000000002E-002     2.3505265563425290E-022
   1.7100000000000004E-002    -1.3190224875048064E-021
   1.7400000000000006E-002     5.9793130241372070E-021
   1.7700000000000000E-002    -2.2790924523522839E-020
   1.8000000000000002E-002     7.3130327097474264E-020
   1.8300000000000004E-002    -1.8886222642492820E-019
   1.8600000000000005E-002     3.2006419974001664E-019
   1.8900000000000000E-002     1.8565944771660823E-019
   1.9200000000000002E-002    -4.5323612177847602E-018
   1.9500000000000003E-002     2.2962662844647607E-017
   1.9799999999999998E-002    -6.8173857041346189E-017
   2.0100000000000000E-002     2.3985696665196040E-017
   2.0400000000000001E-002     1.3269904025305567E-015
   2.0700000000000003E-002    -1.1439042733331871E-014
   2.0999999999999998E-002     6.5310245005081174E-014
   2.1299999999999999E-002    -2.9296638899556360E-013
   2.1600000000000001E-002     1.0532534046314712E-012
   2.1900000000000003E-002    -2.8757564905779187E-012
   2.2200000000000004E-002     4.6915054306706505E-012
   2.2500000000000006E-002     3.7288349491459982E-012
   2.2800000000000001E-002    -5.6241872270490489E-011
   2.3100000000000002E-002     1.9587390043263042E-010
   2.3400000000000004E-002    -3.0290678298960927E-010
   2.3699999999999999E-002    -2.9600316642230950E-010
   2.4000000000000000E-002     2.5543560600027604E-009
   2.4300000000000002E-002    -4.3883465750127471E-009
   2.4599999999999997E-002    -3.5929352826258310E-009
   2.4900000000000005E-002     2.4376827667538237E-008
   2.5200000000000000E-002    -1.5012046716833538E-008
   2.5499999999999995E-002    -7.5433860047269263E-008
   2.5800000000000003E-002     7.9948975439947390E-008
   2.6099999999999998E-002     2.1940036276646424E-007
   2.6400000000000007E-002    -1.8388921319001383E-007
   2.6700000000000002E-002    -7.3138670586558874E-007
   2.6999999999999996E-002     4.2630624363937386E-008
   2.7300000000000005E-002     3.1255926842277404E-006
   2.7600000000000000E-002     7.9128494689939544E-006
   2.7900000000000008E-002     1.3464557014231104E-005
   2.8200000000000003E-002     2.0421673980308697E-005
   2.8499999999999998E-002     3.1038125598570332E-005
   2.8800000000000006E-002     4.8352649173466489E-005
   2.9100000000000001E-002     7.5918957008980215E-005
   2.9400000000000003E-002     1.1794728197855875E-004
   2.9700000000000004E-002     1.8002181604970247E-004
   3.0000000000000006E-002     2.7021399000659585E-004
   3.0300000000000001E-002     4.0046239155344665E-004
   3.0600000000000002E-002     5.8764364803209901E-004
   3.0900000000000004E-002     8.5313513409346342E-004
   3.1199999999999999E-002     1.2219282798469067E-003
   3.1500000000000007E-002     1.7233280232176185E-003
   3.1800000000000002E-002     2.3929255548864603E-003
   3.2099999999999997E-002     3.2732335384935141E-003
   3.2400000000000005E-002     4.4109923765063286E-003
   3.2700000000000000E-002     5.8530699461698532E-003
   3.3000000000000002E-002     7.6431413181126118E-003
   3.3300000000000003E-002     9.8173413425683975E-003
   3.3599999999999998E-002     1.2396773323416710E-002
   3.3900000000000000E-002     1.5377523377537727E-002
   3.4200000000000001E-002     1.8720803782343864E-002
   3.4500000000000003E-002     2.2342212498188019E-002
   3.4799999999999998E-002     2.6102168485522270E-002
   3.5099999999999999E-002     2.9794791713356972E-002
   3.5400000000000001E-002     3.3144004642963409E-002
   3.5699999999999996E-002     3.5808570683002472E-002
   3.6000000000000004E-002     3.7385243922472000E-002
   3.6299999999999999E-002     3.7426989525556564E-002
   3.6600000000000008E-002     3.5469386726617813E-002
   3.6900000000000002E-002     3.1066892668604851E-002
   3.7199999999999997E-002     2.3848270997405052E-002
   3.7500000000000006E-002     1.3556534424424171E-002
   3.7800000000000000E-002     1.0506081162020564E-004
   3.8100000000000009E-002    -1.6368612647056580E-002
   3.8400000000000004E-002    -3.5465490072965622E-002
   3.8699999999999998E-002    -5.6497640907764435E-002
   3.9000000000000007E-002    -7.8493043780326843E-002
   3.9300000000000002E-002   -0.10022161155939102     
   3.9600000000000003E-002   -0.12024643272161484     
   3.9900000000000005E-002   -0.13701413571834564     
   4.0200000000000000E-002   -0.14896576106548309     
   4.0500000000000001E-002   -0.15465161204338074     
   4.0800000000000003E-002   -0.15286503732204437     
   4.1100000000000005E-002   -0.14276970922946930     
   4.1399999999999999E-002   -0.12399499118328094     
   4.1700000000000008E-002    -9.6707239747047424E-002
   4.2000000000000003E-002    -6.1628062278032303E-002
   4.2299999999999997E-002    -2.0014477893710136E-002
   4.2600000000000006E-002     2.6404812932014465E-002
   4.2900000000000001E-002     7.5532861053943634E-002
   4.3200000000000002E-002    0.12506985664367676     
   4.3500000000000004E-002    0.17264524102210999     
   4.3799999999999999E-002    0.21598194539546967     
   4.4100000000000000E-002    0.25305494666099548     
   4.4400000000000002E-002    0.28217372298240662     
   4.4700000000000004E-002    0.30208915472030640     
   4.4999999999999998E-002    0.31201687455177307     
   4.5300000000000000E-002    0.31161114573478699     
   4.5600000000000002E-002    0.30095940828323364     
   4.5899999999999996E-002    0.28047639131546021     
   4.6200000000000005E-002    0.25084292888641357     
   4.6500000000000000E-002    0.21293132007122040     
   4.6799999999999994E-002    0.16769582033157349     
   4.7100000000000003E-002    0.11616061627864838     
   4.7399999999999998E-002     5.9360392391681671E-002
   4.7700000000000006E-002    -1.6835937276482582E-003
   4.8000000000000001E-002    -6.5908506512641907E-002
   4.8300000000000010E-002   -0.13224022090435028     
   4.8600000000000004E-002   -0.19953769445419312     
   4.8899999999999999E-002   -0.26655948162078857     
   4.9200000000000008E-002   -0.33197173476219177     
   4.9500000000000002E-002   -0.39429509639739990     
   4.9800000000000011E-002   -0.45196935534477234     
   5.0100000000000006E-002   -0.50334101915359497     
   5.0400000000000000E-002   -0.54672157764434814     
   5.0700000000000009E-002   -0.58047991991043091     
   5.1000000000000004E-002   -0.60308641195297241     
   5.1299999999999998E-002   -0.61324465274810791     
   5.1600000000000007E-002   -0.60995030403137207     
   5.1900000000000002E-002   -0.59257203340530396     
   5.2200000000000010E-002   -0.56097012758255005     
   5.2500000000000005E-002   -0.51548826694488525     
   5.2800000000000000E-002   -0.45701199769973755     
   5.3099999999999994E-002   -0.38696759939193726     
   5.3400000000000003E-002   -0.30720412731170654     
   5.3699999999999998E-002   -0.21996223926544189     
   5.4000000000000006E-002   -0.12774400413036346     
   5.4300000000000001E-002    -3.3081155270338058E-002
   5.4599999999999996E-002     6.1488285660743713E-002
   5.4900000000000004E-002    0.15375676751136780     
   5.5199999999999999E-002    0.24192281067371368     
   5.5499999999999994E-002    0.32466468214988708     
   5.5800000000000002E-002    0.40135017037391663     
   5.6099999999999997E-002    0.47190177440643311     
   5.6400000000000006E-002    0.53683412075042725     
   5.6700000000000000E-002    0.59712409973144531     
   5.6999999999999995E-002    0.65391302108764648     
   5.7300000000000004E-002    0.70842975378036499     
   5.7599999999999998E-002    0.76159143447875977     
   5.7900000000000007E-002    0.81374788284301758     
   5.8200000000000002E-002    0.86455368995666504     
   5.8499999999999996E-002    0.91263520717620850     
   5.8800000000000005E-002    0.95559859275817871     
   5.9100000000000000E-002    0.99007636308670044     
   5.9400000000000008E-002     1.0117702484130859     
   5.9700000000000003E-002     1.0158388614654541     
   6.0000000000000012E-002    0.99720180034637451     
   6.0300000000000006E-002    0.95099776983261108     
   6.0600000000000001E-002    0.87320357561111450     
   6.0900000000000010E-002    0.76090461015701294     
   6.1200000000000004E-002    0.61300003528594971     
   6.1500000000000013E-002    0.43036893010139465     
   6.1800000000000008E-002    0.21595366299152374     
   6.2100000000000002E-002    -2.4901714175939560E-002
   6.2399999999999997E-002   -0.28500100970268250     
   6.2700000000000006E-002   -0.55533558130264282     
   6.3000000000000000E-002   -0.82571274042129517     
   6.3300000000000009E-002    -1.0854383707046509     
   6.3600000000000004E-002    -1.3237082958221436     
   6.3899999999999998E-002    -1.5305339097976685     
   6.4199999999999993E-002    -1.6971763372421265     
   6.4500000000000002E-002    -1.8165225982666016     
   6.4800000000000010E-002    -1.8836636543273926     
   6.5100000000000005E-002    -1.8957864046096802     
   6.5400000000000000E-002    -1.8523672819137573     
   6.5700000000000008E-002    -1.7550220489501953     
   6.5999999999999989E-002    -1.6071368455886841     
   6.6299999999999998E-002    -1.4137214422225952     
   6.6600000000000006E-002    -1.1809108257293701     
   6.6900000000000001E-002   -0.91570985317230225     
   6.7199999999999996E-002   -0.62559503316879272     
   6.7500000000000004E-002   -0.31833076477050781     
   6.7800000000000013E-002    -1.6154516488313675E-003
   6.8099999999999994E-002    0.31699019670486450     
   6.8400000000000002E-002    0.63019257783889771     
   6.8700000000000011E-002    0.93116241693496704     
   6.8999999999999992E-002     1.2135512828826904     
   6.9300000000000000E-002     1.4715762138366699     
   6.9600000000000009E-002     1.7001634836196899     
   6.9900000000000004E-002     1.8949637413024902     
   7.0199999999999999E-002     2.0524129867553711     
   7.0500000000000007E-002     2.1697967052459717     
   7.0800000000000016E-002     2.2450640201568604     
   7.1099999999999997E-002     2.2770123481750488     
   7.1400000000000005E-002     2.2649447917938232     
   7.1700000000000000E-002     2.2086126804351807     
   7.1999999999999995E-002     2.1081078052520752     
   7.2300000000000003E-002     1.9635380506515503     
   7.2600000000000012E-002     1.7752679586410522     
   7.2900000000000006E-002     1.5436400175094604     
   7.3200000000000001E-002     1.2694077491760254     
   7.3499999999999996E-002    0.95397621393203735     
   7.3800000000000004E-002    0.59964597225189209     
   7.4099999999999999E-002    0.21037162840366364     
   7.4400000000000008E-002   -0.20804055035114288     
   7.4700000000000003E-002   -0.64736771583557129     
   7.5000000000000011E-002    -1.0968625545501709     
   7.5299999999999992E-002    -1.5432533025741577     
   7.5600000000000001E-002    -1.9711059331893921     
   7.5900000000000009E-002    -2.3636481761932373     
   7.6200000000000004E-002    -2.7034082412719727     
   7.6499999999999999E-002    -2.9737381935119629     
   7.6800000000000007E-002    -3.1599645614624023     
   7.7099999999999988E-002    -3.2506554126739502     
   7.7399999999999997E-002    -3.2389569282531738     
   7.7700000000000005E-002    -3.1231074333190918     
   7.8000000000000014E-002    -2.9070875644683838     
   7.8299999999999995E-002    -2.6005668640136719     
   7.8600000000000003E-002    -2.2179932594299316     
   7.8900000000000012E-002    -1.7779315710067749     
   7.9199999999999993E-002    -1.3013952970504761     
   7.9500000000000001E-002   -0.81024771928787231     
   7.9800000000000010E-002   -0.32564306259155273     
   8.0100000000000018E-002    0.13388176262378693     
   8.0399999999999999E-002    0.55324250459671021     
   8.0700000000000008E-002    0.92203396558761597     
   8.1000000000000003E-002     1.2346649169921875     
   8.1299999999999997E-002     1.4899612665176392     
   8.1600000000000006E-002     1.6909540891647339     
   8.1900000000000014E-002     1.8430641889572144     
   8.2199999999999995E-002     1.9533017873764038     
   8.2500000000000004E-002     2.0285906791687012     
   8.2799999999999999E-002     2.0742793083190918     
   8.3100000000000007E-002     2.0936524868011475     
   8.3400000000000002E-002     2.0866513252258301     
   8.3700000000000011E-002     2.0503005981445312     
   8.4000000000000005E-002     1.9791071414947510     
   8.4300000000000000E-002     1.8655713796615601     
   8.4599999999999995E-002     1.7021116018295288     
   8.4900000000000003E-002     1.4820423126220703     
   8.5199999999999998E-002     1.2013041973114014     
   8.5500000000000007E-002    0.85992491245269775     
   8.5800000000000001E-002    0.46254050731658936     
   8.6100000000000010E-002     1.9524520263075829E-002
   8.6399999999999991E-002   -0.45347237586975098     
   8.6699999999999999E-002   -0.93630558252334595     
   8.7000000000000008E-002    -1.4050770998001099     
   8.7300000000000003E-002    -1.8343483209609985     
   8.7599999999999997E-002    -2.1985759735107422     
   8.7900000000000006E-002    -2.4743168354034424     
   8.8200000000000014E-002    -2.6422843933105469     
   8.8499999999999995E-002    -2.6887781620025635     
   8.8800000000000004E-002    -2.6072082519531250     
   8.9100000000000013E-002    -2.3984496593475342     
   8.9399999999999993E-002    -2.0711088180541992     
   8.9700000000000002E-002    -1.6410964727401733     
   9.0000000000000011E-002    -1.1301352977752686     
   9.0299999999999991E-002   -0.56477445363998413     
   9.0600000000000000E-002     2.5812784209847450E-002
   9.0900000000000009E-002    0.61189532279968262     
   9.1200000000000017E-002     1.1648370027542114     
   9.1499999999999998E-002     1.6593143939971924     
   9.1800000000000007E-002     2.0747249126434326     
   9.2100000000000001E-002     2.3959529399871826     
   9.2399999999999996E-002     2.6142191886901855     
   9.2700000000000005E-002     2.7270159721374512     
   9.3000000000000013E-002     2.7374210357666016     
   9.3300000000000008E-002     2.6533513069152832     
   9.3600000000000003E-002     2.4862480163574219     
   9.3899999999999997E-002     2.2498428821563721     
   9.4200000000000006E-002     1.9585617780685425     
   9.4500000000000001E-002     1.6261911392211914     
   9.4800000000000009E-002     1.2655823230743408     
   9.5100000000000004E-002    0.88726711273193359     
   9.5399999999999999E-002    0.49999696016311646     
   9.5699999999999993E-002    0.11087362468242645     
   9.6000000000000002E-002   -0.27429994940757751     
   9.6300000000000011E-002   -0.64954072237014771     
   9.6600000000000005E-002    -1.0085418224334717     
   9.6900000000000000E-002    -1.3434748649597168     
   9.7200000000000009E-002    -1.6444360017776489     
   9.7499999999999989E-002    -1.9002275466918945     
   9.7799999999999998E-002    -2.0979354381561279     
   9.8100000000000007E-002    -2.2244827747344971     
   9.8400000000000015E-002    -2.2679104804992676     
   9.8699999999999996E-002    -2.2187922000885010     
   9.9000000000000005E-002    -2.0723321437835693     
   9.9300000000000013E-002    -1.8292464017868042     
   9.9599999999999994E-002    -1.4973874092102051     
   9.9900000000000003E-002    -1.0918542146682739     
  0.10020000000000001        -0.63422966003417969     
  0.10049999999999999        -0.15214444696903229     
  0.10080000000000000         0.32327505946159363     
  0.10110000000000001         0.75983250141143799     
  0.10140000000000000          1.1265696287155151     
  0.10170000000000000          1.3975086212158203     
  0.10200000000000001          1.5534900426864624     
  0.10230000000000002          1.5843312740325928     
  0.10260000000000000          1.4905296564102173     
  0.10290000000000001          1.2821407318115234     
  0.10320000000000000         0.97878122329711914     
  0.10350000000000001         0.60727471113204956     
  0.10380000000000000         0.19848226010799408     
  0.10410000000000001        -0.21477518975734711     
  0.10440000000000001        -0.60230952501296997     
  0.10470000000000000        -0.93872344493865967     
  0.10500000000000000         -1.2056316137313843     
  0.10530000000000000         -1.3939568996429443     
  0.10560000000000000         -1.5027396678924561     
  0.10590000000000001         -1.5395908355712891     
  0.10620000000000000         -1.5182640552520752     
  0.10650000000000001         -1.4558236598968506     
  0.10679999999999999         -1.3707410097122192     
  0.10710000000000000         -1.2786738872528076     
  0.10740000000000001         -1.1912316083908081     
  0.10770000000000000         -1.1137720346450806     
  0.10800000000000000         -1.0441539287567139     
  0.10830000000000001        -0.97452384233474731     
  0.10859999999999999        -0.89142465591430664     
  0.10890000000000000        -0.77852475643157959     
  0.10920000000000001        -0.61996978521347046     
  0.10950000000000001        -0.40173020958900452     
  0.10979999999999999        -0.11576140671968460     
  0.11009999999999999         0.23888602852821350     
  0.11040000000000001         0.65490967035293579     
  0.11070000000000001          1.1162618398666382     
  0.11100000000000000          1.5997098684310913     
  0.11130000000000000          2.0761930942535400     
  0.11160000000000002          2.5137531757354736     
  0.11190000000000001          2.8807663917541504     
  0.11220000000000001          3.1483418941497803     
  0.11250000000000000          3.2933378219604492     
  0.11280000000000000          3.3006772994995117     
  0.11309999999999999          3.1640520095825195     
  0.11340000000000001          2.8871574401855469     
  0.11369999999999998          2.4823126792907715     
  0.11400000000000000          1.9696006774902344     
  0.11430000000000000          1.3754820823669434     
  0.11460000000000002         0.72947478294372559     
  0.11489999999999999          6.3138976693153381E-002
  0.11520000000000001        -0.59281790256500244     
  0.11550000000000001         -1.2098789215087891     
  0.11580000000000000         -1.7627757787704468     
  0.11609999999999999         -2.2311258316040039     
  0.11640000000000002         -2.5984132289886475     
  0.11670000000000001         -2.8527944087982178     
  0.11700000000000001         -2.9866654872894287     
  0.11730000000000000         -2.9954631328582764     
  0.11760000000000000         -2.8786618709564209     
  0.11789999999999999         -2.6382870674133301     
  0.11820000000000001         -2.2795855998992920     
  0.11850000000000001         -1.8118371963500977     
  0.11880000000000000         -1.2477025985717773     
  0.11910000000000000        -0.60464608669281006     
  0.11940000000000002          9.4819709658622742E-002
  0.11970000000000001         0.82343214750289917     
  0.12000000000000001          1.5489380359649658     
  0.12030000000000000          2.2355358600616455     
  0.12060000000000000          2.8450703620910645     
  0.12089999999999999          3.3393831253051758     
  0.12119999999999999          3.6830518245697021     
  0.12150000000000001          3.8458511829376221     
  0.12180000000000001          3.8063883781433105     
  0.12210000000000000          3.5543775558471680     
  0.12239999999999999          3.0924277305603027     
  0.12270000000000002          2.4377927780151367     
  0.12300000000000001          1.6216551065444946     
  0.12330000000000001         0.68801707029342651     
  0.12360000000000000        -0.30842146277427673     
  0.12390000000000000         -1.3062258958816528     
  0.12419999999999999         -2.2418320178985596     
  0.12450000000000001         -3.0538928508758545     
  0.12480000000000001         -3.6888339519500732     
  0.12509999999999999         -4.1047439575195312     
  0.12540000000000001         -4.2752728462219238     
  0.12570000000000003         -4.1918587684631348     
  0.12600000000000000         -3.8642604351043701     
  0.12630000000000002         -3.3209156990051270     
  0.12659999999999999         -2.6051659584045410     
  0.12690000000000001         -1.7731397151947021     
  0.12719999999999998        -0.88854885101318359     
  0.12750000000000000         -1.6795407980680466E-002
  0.12780000000000002         0.77839016914367676     
  0.12809999999999999          1.4420312643051147     
  0.12840000000000001          1.9305074214935303     
  0.12869999999999998          2.2147831916809082     
  0.12900000000000000          2.2835087776184082     
  0.12930000000000003          2.1410353183746338     
  0.12959999999999999          1.8081727027893066     
  0.12990000000000002          1.3191713094711304     
  0.13019999999999998         0.71764349937438965     
  0.13050000000000000          5.4495289921760559E-002
  0.13080000000000003        -0.61861854791641235     
  0.13109999999999999         -1.2515063285827637     
  0.13140000000000002         -1.7996103763580322     
  0.13169999999999998         -2.2281847000122070     
  0.13200000000000001         -2.5115680694580078     
  0.13229999999999997         -2.6370534896850586     
  0.13260000000000000         -2.6029684543609619     
  0.13290000000000002         -2.4178967475891113     
  0.13319999999999999         -2.1001725196838379     
  0.13350000000000001         -1.6733760833740234     
  0.13380000000000003         -1.1661907434463501     
  0.13410000000000000        -0.60842722654342651     
  0.13440000000000002         -2.8401188552379608E-002
  0.13469999999999999         0.54725998640060425     
  0.13500000000000001          1.0971095561981201     
  0.13529999999999998          1.6039587259292603     
  0.13560000000000000          2.0555958747863770     
  0.13590000000000002          2.4448993206024170     
  0.13619999999999999          2.7678043842315674     
  0.13650000000000001          3.0238671302795410     
  0.13680000000000003          3.2137799263000488     
  0.13710000000000000          3.3389267921447754     
  0.13740000000000002          3.4012331962585449     
  0.13769999999999999          3.4010775089263916     
  0.13800000000000001          3.3388121128082275     
  0.13829999999999998          3.2140541076660156     
  0.13860000000000000          3.0259664058685303     
  0.13890000000000002          2.7746310234069824     
  0.13919999999999999          2.4609510898590088     
  0.13950000000000001          2.0880737304687500     
  0.13979999999999998          1.6617321968078613     
  0.14010000000000000          1.1905577182769775     
  0.14040000000000002         0.68652683496475220     
  0.14069999999999999         0.16473956406116486     
  0.14100000000000001        -0.35712158679962158     
  0.14130000000000004        -0.85936486721038818     
  0.14160000000000000         -1.3221720457077026     
  0.14189999999999997         -1.7260385751724243     
  0.14219999999999999         -2.0536978244781494     
  0.14250000000000002         -2.2926743030548096     
  0.14279999999999998         -2.4347522258758545     
  0.14310000000000000         -2.4790081977844238     
  0.14339999999999997         -2.4316124916076660     
  0.14369999999999999         -2.3055713176727295     
  0.14400000000000002         -2.1213457584381104     
  0.14429999999999998         -1.9037634134292603     
  0.14460000000000001         -1.6814811229705811     
  0.14490000000000003         -1.4837518930435181     
  0.14520000000000000         -1.3372783660888672     
  0.14550000000000002         -1.2645637989044189     
  0.14579999999999999         -1.2796990871429443     
  0.14610000000000001         -1.3875871896743774     
  0.14640000000000003         -1.5827474594116211     
  0.14670000000000000         -1.8480635881423950     
  0.14699999999999996         -2.1577055454254150     
  0.14729999999999999         -2.4774308204650879     
  0.14760000000000001         -2.7680346965789795     
  0.14789999999999998         -2.9901919364929199     
  0.14820000000000000         -3.1054635047912598     