  -1.4999999999999999E-002     0.0000000000000000     
  -1.4700000000000000E-002     0.0000000000000000     
  -1.4400000000000000E-002     0.0000000000000000     
  -1.4100000000000000E-002     0.0000000000000000     
  -1.3800000000000000E-002     0.0000000000000000     
  -1.3500000000000000E-002     0.0000000000000000     
  -1.3200000000000000E-002     0.0000000000000000     
  -1.2899999999999998E-002     0.0000000000000000     
  -1.2600000000000000E-002     0.0000000000000000     
  -1.2299999999999998E-002     0.0000000000000000     
  -1.2000000000000000E-002     0.0000000000000000     
  -1.1699999999999999E-002     0.0000000000000000     
  -1.1399999999999999E-002     0.0000000000000000     
  -1.1099999999999999E-002     0.0000000000000000     
  -1.0799999999999999E-002     0.0000000000000000     
  -1.0499999999999999E-002     0.0000000000000000     
  -1.0199999999999999E-002     0.0000000000000000     
  -9.8999999999999991E-003     0.0000000000000000     
  -9.5999999999999992E-003     0.0000000000000000     
  -9.2999999999999992E-003     0.0000000000000000     
  -8.9999999999999993E-003     0.0000000000000000     
  -8.6999999999999994E-003     0.0000000000000000     
  -8.3999999999999995E-003     0.0000000000000000     
  -8.0999999999999996E-003     0.0000000000000000     
  -7.7999999999999988E-003     0.0000000000000000     
  -7.4999999999999997E-003     0.0000000000000000     
  -7.1999999999999998E-003     0.0000000000000000     
  -6.8999999999999981E-003     0.0000000000000000     
  -6.5999999999999982E-003     0.0000000000000000     
  -6.3000000000000000E-003     0.0000000000000000     
  -6.0000000000000001E-003     0.0000000000000000     
  -5.6999999999999985E-003     0.0000000000000000     
  -5.3999999999999986E-003     0.0000000000000000     
  -5.1000000000000004E-003     0.0000000000000000     
  -4.7999999999999987E-003     0.0000000000000000     
  -4.5000000000000005E-003     0.0000000000000000     
  -4.1999999999999989E-003     0.0000000000000000     
  -3.8999999999999990E-003     0.0000000000000000     
  -3.5999999999999990E-003     0.0000000000000000     
  -3.2999999999999991E-003     0.0000000000000000     
  -2.9999999999999992E-003     0.0000000000000000     
  -2.6999999999999993E-003     0.0000000000000000     
  -2.3999999999999994E-003     0.0000000000000000     
  -2.0999999999999977E-003     0.0000000000000000     
  -1.7999999999999995E-003     0.0000000000000000     
  -1.4999999999999979E-003     0.0000000000000000     
  -1.1999999999999997E-003     0.0000000000000000     
  -8.9999999999999976E-004     0.0000000000000000     
  -5.9999999999999810E-004     0.0000000000000000     
  -2.9999999999999992E-004     0.0000000000000000     
   0.0000000000000000          0.0000000000000000     
   3.0000000000000165E-004     0.0000000000000000     
   5.9999999999999984E-004     1.0135486695076578E-038
   9.0000000000000149E-004     7.8726478082567034E-038
   1.2000000000000031E-003    -2.0149277888650328E-036
   1.5000000000000013E-003     1.7605053602140311E-035
   1.8000000000000030E-003     1.6720451949008083E-035
   2.1000000000000012E-003    -1.8941310836491430E-034
   2.3999999999999994E-003     7.2580629668759555E-035
   2.7000000000000010E-003     1.3194120299532930E-033
   2.9999999999999992E-003    -3.0006993105221543E-033
   3.3000000000000008E-003    -1.3949095352072085E-033
   3.6000000000000025E-003     1.5027987868612411E-032
   3.9000000000000007E-003    -3.0064438053192583E-032
   4.2000000000000023E-003    -5.9528150558750747E-033
   4.5000000000000005E-003     2.4433925791999059E-031
   4.7999999999999987E-003    -5.5656147559670387E-031
   5.1000000000000004E-003    -5.7139476252281669E-031
   5.4000000000000020E-003     5.2399889808238345E-030
   5.7000000000000037E-003    -8.9077540636516419E-030
   5.9999999999999984E-003    -7.7945323447039387E-030
   6.3000000000000000E-003     6.7025509583095444E-029
   6.6000000000000017E-003    -1.4486077608751187E-028
   6.9000000000000034E-003     9.3668672882152951E-029
   7.2000000000000015E-003     3.8724821686211228E-028
   7.5000000000000032E-003    -1.5005910428322701E-027
   7.8000000000000014E-003     2.6714869653261494E-027
   8.0999999999999996E-003    -1.9915049893266239E-027
   8.4000000000000012E-003    -3.5612518130244331E-027
   8.7000000000000029E-003     1.8641397880352174E-026
   9.0000000000000011E-003    -5.1829005228785645E-026
   9.2999999999999992E-003     1.0723333929373582E-025
   9.6000000000000009E-003    -1.4710003868276682E-025
   9.8999999999999991E-003     1.2436011726587379E-025
   1.0200000000000001E-002    -6.4767161270610273E-025
   1.0500000000000002E-002     5.8193996780728714E-024
   1.0800000000000004E-002    -3.1038388346322766E-023
   1.1099999999999999E-002     1.1951113062985467E-022
   1.1400000000000000E-002    -3.7096766657425206E-022
   1.1700000000000002E-002     9.6187800714476427E-022
   1.2000000000000004E-002    -1.8610769187628216E-021
   1.2300000000000002E-002     5.6575025195668832E-024
   1.2600000000000000E-002     2.8707972181069618E-020
   1.2900000000000002E-002    -2.2170688732674480E-019
   1.3200000000000000E-002     1.2322920799239187E-018
   1.3500000000000002E-002    -5.7338188861082725E-018
   1.3800000000000003E-002     2.2977106135433271E-017
   1.4100000000000001E-002    -7.7242322861977725E-017
   1.4400000000000000E-002     1.9079270128819053E-016
   1.4700000000000001E-002    -1.0083614552892905E-016
   1.4999999999999999E-002    -2.5554406617425001E-015
   1.5300000000000001E-002     2.0537998124933606E-014
   1.5600000000000003E-002    -1.0516652900736257E-013
   1.5899999999999997E-002     4.0748683165192890E-013
   1.6199999999999999E-002    -1.1799594506251048E-012
   1.6500000000000001E-002     2.1267476125388624E-012
   1.6800000000000002E-002     4.6450135726386702E-013
   1.7100000000000004E-002    -1.8947386724652920E-011
   1.7400000000000006E-002     6.7284305826820785E-011
   1.7700000000000000E-002    -9.5651384470159015E-011
   1.8000000000000002E-002    -1.3064500151757183E-010
   1.8300000000000004E-002     8.3821438425932153E-010
   1.8600000000000005E-002    -1.0118015363111285E-009
   1.8900000000000000E-002    -2.2644456862806117E-009
   1.9200000000000002E-002     7.0147514939269711E-009
   1.9500000000000003E-002     3.1232433290598615E-009
   1.9799999999999998E-002    -2.8712543371484944E-008
   2.0100000000000000E-002    -9.8551474998073896E-009
   2.0400000000000001E-002     8.6685344209617509E-008
   2.0700000000000003E-002     5.6574888523849623E-008
   2.0999999999999998E-002    -2.0747672560281840E-007
   2.1299999999999999E-002    -2.4854634247836525E-007
   2.1600000000000001E-002     5.4324274772050433E-007
   2.1900000000000003E-002     1.9822046194942702E-006
   2.2200000000000004E-002     3.2469147701711000E-006
   2.2500000000000006E-002     4.3035582809612986E-006
   2.2800000000000001E-002     6.4254867942933587E-006
   2.3100000000000002E-002     1.0816456198690396E-005
   2.3400000000000004E-002     1.7567098911310799E-005
   2.3699999999999999E-002     2.6744830362085935E-005
   2.4000000000000000E-002     3.9989076492106309E-005
   2.4300000000000002E-002     6.0336761027313893E-005
   2.4599999999999997E-002     9.0956561220154660E-005
   2.4900000000000005E-002     1.3519894561304837E-004
   2.5200000000000000E-002     1.9804351136986156E-004
   2.5499999999999995E-002     2.8652479966458956E-004
   2.5800000000000003E-002     4.0870263143765601E-004
   2.6099999999999998E-002     5.7371955520570464E-004
   2.6400000000000007E-002     7.9362557829195518E-004
   2.6700000000000002E-002     1.0839396798382334E-003
   2.6999999999999996E-002     1.4615114624939168E-003
   2.7300000000000005E-002     1.9428394813747613E-003
   2.7600000000000000E-002     2.5452872414239019E-003
   2.7900000000000008E-002     3.2885734830958580E-003
   2.8200000000000003E-002     4.1931230423617460E-003
   2.8499999999999998E-002     5.2768046847908590E-003
   2.8800000000000006E-002     6.5539518197733626E-003
   2.9100000000000001E-002     8.0363800780229866E-003
   2.9400000000000003E-002     9.7324977244994670E-003
   2.9700000000000004E-002     1.1646253318967070E-002
   3.0000000000000006E-002     1.3778490312059410E-002
   3.0300000000000001E-002     1.6131147167857574E-002
   3.0600000000000002E-002     1.8711109080339572E-002
   3.0900000000000004E-002     2.1530319491532501E-002
   3.1199999999999999E-002     2.4609883788641485E-002
   3.1500000000000007E-002     2.7989054877121111E-002
   3.1800000000000002E-002     3.1729770470671603E-002
   3.2099999999999997E-002     3.5913927380636146E-002
   3.2400000000000005E-002     4.0637159399206757E-002
   3.2700000000000000E-002     4.6005207696569572E-002
   3.3000000000000002E-002     5.2126950015669582E-002
   3.3300000000000003E-002     5.9094019679069909E-002
   3.3599999999999998E-002     6.6955243426865874E-002
   3.3900000000000000E-002     7.5697208942119065E-002
   3.4200000000000001E-002     8.5223349571094786E-002
   3.4500000000000003E-002     9.5328537479339115E-002
   3.4799999999999998E-002    0.10568517551396939     
   3.5099999999999999E-002    0.11584477178548003     
   3.5400000000000001E-002    0.12524979857433305     
   3.5699999999999996E-002    0.13325093924536180     
   3.6000000000000004E-002    0.13915262375252269     
   3.6299999999999999E-002    0.14227495745711227     
   3.6600000000000008E-002    0.14201419221696909     
   3.6900000000000002E-002    0.13790028832067502     
   3.7199999999999997E-002    0.12965162238316941     
   3.7500000000000006E-002    0.11721878166499256     
   3.7800000000000000E-002    0.10082542035346886     
   3.8100000000000009E-002     8.0928074821186469E-002
   3.8400000000000004E-002     5.8165146334217543E-002
   3.8699999999999998E-002     3.3295096450642603E-002
   3.9000000000000007E-002     7.0975677259606518E-003
   3.9300000000000002E-002    -1.9720126961276452E-002
   3.9600000000000003E-002    -4.6646009652387743E-002
   3.9900000000000005E-002    -7.3494073940876703E-002
   4.0200000000000000E-002   -0.10042753381697089     
   4.0500000000000001E-002   -0.12797148485942111     
   4.0800000000000003E-002   -0.15703137356592567     
   4.1100000000000005E-002   -0.18879129147915030     
   4.1399999999999999E-002   -0.22458593895052559     
   4.1700000000000008E-002   -0.26574832213998612     
   4.2000000000000003E-002   -0.31342408691913803     
   4.2299999999999997E-002   -0.36841526683789994     
   4.2600000000000006E-002   -0.43096716985454542     
   4.2900000000000001E-002   -0.50063655919954364     
   4.3200000000000002E-002   -0.57619920240421507     
   4.3500000000000004E-002   -0.65559292346796738     
   4.3799999999999999E-002   -0.73593159888681470     
   4.4100000000000000E-002   -0.81355145662631756     
   4.4400000000000002E-002   -0.88411752791377296     
   4.4700000000000004E-002   -0.94275948049201830     
   4.4999999999999998E-002   -0.98430304715777339     
   4.5300000000000000E-002    -1.0034986841240183     
   4.5600000000000002E-002   -0.99525958665269343     
   4.5899999999999996E-002   -0.95497180553104144     
   4.6200000000000005E-002   -0.87879571255669831     
   4.6500000000000000E-002   -0.76402726952561650     
   4.6799999999999994E-002   -0.60933009889581058     
   4.7100000000000003E-002   -0.41508159300804515     
   4.7399999999999998E-002   -0.18367984456363384     
   4.7700000000000006E-002     8.0373509399011889E-002
   4.8000000000000001E-002    0.37041226845346031     
   4.8300000000000010E-002    0.67761658462578467     
   4.8600000000000004E-002    0.99125317408876157     
   4.8899999999999999E-002     1.2990762353671244     
   4.9200000000000008E-002     1.5878526771873567     
   4.9500000000000002E-002     1.8440578402337309     
   4.9800000000000011E-002     2.0546213272878333     
   5.0100000000000006E-002     2.2078444619469479     
   5.0400000000000000E-002     2.2941743456839845     
   5.0700000000000009E-002     2.3069047394766216     
   5.1000000000000004E-002     2.2428784430859423     
   5.1299999999999998E-002     2.1028193369711516     
   5.1600000000000007E-002     1.8915318912402057     
   5.1900000000000002E-002     1.6177344955235853     
   5.2200000000000010E-002     1.2936862084925416     
   5.2500000000000005E-002    0.93447125641051976     
   5.2800000000000000E-002    0.55709839898823144     
   5.3099999999999994E-002    0.17941124912679651     
   5.3400000000000003E-002   -0.18097662849640272     
   5.3699999999999998E-002   -0.50798674243506525     
   5.4000000000000006E-002   -0.78797991322532113     
   5.4300000000000001E-002    -1.0107098961588044     
   5.4599999999999996E-002    -1.1701001306322354     
   5.4900000000000004E-002    -1.2644486780053299     
   5.5199999999999999E-002    -1.2963714777081208     
   5.5499999999999994E-002    -1.2727057053482582     
   5.5800000000000002E-002    -1.2038488298123156     
   5.6099999999999997E-002    -1.1027605203635957     
   5.6400000000000006E-002   -0.98399040060258258     
   5.6700000000000000E-002   -0.86235748614518926     
   5.6999999999999995E-002   -0.75182698701583561     
   5.7300000000000004E-002   -0.66428095160933154     
   5.7599999999999998E-002   -0.60852002501262348     
   5.7900000000000007E-002   -0.58953334109865452     
   5.8200000000000002E-002   -0.60813707032734499     
   5.8499999999999996E-002   -0.66078768778601216     
   5.8800000000000005E-002   -0.74010079145029906     
   5.9100000000000000E-002   -0.83541324982191156     
   5.9400000000000008E-002   -0.93391661021198757     
   5.9700000000000003E-002    -1.0219919483416149     
   6.0000000000000012E-002    -1.0864096605488953     
   6.0300000000000006E-002    -1.1158323472986069     
   6.0600000000000001E-002    -1.1020848255153943     
   6.0900000000000010E-002    -1.0409933005140175     
   6.1200000000000004E-002   -0.93315762387586076     
   6.1500000000000013E-002   -0.78381950747981577     
   6.1800000000000008E-002   -0.60249896983343021     
   6.2100000000000002E-002   -0.40233941661958550     
   6.2399999999999997E-002   -0.19859415645314460     
   6.2700000000000006E-002    -7.2306107476267645E-003
   6.3000000000000000E-002    0.15676933438153728     
   6.3300000000000009E-002    0.28097057011605742     
   6.3600000000000004E-002    0.35669917314387334     
   6.3899999999999998E-002    0.38012026331603188     
   6.4199999999999993E-002    0.35291985015469862     
   6.4500000000000002E-002    0.28183299788136784     
   6.4800000000000010E-002    0.17815445698705157     
   6.5100000000000005E-002     5.6893512746842401E-002
   6.5400000000000000E-002    -6.4903843574604547E-002
   6.5700000000000008E-002   -0.16951499440732398     
   6.5999999999999989E-002   -0.24026951459202506     
   6.6299999999999998E-002   -0.26307149281822773     
   6.6600000000000006E-002   -0.22722530467133772     
   6.6900000000000001E-002   -0.12655574656687474     
   6.7199999999999996E-002     4.0229132927442346E-002
   6.7500000000000004E-002    0.26980688952862053     
   6.7800000000000013E-002    0.55443761084909582     
   6.8099999999999994E-002    0.88259084000182852     
   6.8400000000000002E-002     1.2396515172327938     
   6.8700000000000011E-002     1.6088802672956604     
   6.8999999999999992E-002     1.9724503583423640     
   6.9300000000000000E-002     2.3120948266430190     
   6.9600000000000009E-002     2.6097192007231911     
   6.9900000000000004E-002     2.8483368743623174     
   7.0199999999999999E-002     3.0129538125337945     
   7.0500000000000007E-002     3.0911274340018764     
   7.0800000000000016E-002     3.0736022936321206     
   7.1099999999999997E-002     2.9549099098741038     
   7.1400000000000005E-002     2.7342355351199501     
   7.1700000000000000E-002     2.4162799375823028     
   7.1999999999999995E-002     2.0110711870717672     
   7.2300000000000003E-002     1.5338431040184712     
   7.2600000000000012E-002     1.0049992488379349     
   7.2900000000000006E-002    0.44940631848971435     
   7.3200000000000001E-002   -0.10508633874463102     
   7.3499999999999996E-002   -0.62967996558438522     
   7.3800000000000004E-002    -1.0963068257293997     
   7.4099999999999999E-002    -1.4795920908520799     
   7.4400000000000008E-002    -1.7591849582653794     
   7.4700000000000003E-002    -1.9219501520706146     
   7.5000000000000011E-002    -1.9631112952158958     
   7.5299999999999992E-002    -1.8867536390224657     
   7.5600000000000001E-002    -1.7061203050467668     
   7.5900000000000009E-002    -1.4430561344935882     
   7.6200000000000004E-002    -1.1263229095034077     
   7.6499999999999999E-002   -0.78898923169270496     
   7.6800000000000007E-002   -0.46567346885542094     
   7.7099999999999988E-002   -0.19044333279068559     
   7.7399999999999997E-002     6.8792568496354178E-003
   7.7700000000000005E-002    0.10358907357728198     
   7.8000000000000014E-002     8.5642327129694884E-002
   7.8299999999999995E-002    -5.0823367265746322E-002
   7.8600000000000003E-002   -0.29910578254729625     
   7.8900000000000012E-002   -0.64242975338430952     
   7.9199999999999993E-002    -1.0553278805286794     
   7.9500000000000001E-002    -1.5060340517257416     
   7.9800000000000010E-002    -1.9588247120828655     
   8.0100000000000018E-002    -2.3774378544880932     
   8.0399999999999999E-002    -2.7279302436587756     
   8.0700000000000008E-002    -2.9811773575218297     
   8.1000000000000003E-002    -3.1150471786841507     
   8.1299999999999997E-002    -3.1161747883366360     
   8.1600000000000006E-002    -2.9805720813918128     
   8.1900000000000014E-002    -2.7135694930487446     
   8.2199999999999995E-002    -2.3289955739166572     
   8.2500000000000004E-002    -1.8476459427998044     
   8.2799999999999999E-002    -1.2961093780445032     
   8.3100000000000007E-002   -0.70449529319602178     
   8.3400000000000002E-002   -0.10370954472499960     
   8.3700000000000011E-002    0.47564647112747949     
   8.4000000000000005E-002     1.0050700582116541     
   8.4300000000000000E-002     1.4601100037380448     
   8.4599999999999995E-002     1.8212407340562180     
   8.4900000000000003E-002     2.0749572126121834     
   8.5199999999999998E-002     2.2134328623821347     
   8.5500000000000007E-002     2.2348197156281913     
   8.5800000000000001E-002     2.1440706559356073     
   8.6100000000000010E-002     1.9517987787402618     
   8.6399999999999991E-002     1.6730908819028869     
   8.6699999999999999E-002     1.3271019600411051     
   8.7000000000000008E-002    0.93613818455232156     
   8.7300000000000003E-002    0.52468545346889239     
   8.7599999999999997E-002    0.11706410446532800     
   8.7900000000000006E-002   -0.26366390961481212     
   8.8200000000000014E-002   -0.59607013218152360     
   8.8499999999999995E-002   -0.86228191883190419     
   8.8800000000000004E-002    -1.0493843850401419     
   8.9100000000000013E-002    -1.1492755516211801     
   8.9399999999999993E-002    -1.1588965458203475     
   8.9700000000000002E-002    -1.0805789753206625     
   9.0000000000000011E-002   -0.92138308752884868     
   9.0299999999999991E-002   -0.69226970796966114     
   9.0600000000000000E-002   -0.40703617663579550     
   9.0900000000000009E-002    -8.1500607981995543E-002
   9.1200000000000017E-002    0.26738465249133547     
   9.1499999999999998E-002    0.62347029556535105     
   9.1800000000000007E-002    0.97112679307501537     
   9.2100000000000001E-002     1.2958656656744765     
   9.2399999999999996E-002     1.5856414031582915     
   9.2700000000000005E-002     1.8299586059113579     
   9.3000000000000013E-002     2.0205710498849072     
   9.3300000000000008E-002     2.1517939928797318     
   9.3600000000000003E-002     2.2194851375222839     
   9.3899999999999997E-002     2.2220029912070203     
   9.4200000000000006E-002     2.1601037080223335     
   9.4500000000000001E-002     2.0367587116354144     
   9.4800000000000009E-002     1.8572945571568837     
   9.5100000000000004E-002     1.6290211029170152     
   9.5399999999999999E-002     1.3616773616663451     
   9.5699999999999993E-002     1.0667945488931707     
   9.6000000000000002E-002    0.75627548137620160     
   9.6300000000000011E-002    0.44261552783563940     
   9.6600000000000005E-002    0.13845526859662183     
   9.6900000000000000E-002   -0.14519852628986518     
   9.7200000000000009E-002   -0.39932484785631139     
   9.7499999999999989E-002   -0.61705983217596838     
   9.7799999999999998E-002   -0.79378174069399776     
   9.8100000000000007E-002   -0.92712229161494619     
   9.8400000000000015E-002    -1.0173535249780983     
   9.8699999999999996E-002    -1.0663658450695479     
   9.9000000000000005E-002    -1.0761986035216040     
   9.9300000000000013E-002    -1.0498848813733588     
   9.9599999999999994E-002   -0.99050820485156521     
   9.9900000000000003E-002   -0.90075410668233857     
  0.10020000000000001        -0.78328864307963109     
  0.10049999999999999        -0.64035125529086212     
  0.10080000000000000        -0.47533076052499368     
  0.10110000000000001        -0.29313493957333669     
  0.10140000000000000         -9.9868513217955979E-002
  0.10170000000000000          9.5572186722658714E-002
  0.10200000000000001         0.28181732785472668     
  0.10230000000000002         0.44583717096600672     
  0.10260000000000000         0.57238517546633005     
  0.10290000000000001         0.64675072260785438     
  0.10320000000000000         0.65519912896101928     
  0.10350000000000001         0.58656208147487021     
  0.10380000000000000         0.43418245594450511     
  0.10410000000000001         0.19660549436230745     
  0.10440000000000001        -0.12073620561702669     
  0.10470000000000000        -0.50554467616294474     
  0.10500000000000000        -0.94042403558130161     
  0.10530000000000000         -1.4026385344347361     
  0.10560000000000000         -1.8656575168074738     
  0.10590000000000001         -2.3020936203984093     
  0.10620000000000000         -2.6858669446683621     
  0.10650000000000001         -2.9944083401068582     
  0.10679999999999999         -3.2102172329121714     
  0.10710000000000000         -3.3218525565139032     
  0.10740000000000001         -3.3258917082545167     
  0.10770000000000000         -3.2266830469347099     
  0.10800000000000000         -3.0341398005314772     
  0.10830000000000001         -2.7636627311062156     
  0.10859999999999999         -2.4342429345392560     
  0.10890000000000000         -2.0663723457761840     
  0.10920000000000001         -1.6796029466525084     
  0.10950000000000001         -1.2899905487773484     
  0.10979999999999999        -0.91040067194027330     
  0.11009999999999999        -0.54867145882942125     
  0.11040000000000001        -0.20589904454006813     
  0.11070000000000001         0.12119004943783018     
  0.11100000000000000         0.44011892525395080     
  0.11130000000000000         0.76173532713239922     
  0.11160000000000002          1.0981345042674562     
  0.11190000000000001          1.4609834469251908     
  0.11220000000000001          1.8592909217648028     
  0.11250000000000000          2.2977985403651928     
  0.11280000000000000          2.7766856645964850     
  0.11309999999999999          3.2898798638557736     
  0.11340000000000001          3.8240354105202385     
  0.11369999999999998          4.3605192917054580     
  0.11400000000000000          4.8758696798915651     
  0.11430000000000000          5.3424854886805804     
  0.11460000000000002          5.7307024636612880     
  0.11489999999999999          6.0112356705926402     
  0.11520000000000001          6.1576193549777258     
  0.11550000000000001          6.1473339858027316     
  0.11580000000000000          5.9632815796665994     
  0.11609999999999999          5.5975017076852822     
  0.11640000000000002          5.0502451073031871     
  0.11670000000000001          4.3296801115530315     
  0.11700000000000001          3.4528066971218081     
  0.11730000000000000          2.4444643509019102     
  0.11760000000000000          1.3355335534819019     
  0.11789999999999999         0.16039802764320399     
  0.11820000000000001         -1.0452079643645540     
  0.11850000000000001         -2.2446102521340734     
  0.11880000000000000         -3.4032172154196161     
  0.11910000000000000         -4.4908696571323503     
  0.11940000000000002         -5.4812260570291187     
  0.11970000000000001         -6.3523617211783971     
  0.12000000000000001         -7.0864390146775520     
  0.12030000000000000         -7.6689242522234053     
  0.12060000000000000         -8.0876443515852827     
  0.12089999999999999         -8.3308302330005404     
  0.12119999999999999         -8.3863538474251129     
  0.12150000000000001         -8.2423953581809997     
  0.12180000000000001         -7.8867496480375223     
  0.12210000000000000         -7.3079551354833967     
  0.12239999999999999         -6.4982607786161140     
  0.12270000000000002         -5.4556808314345560     
  0.12300000000000001         -4.1869522675388566     
  0.12330000000000001         -2.7106620050144272     
  0.12360000000000000         -1.0595032820393371     
  0.12390000000000000         0.71902777741155433     
  0.12419999999999999          2.5632000243842725     
  0.12450000000000001          4.3980193080234216     
  0.12480000000000001          6.1387882264039888     
  0.12509999999999999          7.6980778386776194     
  0.12540000000000001          8.9902866455844332     
  0.12570000000000003          9.9376869658640885     
  0.12600000000000000          10.479131708442821     
  0.12630000000000002          10.574482439274988     
  0.12659999999999999          10.207762203381492     
  0.12690000000000001          9.3902982572913771     
  0.12719999999999998          8.1603223359658603     
  0.12750000000000000          6.5795392512487894     
  0.12780000000000002          4.7286082624183763     
  0.12809999999999999          2.7010986315632550     
  0.12840000000000001         0.59725675837757564     
  0.12869999999999998         -1.4847343582568122     
  0.12900000000000000         -3.4548410294771799     
  0.12930000000000003         -5.2352521684665874     
  0.12959999999999999         -6.7649933361310843     
  0.12990000000000002         -8.0005675099908160     
  0.13019999999999998         -8.9156189353249715     
  0.13050000000000000         -9.5004959669132631     
  0.13080000000000003         -9.7572674625217815     
  0.13109999999999999         -9.6964428014717612     
  0.13140000000000002         -9.3361083222404773     
  0.13169999999999998         -8.6979399750620559     
  0.13200000000000001         -7.8045582403195439     
  0.13229999999999997         -6.6800780412005842     
  0.13260000000000000         -5.3515646991343431     
  0.13290000000000002         -3.8500900107474223     
  0.13319999999999999         -2.2114338740549897     
  0.13350000000000001        -0.47791453275006290     
  0.13380000000000003          1.2994614267682039     
  0.13410000000000000          3.0623496422277441     
  0.13440000000000002          4.7462361422651185     
  0.13469999999999999          6.2820562078022704     
  0.13500000000000001          7.6020444552870856     
  0.13529999999999998          8.6425801360023229     
  0.13560000000000000          9.3487495275811341     
  0.13590000000000002          9.6814466771058960     
  0.13619999999999999          9.6199640273823093     
  0.13650000000000001          9.1643547796657430     
  0.13680000000000003          8.3371852517776972     
  0.13710000000000000          7.1829988139525547     
  0.13740000000000002          5.7671263442599798     
  0.13769999999999999          4.1707791098184472     
  0.13800000000000001          2.4843386203228164     
  0.13829999999999998         0.80388373548966285     
  0.13860000000000000        -0.77603522176337414     
  0.13890000000000002         -2.1702567690157011     
  0.13919999999999999         -3.3077733130680684     
  0.13950000000000001         -4.1362704982854410     
  0.13979999999999998         -4.6258457274722247     
  0.14010000000000000         -4.7702871556873063     
  0.14040000000000002         -4.5870263186434208     
  0.14069999999999999         -4.1150811459713976     
  0.14100000000000001         -3.4120085962367241     
  0.14130000000000004         -2.5495827165093843     
  0.14160000000000000         -1.6064508730728022     
  0.14189999999999997        -0.66341321012002652     
  0.14219999999999999         0.20148915973312143     
  0.14250000000000002         0.92026544724544657     
  0.14279999999999998          1.4396891017671534     
  0.14310000000000000          1.7235512251296683     
  0.14339999999999997          1.7550178204770503     
  0.14369999999999999          1.5372571073418086     
  0.14400000000000002          1.0937551398631982     
  0.14429999999999998         0.46442062868042200     
  0.14460000000000001        -0.29823515774657849     
  0.14490000000000003         -1.1320745077511418     
  0.14520000000000000         -1.9710910843917802     
  0.14550000000000002         -2.7509032410927432     
  0.14579999999999999         -3.4125581551017348     
  0.14610000000000001         -3.9082383759026555     
  0.14640000000000003         -4.2042752634965979     
  0.14670000000000000         -4.2825755658228672     
  0.14699999999999996         -4.1424373326514186     
  0.14729999999999999         -3.7999132372527313     
  0.14760000000000001         -3.2861307219494247     
  0.14789999999999998         -2.6441254800586549     
  0.14820000000000000         -1.9240774030922978     