  -1.4999999999999999E-002     0.0000000000000000     
  -1.4700000000000000E-002     1.8268697250836425E-038
  -1.4400000000000000E-002     4.2842266473910990E-030
  -1.4100000000000000E-002     4.1608520831176755E-026
  -1.3800000000000000E-002     8.4672180158061945E-024
  -1.3500000000000000E-002    -5.5787364741725901E-022
  -1.3200000000000000E-002    -2.7121846724807291E-020
  -1.2899999999999998E-002     3.4844324144245663E-020
  -1.2600000000000000E-002     2.4485482913613335E-018
  -1.2299999999999998E-002     1.5691916073102985E-019
  -1.2000000000000000E-002    -5.6747779629579703E-017
  -1.1699999999999999E-002    -7.4740082918241127E-017
  -1.1399999999999999E-002     4.2343420555214810E-016
  -1.1099999999999999E-002     2.3352255781086120E-015
  -1.0799999999999999E-002     3.1663226592515067E-015
  -1.0499999999999999E-002    -5.1194407057770369E-014
  -1.0199999999999999E-002    -9.9428826988174485E-015
  -9.8999999999999991E-003     4.6422501259746340E-013
  -9.5999999999999992E-003    -5.7365261629457875E-013
  -9.2999999999999992E-003    -7.2195775833311382E-013
  -8.9999999999999993E-003     2.2722119324969370E-012
  -8.6999999999999994E-003    -5.4179954793454055E-012
  -8.3999999999999995E-003     9.2409543558935603E-012
  -8.0999999999999996E-003     7.7653994345894262E-012
  -7.7999999999999988E-003    -3.9191871969990189E-011
  -7.4999999999999997E-003     2.0866440519906604E-011
  -7.1999999999999998E-003     1.5118172339012581E-011
  -6.8999999999999981E-003     2.0465356839749482E-011
  -6.5999999999999982E-003    -1.3927053954532198E-011
  -6.3000000000000000E-003    -1.1953275869114321E-010
  -6.0000000000000001E-003     2.4908528017952847E-010
  -5.6999999999999985E-003    -1.2125925263894999E-010
  -5.3999999999999986E-003    -5.8714932915648888E-010
  -5.1000000000000004E-003     8.5451085096721613E-010
  -4.7999999999999987E-003     6.4298771862425497E-010
  -4.5000000000000005E-003    -1.5906346240157632E-009
  -4.1999999999999989E-003     9.4713570319981955E-011
  -3.8999999999999990E-003     1.7280620268067537E-009
  -3.5999999999999990E-003    -1.7772586735631535E-009
  -3.2999999999999991E-003    -2.5042388163143414E-009
  -2.9999999999999992E-003     2.4787354391264671E-009
  -2.6999999999999993E-003     1.0451867815675087E-008
  -2.3999999999999994E-003     2.9865421247166068E-009
  -2.0999999999999977E-003    -4.7134367520129672E-008
  -1.7999999999999995E-003    -1.5330673619473600E-008
  -1.4999999999999979E-003     1.9104361115296342E-007
  -1.1999999999999997E-003    -3.0443583654005124E-008
  -8.9999999999999976E-004    -6.3590039189875824E-007
  -5.9999999999999810E-004     3.9186943467939273E-007
  -2.9999999999999992E-004     1.7511488294985611E-006
   0.0000000000000000         -1.6380125771320309E-006
   3.0000000000000165E-004    -4.7214889491442591E-006
   5.9999999999999984E-004     4.5775050239171833E-006
   9.0000000000000149E-004     1.3236353879619855E-005
   1.2000000000000031E-003    -9.7994679890689440E-006
   1.5000000000000013E-003    -3.8441758078988642E-005
   1.8000000000000030E-003     1.5856756363064051E-005
   2.1000000000000012E-003     1.6781360318418592E-004
   2.3999999999999994E-003     3.1263031996786594E-004
   2.7000000000000010E-003     4.0587343391962349E-004
   2.9999999999999992E-003     5.6874332949519157E-004
   3.3000000000000008E-003     9.3019037740305066E-004
   3.6000000000000025E-003     1.5072484966367483E-003
   3.9000000000000007E-003     2.3218877613544464E-003
   4.2000000000000023E-003     3.5164093133062124E-003
   4.5000000000000005E-003     5.3067049011588097E-003
   4.7999999999999987E-003     7.9331742599606514E-003
   5.1000000000000004E-003     1.1712457053363323E-002
   5.4000000000000020E-003     1.7075587064027786E-002
   5.7000000000000037E-003     2.4532139301300049E-002
   5.9999999999999984E-003     3.4674867987632751E-002
   6.3000000000000000E-003     4.8271607607603073E-002
   6.6000000000000017E-003     6.6274084150791168E-002
   6.9000000000000034E-003     8.9655078947544098E-002
   7.2000000000000015E-003    0.11932142823934555     
   7.5000000000000032E-003    0.15619790554046631     
   7.8000000000000014E-003    0.20111542940139771     
   8.0999999999999996E-003    0.25445997714996338     
   8.4000000000000012E-003    0.31600493192672729     
   8.7000000000000029E-003    0.38487496972084045     
   9.0000000000000011E-003    0.45922094583511353     
   9.2999999999999992E-003    0.53575974702835083     
   9.6000000000000009E-003    0.60963976383209229     
   9.8999999999999991E-003    0.67451488971710205     
   1.0200000000000001E-002    0.72247338294982910     
   1.0500000000000002E-002    0.74396979808807373     
   1.0800000000000004E-002    0.72815775871276855     
   1.1099999999999999E-002    0.66355282068252563     
   1.1400000000000000E-002    0.53894805908203125     
   1.1700000000000002E-002    0.34443256258964539     
   1.2000000000000004E-002     7.2502635419368744E-002
   1.2300000000000002E-002   -0.28084728121757507     
   1.2600000000000000E-002   -0.71492582559585571     
   1.2900000000000002E-002    -1.2232018709182739     
   1.3200000000000000E-002    -1.7925308942794800     
   1.3500000000000002E-002    -2.4029772281646729     
   1.3800000000000003E-002    -3.0283100605010986     
   1.4100000000000001E-002    -3.6370406150817871     
   1.4400000000000000E-002    -4.1940655708312988     
   1.4700000000000001E-002    -4.6629319190979004     
   1.4999999999999999E-002    -5.0085048675537109     
   1.5300000000000001E-002    -5.1995744705200195     
   1.5600000000000003E-002    -5.2114691734313965     
   1.5899999999999997E-002    -5.0283403396606445     
   1.6199999999999999E-002    -4.6446514129638672     
   1.6500000000000001E-002    -4.0658960342407227     
   1.6800000000000002E-002    -3.3082466125488281     
   1.7100000000000004E-002    -2.3972353935241699     
   1.7400000000000006E-002    -1.3654289245605469     
   1.7700000000000000E-002   -0.24976256489753723     
   1.8000000000000002E-002    0.91141414642333984     
   1.8300000000000004E-002     2.0814375877380371     
   1.8600000000000005E-002     3.2278158664703369     
   1.8900000000000000E-002     4.3239526748657227     
   1.9200000000000002E-002     5.3500008583068848     
   1.9500000000000003E-002     6.2925066947937012     
   1.9799999999999998E-002     7.1434540748596191     
   2.0100000000000000E-002     7.8986482620239258     
   2.0400000000000001E-002     8.5552749633789062     
   2.0700000000000003E-002     9.1096744537353516     
   2.0999999999999998E-002     9.5555047988891602     
   2.1299999999999999E-002     9.8827514648437500     
   2.1600000000000001E-002     10.077072143554688     
   2.1900000000000003E-002     10.119690895080566     
   2.2200000000000004E-002     9.9889383316040039     
   2.2500000000000006E-002     9.6624059677124023     
   2.2800000000000001E-002     9.1189336776733398     
   2.3100000000000002E-002     8.3403062820434570     
   2.3400000000000004E-002     7.3139548301696777     
   2.3699999999999999E-002     6.0351505279541016     
   2.4000000000000000E-002     4.5084705352783203     
   2.4300000000000002E-002     2.7484962940216064     
   2.4599999999999997E-002    0.78040105104446411     
   2.4900000000000005E-002    -1.3592905998229980     
   2.5200000000000000E-002    -3.6223640441894531     
   2.5499999999999995E-002    -5.9495716094970703     
   2.5800000000000003E-002    -8.2715063095092773     
   2.6099999999999998E-002    -10.509532928466797     
   2.6400000000000007E-002    -12.577267646789551     
   2.6700000000000002E-002    -14.384134292602539     
   2.6999999999999996E-002    -15.839642524719238     
   2.7300000000000005E-002    -16.857509613037109     
   2.7600000000000000E-002    -17.362089157104492     
   2.7900000000000008E-002    -17.295770645141602     
   2.8200000000000003E-002    -16.625148773193359     
   2.8499999999999998E-002    -15.346397399902344     
   2.8800000000000006E-002    -13.490396499633789     
   2.9100000000000001E-002    -11.124718666076660     
   2.9400000000000003E-002    -8.3517856597900391     
   2.9700000000000004E-002    -5.3052349090576172     
   3.0000000000000006E-002    -2.1428380012512207     
   3.0300000000000001E-002    0.96446931362152100     
   3.0600000000000002E-002     3.8451626300811768     
   3.0900000000000004E-002     6.3391900062561035     
   3.1199999999999999E-002     8.3110828399658203     
   3.1500000000000007E-002     9.6614904403686523     
   3.1800000000000002E-002     10.334892272949219     
   3.2099999999999997E-002     10.324275970458984     
   3.2400000000000005E-002     9.6710634231567383     
   3.2700000000000000E-002     8.4610595703125000     
   3.3000000000000002E-002     6.8172321319580078     
   3.3300000000000003E-002     4.8882327079772949     
   3.3599999999999998E-002     2.8353445529937744     
   3.3900000000000000E-002    0.81937283277511597     
   3.4200000000000001E-002    -1.0120651721954346     
   3.4500000000000003E-002    -2.5357701778411865     
   3.4799999999999998E-002    -3.6614181995391846     
   3.5099999999999999E-002    -4.3359441757202148     
   3.5400000000000001E-002    -4.5437211990356445     
   3.5699999999999996E-002    -4.3036513328552246     
   3.6000000000000004E-002    -3.6635482311248779     
   3.6299999999999999E-002    -2.6909432411193848     
   3.6600000000000008E-002    -1.4626927375793457     
   3.6900000000000002E-002    -5.4404526948928833E-002
   3.7199999999999997E-002     1.4683444499969482     
   3.7500000000000006E-002     3.0561881065368652     
   3.7800000000000000E-002     4.6795625686645508     
   3.8100000000000009E-002     6.3277668952941895     
   3.8400000000000004E-002     8.0041656494140625     
   3.8699999999999998E-002     9.7177906036376953     
   3.9000000000000007E-002     11.472518920898438     
   3.9300000000000002E-002     13.255066871643066     
   3.9600000000000003E-002     15.024637222290039     
   3.9900000000000005E-002     16.705121994018555     
   4.0200000000000000E-002     18.181493759155273     
   4.0500000000000001E-002     19.301725387573242     
   4.0800000000000003E-002     19.886852264404297     
   4.1100000000000005E-002     19.745916366577148     
   4.1399999999999999E-002     18.695337295532227     
   4.1700000000000008E-002     16.582145690917969     
   4.2000000000000003E-002     13.307545661926270     
   4.2299999999999997E-002     8.8482036590576172     
   4.2600000000000006E-002     3.2727251052856445     
   4.2900000000000001E-002    -3.2516884803771973     
   4.3200000000000002E-002    -10.460583686828613     
   4.3500000000000004E-002    -18.001256942749023     
   4.3799999999999999E-002    -25.454999923706055     
   4.4100000000000000E-002    -32.367267608642578     
   4.4400000000000002E-002    -38.280864715576172     
   4.4700000000000004E-002    -42.770709991455078     
   4.4999999999999998E-002    -45.482078552246094     
   4.5300000000000000E-002    -46.163242340087891     
   4.5600000000000002E-002    -44.685207366943359     
   4.5899999999999996E-002    -41.055465698242188     
   4.6200000000000005E-002    -35.424484252929688     
   4.6500000000000000E-002    -28.074058532714844     
   4.6799999999999994E-002    -19.396024703979492     
   4.7100000000000003E-002    -9.8666400909423828     
   4.7399999999999998E-002    -1.2499123811721802E-002
   4.7700000000000006E-002     9.6303520202636719     
   4.8000000000000001E-002     18.553592681884766     
   4.8300000000000010E-002     26.307340621948242     
   4.8600000000000004E-002     32.532245635986328     
   4.8899999999999999E-002     36.980014801025391     
   4.9200000000000008E-002     39.523128509521484     
   4.9500000000000002E-002     40.155223846435547     
   4.9800000000000011E-002     38.984512329101562     
   5.0100000000000006E-002     36.218173980712891     
   5.0400000000000000E-002     32.139682769775391     
   5.0700000000000009E-002     27.082220077514648     
   5.1000000000000004E-002     21.402395248413086     
   5.1299999999999998E-002     15.453465461730957     
   5.1600000000000007E-002     9.5630483627319336     
   5.1900000000000002E-002     4.0145850181579590     
   5.2200000000000010E-002   -0.96619570255279541     
   5.2500000000000005E-002    -5.2174897193908691     
   5.2800000000000000E-002    -8.6420574188232422     
   5.3099999999999994E-002    -11.204606056213379     
   5.3400000000000003E-002    -12.923845291137695     
   5.3699999999999998E-002    -13.861280441284180     
   5.4000000000000006E-002    -14.110999107360840     
   5.4300000000000001E-002    -13.788406372070312     
   5.4599999999999996E-002    -13.018733978271484     
   5.4900000000000004E-002    -11.926810264587402     
   5.5199999999999999E-002    -10.630921363830566     
   5.5499999999999994E-002    -9.2374715805053711     
   5.5800000000000002E-002    -7.8352866172790527     
   5.6099999999999997E-002    -6.4946308135986328     
   5.6400000000000006E-002    -5.2666711807250977     
   5.6700000000000000E-002    -4.1834645271301270     
   5.6999999999999995E-002    -3.2598462104797363     
   5.7300000000000004E-002    -2.4961256980895996     
   5.7599999999999998E-002    -1.8802855014801025     
   5.7900000000000007E-002    -1.3922276496887207     
   5.8200000000000002E-002    -1.0072749853134155     
   5.8499999999999996E-002   -0.70030599832534790     
   5.8800000000000005E-002   -0.44810295104980469     
   5.9100000000000000E-002   -0.23224902153015137     
   5.9400000000000008E-002    -4.0902085602283478E-002
   5.9700000000000003E-002    0.13078053295612335     
   6.0000000000000012E-002    0.28236672282218933     
   6.0300000000000006E-002    0.40854892134666443     
   6.0600000000000001E-002    0.50234216451644897     
   6.0900000000000010E-002    0.55767577886581421     
   6.1200000000000004E-002    0.57177984714508057     
   6.1500000000000013E-002    0.54754894971847534     
   6.1800000000000008E-002    0.49357342720031738     
   6.2100000000000002E-002    0.42473915219306946     
   6.2399999999999997E-002    0.36042219400405884     
   6.2700000000000006E-002    0.32209700345993042     
   6.3000000000000000E-002    0.33124372363090515     
   6.3300000000000009E-002    0.40545356273651123     
   6.3600000000000004E-002    0.55586636066436768     
   6.3899999999999998E-002    0.78528511524200439     
   6.4199999999999993E-002     1.0876849889755249     
   6.4500000000000002E-002     1.4483692646026611     
   6.4800000000000010E-002     1.8452254533767700     
   6.5100000000000005E-002     2.2510499954223633     
   6.5400000000000000E-002     2.6361873149871826     
   6.5700000000000008E-002     2.9721374511718750     
   6.5999999999999989E-002     3.2338323593139648     
   6.6299999999999998E-002     3.4005553722381592     
   6.6600000000000006E-002     3.4590446949005127     
   6.6900000000000001E-002     3.4033527374267578     
   6.7199999999999996E-002     3.2344610691070557     
   6.7500000000000004E-002     2.9595265388488770     
   6.7800000000000013E-002     2.5904686450958252     
   6.8099999999999994E-002     2.1435465812683105     
   6.8400000000000002E-002     1.6381038427352905     
   6.8700000000000011E-002     1.0943793058395386     
   6.8999999999999992E-002    0.53309929370880127     
   6.9300000000000000E-002    -2.5187553837895393E-002
   6.9600000000000009E-002   -0.56063050031661987     
   6.9900000000000004E-002    -1.0553603172302246     
   7.0199999999999999E-002    -1.4953384399414062     
   7.0500000000000007E-002    -1.8682256937026978     
   7.0800000000000016E-002    -2.1653025150299072     
   7.1099999999999997E-002    -2.3836867809295654     
   7.1400000000000005E-002    -2.5230646133422852     
   7.1700000000000000E-002    -2.5862307548522949     
   7.1999999999999995E-002    -2.5798683166503906     
   7.2300000000000003E-002    -2.5121712684631348     
   7.2600000000000012E-002    -2.3911364078521729     
   7.2900000000000006E-002    -2.2235250473022461     
   7.3200000000000001E-002    -2.0154933929443359     
   7.3499999999999996E-002    -1.7702713012695312     
   7.3800000000000004E-002    -1.4881383180618286     
   7.4099999999999999E-002    -1.1694085597991943     
   7.4400000000000008E-002   -0.81403893232345581     
   7.4700000000000003E-002   -0.42274460196495056     
   7.5000000000000011E-002     1.9319355487823486E-004
   7.5299999999999992E-002    0.44533914327621460     
   7.5600000000000001E-002    0.89832317829132080     
   7.5900000000000009E-002     1.3394684791564941     
   7.6200000000000004E-002     1.7441267967224121     
   7.6499999999999999E-002     2.0851559638977051     
   7.6800000000000007E-002     2.3352725505828857     
   7.7099999999999988E-002     2.4698009490966797     
   7.7399999999999997E-002     2.4698517322540283     
   7.7700000000000005E-002     2.3243985176086426     
   7.8000000000000014E-002     2.0326735973358154     
   7.8299999999999995E-002     1.6051266193389893     
   7.8600000000000003E-002     1.0631660223007202     
   7.8900000000000012E-002    0.43769732117652893     
   7.9199999999999993E-002   -0.23388376832008362     
   7.9500000000000001E-002   -0.90955483913421631     
   7.9800000000000010E-002    -1.5468046665191650     
   8.0100000000000018E-002    -2.1062452793121338     
   8.0399999999999999E-002    -2.5541768074035645     
   8.0700000000000008E-002    -2.8652029037475586     
   8.1000000000000003E-002    -3.0240249633789062     
   8.1299999999999997E-002    -3.0255894660949707     
   8.1600000000000006E-002    -2.8757870197296143     
   8.1900000000000014E-002    -2.5891230106353760     
   8.2199999999999995E-002    -2.1866164207458496     
   8.2500000000000004E-002    -1.6952676773071289     
   8.2799999999999999E-002    -1.1446944475173950     
   8.3100000000000007E-002   -0.56482452154159546     
   8.3400000000000002E-002     1.5577439218759537E-002
   8.3700000000000011E-002    0.57024586200714111     
   8.4000000000000005E-002     1.0762526988983154     
   8.4300000000000000E-002     1.5152630805969238     
   8.4599999999999995E-002     1.8732239007949829     
   8.4900000000000003E-002     2.1396472454071045     
   8.5199999999999998E-002     2.3079984188079834     
   8.5500000000000007E-002     2.3753850460052490     
   8.5800000000000001E-002     2.3418183326721191     
   8.6100000000000010E-002     2.2109158039093018     
   8.6399999999999991E-002     1.9899303913116455     
   8.6699999999999999E-002     1.6887547969818115     
   8.7000000000000008E-002     1.3215399980545044     
   8.7300000000000003E-002    0.90653073787689209     
   8.7599999999999997E-002    0.46493485569953918     
   8.7900000000000006E-002     2.1229291334748268E-002
   8.8200000000000014E-002   -0.39895680546760559     
   8.8499999999999995E-002   -0.76895356178283691     
   8.8800000000000004E-002    -1.0639111995697021     
   8.9100000000000013E-002    -1.2635444402694702     
   8.9399999999999993E-002    -1.3524842262268066     
   8.9700000000000002E-002    -1.3239039182662964     
   9.0000000000000011E-002    -1.1802027225494385     
   9.0299999999999991E-002   -0.93325734138488770     
   9.0600000000000000E-002   -0.60468930006027222     
   9.0900000000000009E-002   -0.22359023988246918     
   9.1200000000000017E-002    0.17504799365997314     
   9.1499999999999998E-002    0.55392825603485107     
   9.1800000000000007E-002    0.87780433893203735     
   9.2100000000000001E-002     1.1161893606185913     
   9.2399999999999996E-002     1.2471489906311035     
   9.2700000000000005E-002     1.2599513530731201     
   9.3000000000000013E-002     1.1566745042800903     
   9.3300000000000008E-002    0.95132458209991455     
   9.3600000000000003E-002    0.66865849494934082     
   9.3899999999999997E-002    0.34180802106857300     
   9.4200000000000006E-002     7.5082201510667801E-003
   9.4500000000000001E-002   -0.29753831028938293     
   9.4800000000000009E-002   -0.54083818197250366     
   9.5100000000000004E-002   -0.69814127683639526     
   9.5399999999999999E-002   -0.75606405735015869     
   9.5699999999999993E-002   -0.71311247348785400     
   9.6000000000000002E-002   -0.57864534854888916     
   9.6300000000000011E-002   -0.37272080779075623     
   9.6600000000000005E-002   -0.12331829965114594     
   9.6900000000000000E-002    0.13933156430721283     
   9.7200000000000009E-002    0.38398233056068420     
   9.7499999999999989E-002    0.58194875717163086     
   9.7799999999999998E-002    0.71147292852401733     
   9.8100000000000007E-002    0.75760340690612793     
   9.8400000000000015E-002    0.71421921253204346     
   9.8699999999999996E-002    0.58330512046813965     
   9.9000000000000005E-002    0.37367585301399231     
   9.9300000000000013E-002    0.10024321824312210     
   9.9599999999999994E-002   -0.21961000561714172     
   9.9900000000000003E-002   -0.56523561477661133     
  0.10020000000000001        -0.91600841283798218     
  0.10049999999999999         -1.2532571554183960     
  0.10080000000000000         -1.5582345724105835     
  0.10110000000000001         -1.8146475553512573     
  0.10140000000000000         -2.0089845657348633     
  0.10170000000000000         -2.1301648616790771     
  0.10200000000000001         -2.1694984436035156     
  0.10230000000000002         -2.1205365657806396     
  0.10260000000000000         -1.9812425374984741     
  0.10290000000000001         -1.7531328201293945     
  0.10320000000000000         -1.4416077136993408     
  0.10350000000000001         -1.0569989681243896     
  0.10380000000000000        -0.61409014463424683     
  0.10410000000000001        -0.13196818530559540     
  0.10440000000000001         0.36760935187339783     
  0.10470000000000000         0.86010408401489258     
  0.10500000000000000          1.3204687833786011     
  0.10530000000000000          1.7251739501953125     
  0.10560000000000000          2.0527245998382568     
  0.10590000000000001          2.2864491939544678     
  0.10620000000000000          2.4145495891571045     
  0.10650000000000001          2.4313523769378662     
  0.10679999999999999          2.3382425308227539     
  0.10710000000000000          2.1421730518341064     
  0.10740000000000001          1.8561077117919922     
  0.10770000000000000          1.4983100891113281     
  0.10800000000000000          1.0901468992233276     
  0.10830000000000001         0.65596610307693481     
  0.10859999999999999         0.22084324061870575     
  0.10890000000000000        -0.19024512171745300     
  0.10920000000000001        -0.55420631170272827     
  0.10950000000000001        -0.85195249319076538     
  0.10979999999999999         -1.0675656795501709     
  0.11009999999999999         -1.1909152269363403     
  0.11040000000000001         -1.2188702821731567     
  0.11070000000000001         -1.1531882286071777     
  0.11100000000000000         -1.0020228624343872     
  0.11130000000000000        -0.77981603145599365     
  0.11160000000000002        -0.50514185428619385     
  0.11190000000000001        -0.19919727742671967     
  0.11220000000000001         0.11575369536876678     
  0.11250000000000000         0.41688767075538635     
  0.11280000000000000         0.68404483795166016     
  0.11309999999999999         0.90079438686370850     
  0.11340000000000001          1.0548127889633179     
  0.11369999999999998          1.1391155719757080     
  0.11400000000000000          1.1518325805664062     
  0.11430000000000000          1.0957798957824707     
  0.11460000000000002         0.97725838422775269     
  0.11489999999999999         0.80630236864089966     
  0.11520000000000001         0.59412747621536255     
  0.11550000000000001         0.35206356644630432     
  0.11580000000000000          9.2320345342159271E-002
  0.11609999999999999        -0.17412869632244110     
  0.11640000000000002        -0.43806022405624390     
  0.11670000000000001        -0.69128835201263428     
  0.11700000000000001        -0.92725104093551636     
  0.11730000000000000         -1.1402155160903931     
  0.11760000000000000         -1.3258843421936035     
  0.11789999999999999         -1.4805696010589600     
  0.11820000000000001         -1.6009986400604248     
  0.11850000000000001         -1.6852513551712036     
  0.11880000000000000         -1.7308709621429443     
  0.11910000000000000         -1.7358496189117432     
  0.11940000000000002         -1.6994811296463013     
  0.11970000000000001         -1.6212995052337646     
  0.12000000000000001         -1.5007935762405396     
  0.12030000000000000         -1.3382149934768677     
  0.12060000000000000         -1.1347457170486450     
  0.12089999999999999        -0.89327168464660645     
  0.12119999999999999        -0.61752927303314209     
  0.12150000000000001        -0.31221082806587219     
  0.12180000000000001          1.5309384092688560E-002
  0.12210000000000000         0.35578536987304688     
  0.12239999999999999         0.69802469015121460     
  0.12270000000000002          1.0294818878173828     
  0.12300000000000001          1.3364104032516479     
  0.12330000000000001          1.6047549247741699     
  0.12360000000000000          1.8210823535919189     
  0.12390000000000000          1.9741983413696289     
  0.12419999999999999          2.0561778545379639     
  0.12450000000000001          2.0629689693450928     
  0.12480000000000001          1.9945334196090698     
  0.12509999999999999          1.8553652763366699     
  0.12540000000000001          1.6550014019012451     
  0.12570000000000003          1.4069131612777710     
  0.12600000000000000          1.1255621910095215     
  0.12630000000000002         0.82697057723999023     
  0.12659999999999999         0.52753555774688721     
  0.12690000000000001         0.24137197434902191     
  0.12719999999999998         -1.9839368760585785E-002
  0.12750000000000000        -0.24795311689376831     
  0.12780000000000002        -0.43778669834136963     
  0.12809999999999999        -0.58752095699310303     
  0.12840000000000001        -0.69899082183837891     
  0.12869999999999998        -0.77537250518798828     
  0.12900000000000000        -0.82123816013336182     
  0.12930000000000003        -0.84158098697662354     
  0.12959999999999999        -0.84074795246124268     
  0.12990000000000002        -0.82267427444458008     
  0.13019999999999998        -0.79037982225418091     
  0.13050000000000000        -0.74517208337783813     
  0.13080000000000003        -0.68755114078521729     
  0.13109999999999999        -0.61685895919799805     
  0.13140000000000002        -0.53230464458465576     
  0.13169999999999998        -0.43344685435295105     
  0.13200000000000001        -0.31972765922546387     
  0.13229999999999997        -0.19146804511547089     
  0.13260000000000000         -5.1232524216175079E-002
  0.13290000000000002          9.7291685640811920E-002
  0.13319999999999999         0.24886116385459900     
  0.13350000000000001         0.39642822742462158     
  0.13380000000000003         0.53107935190200806     
  0.13410000000000000         0.64254826307296753     
  0.13440000000000002         0.72031903266906738     
  0.13469999999999999         0.75462347269058228     
  0.13500000000000001         0.73668611049652100     
  0.13529999999999998         0.66039752960205078     
  0.13560000000000000         0.52317404747009277     
  0.13590000000000002         0.32645553350448608     
  0.13619999999999999          7.6941832900047302E-002
  0.13650000000000001        -0.21416580677032471     
  0.13680000000000003        -0.53155684471130371     
  0.13710000000000000        -0.85563844442367554     
  0.13740000000000002         -1.1651433706283569     
  0.13769999999999999         -1.4383351802825928     
  0.13800000000000001         -1.6550406217575073     
  0.13829999999999998         -1.7981355190277100     
  0.13860000000000000         -1.8542009592056274     
  0.13890000000000002         -1.8166332244873047     
  0.13919999999999999         -1.6849533319473267     
  0.13950000000000001         -1.4640964269638062     
  0.13979999999999998         -1.1656832695007324     
  0.14010000000000000        -0.80567705631256104     
  0.14040000000000002        -0.40340238809585571     
  0.14069999999999999          1.9853735342621803E-002
  0.14100000000000001         0.44233784079551697     
  0.14130000000000004         0.84328019618988037     
  0.14160000000000000          1.2043330669403076     
  0.14189999999999997          1.5099273920059204     
  0.14219999999999999          1.7481117248535156     
  0.14250000000000002          1.9111237525939941     
  0.14279999999999998          1.9950304031372070     
  0.14310000000000000          1.9995989799499512     
  0.14339999999999997          1.9281919002532959     
  0.14369999999999999          1.7880023717880249     
  0.14400000000000002          1.5881062746047974     
  0.14429999999999998          1.3399025201797485     
  0.14460000000000001          1.0570583343505859     
  0.14490000000000003         0.75341892242431641     
  0.14520000000000000         0.44302272796630859     
  0.14550000000000002         0.13923558592796326     
  0.14579999999999999        -0.14610080420970917     
  0.14610000000000001        -0.40272223949432373     
  0.14640000000000003        -0.62365293502807617     
  0.14670000000000000        -0.80400985479354858     
  0.14699999999999996        -0.94095897674560547     
  0.14729999999999999         -1.0348478555679321     
  0.14760000000000001         -1.0866354703903198     
  0.14789999999999998         -1.0987215042114258     
  0.14820000000000000         -1.0741837024688721     