  -1.4999999999999999E-002     0.0000000000000000     
  -1.4700000000000000E-002     0.0000000000000000     
  -1.4400000000000000E-002     0.0000000000000000     
  -1.4100000000000000E-002     0.0000000000000000     
  -1.3800000000000000E-002     0.0000000000000000     
  -1.3500000000000000E-002     0.0000000000000000     
  -1.3200000000000000E-002     0.0000000000000000     
  -1.2899999999999998E-002     0.0000000000000000     
  -1.2600000000000000E-002     0.0000000000000000     
  -1.2299999999999998E-002     0.0000000000000000     
  -1.2000000000000000E-002     0.0000000000000000     
  -1.1699999999999999E-002     0.0000000000000000     
  -1.1399999999999999E-002     0.0000000000000000     
  -1.1099999999999999E-002     0.0000000000000000     
  -1.0799999999999999E-002     0.0000000000000000     
  -1.0499999999999999E-002     0.0000000000000000     
  -1.0199999999999999E-002     0.0000000000000000     
  -9.8999999999999991E-003     0.0000000000000000     
  -9.5999999999999992E-003     0.0000000000000000     
  -9.2999999999999992E-003     0.0000000000000000     
  -8.9999999999999993E-003     0.0000000000000000     
  -8.6999999999999994E-003     0.0000000000000000     
  -8.3999999999999995E-003     0.0000000000000000     
  -8.0999999999999996E-003     0.0000000000000000     
  -7.7999999999999988E-003     0.0000000000000000     
  -7.4999999999999997E-003     0.0000000000000000     
  -7.1999999999999998E-003     0.0000000000000000     
  -6.8999999999999981E-003     0.0000000000000000     
  -6.5999999999999982E-003     0.0000000000000000     
  -6.3000000000000000E-003     0.0000000000000000     
  -6.0000000000000001E-003     0.0000000000000000     
  -5.6999999999999985E-003     0.0000000000000000     
  -5.3999999999999986E-003     0.0000000000000000     
  -5.1000000000000004E-003     0.0000000000000000     
  -4.7999999999999987E-003     0.0000000000000000     
  -4.5000000000000005E-003     0.0000000000000000     
  -4.1999999999999989E-003     0.0000000000000000     
  -3.8999999999999990E-003     0.0000000000000000     
  -3.5999999999999990E-003     0.0000000000000000     
  -3.2999999999999991E-003     0.0000000000000000     
  -2.9999999999999992E-003     0.0000000000000000     
  -2.6999999999999993E-003     0.0000000000000000     
  -2.3999999999999994E-003     0.0000000000000000     
  -2.0999999999999977E-003     0.0000000000000000     
  -1.7999999999999995E-003     0.0000000000000000     
  -1.4999999999999979E-003     0.0000000000000000     
  -1.1999999999999997E-003     0.0000000000000000     
  -8.9999999999999976E-004     0.0000000000000000     
  -5.9999999999999810E-004     0.0000000000000000     
  -2.9999999999999992E-004     0.0000000000000000     
   0.0000000000000000          0.0000000000000000     
   3.0000000000000165E-004     0.0000000000000000     
   5.9999999999999984E-004     0.0000000000000000     
   9.0000000000000149E-004     0.0000000000000000     
   1.2000000000000031E-003     0.0000000000000000     
   1.5000000000000013E-003     0.0000000000000000     
   1.8000000000000030E-003     0.0000000000000000     
   2.1000000000000012E-003     0.0000000000000000     
   2.3999999999999994E-003     0.0000000000000000     
   2.7000000000000010E-003     0.0000000000000000     
   2.9999999999999992E-003     0.0000000000000000     
   3.3000000000000008E-003     0.0000000000000000     
   3.6000000000000025E-003     0.0000000000000000     
   3.9000000000000007E-003     0.0000000000000000     
   4.2000000000000023E-003     0.0000000000000000     
   4.5000000000000005E-003     0.0000000000000000     
   4.7999999999999987E-003     0.0000000000000000     
   5.1000000000000004E-003     0.0000000000000000     
   5.4000000000000020E-003     0.0000000000000000     
   5.7000000000000037E-003     0.0000000000000000     
   5.9999999999999984E-003     0.0000000000000000     
   6.3000000000000000E-003     0.0000000000000000     
   6.6000000000000017E-003     0.0000000000000000     
   6.9000000000000034E-003     0.0000000000000000     
   7.2000000000000015E-003     0.0000000000000000     
   7.5000000000000032E-003     0.0000000000000000     
   7.8000000000000014E-003     0.0000000000000000     
   8.0999999999999996E-003     0.0000000000000000     
   8.4000000000000012E-003     0.0000000000000000     
   8.7000000000000029E-003     0.0000000000000000     
   9.0000000000000011E-003     0.0000000000000000     
   9.2999999999999992E-003     0.0000000000000000     
   9.6000000000000009E-003     0.0000000000000000     
   9.8999999999999991E-003     0.0000000000000000     
   1.0200000000000001E-002     0.0000000000000000     
   1.0500000000000002E-002     0.0000000000000000     
   1.0800000000000004E-002     0.0000000000000000     
   1.1099999999999999E-002     0.0000000000000000     
   1.1400000000000000E-002     0.0000000000000000     
   1.1700000000000002E-002     0.0000000000000000     
   1.2000000000000004E-002     0.0000000000000000     
   1.2300000000000002E-002     0.0000000000000000     
   1.2600000000000000E-002     0.0000000000000000     
   1.2900000000000002E-002    -2.4592061125322171E-039
   1.3200000000000000E-002    -1.2143933676932597E-036
   1.3500000000000002E-002     8.6254726860761761E-036
   1.3800000000000003E-002    -2.7929877798120401E-036
   1.4100000000000001E-002    -2.4273438929919138E-034
   1.4400000000000000E-002     8.9088535180773351E-034
   1.4700000000000001E-002     6.8165416397661760E-033
   1.4999999999999999E-002    -4.6944317831926958E-032
   1.5300000000000001E-002     1.8764684228076430E-032
   1.5600000000000003E-002     8.4095754640152938E-031
   1.5899999999999997E-002    -3.5926187723417382E-030
   1.6199999999999999E-002     2.1990139146029604E-030
   1.6500000000000001E-002     3.4188549962221884E-029
   1.6800000000000002E-002    -1.5784331934581466E-028
   1.7100000000000004E-002     3.9446750826965286E-028
   1.7400000000000006E-002    -1.0475791175149799E-027
   1.7700000000000000E-002     4.6306846336945948E-027
   1.8000000000000002E-002    -1.7254617986435333E-026
   1.8300000000000004E-002     1.0921097620918053E-026
   1.8600000000000005E-002     3.8889654552007542E-025
   1.8900000000000000E-002    -3.5427656238010608E-024
   1.9200000000000002E-002     2.0299941818203611E-023
   1.9500000000000003E-002    -8.8383737309034935E-023
   1.9799999999999998E-002     2.9186700278378425E-022
   2.0100000000000000E-002    -5.8545597919353655E-022
   2.0400000000000001E-002    -8.2911902837529638E-022
   2.0700000000000003E-002     1.6690840274729801E-020
   2.0999999999999998E-002    -1.1370212189095044E-019
   2.1299999999999999E-002     5.9497642487123108E-019
   2.1600000000000001E-002    -2.7327020056798292E-018
   2.1900000000000003E-002     1.1620124655856626E-017
   2.2200000000000004E-002    -4.6998853875776953E-017
   2.2500000000000006E-002     1.8289673412296148E-016
   2.2800000000000001E-002    -6.8334401098385691E-016
   2.3100000000000002E-002     2.4117656719073254E-015
   2.3400000000000004E-002    -7.7749315970797095E-015
   2.3699999999999999E-002     2.1442694168371836E-014
   2.4000000000000000E-002    -4.2589693364352029E-014
   2.4300000000000002E-002     9.9714194303675831E-015
   2.4599999999999997E-002     4.1104220731472170E-013
   2.4900000000000005E-002    -2.3137618503573564E-012
   2.5200000000000000E-002     7.6385323445735788E-012
   2.5499999999999995E-002    -1.4951203673922541E-011
   2.5800000000000003E-002     2.7668624215474656E-012
   2.6099999999999998E-002     9.0909762267092178E-011
   2.6400000000000007E-002    -2.9744571515528959E-010
   2.6700000000000002E-002     2.8531054610240880E-010
   2.6999999999999996E-002     8.8145147696866767E-010
   2.7300000000000005E-002    -2.9743516722220097E-009
   2.7600000000000000E-002     5.0962874335548566E-010
   2.7900000000000008E-002     1.1474873683032980E-008
   2.8200000000000003E-002    -1.0681427740855966E-008
   2.8499999999999998E-002    -3.7970787505377587E-008
   2.8800000000000006E-002     3.6362142692101705E-008
   2.9100000000000001E-002     1.1828460925867324E-007
   2.9400000000000003E-002    -6.5471359479990301E-008
   2.9700000000000004E-002    -3.4040198713697101E-007
   3.0000000000000006E-002     1.2838595028154780E-008
   3.0300000000000001E-002     1.1577178224851775E-006
   3.0600000000000002E-002     2.1345457897732839E-006
   3.0900000000000004E-002     2.3527012777465738E-006
   3.1199999999999999E-002     3.0669158413148959E-006
   3.1500000000000007E-002     5.9925007913619040E-006
   3.1800000000000002E-002     1.0963279664618296E-005
   3.2099999999999997E-002     1.6810498288072394E-005
   3.2400000000000005E-002     2.4435914855024262E-005
   3.2700000000000000E-002     3.7022931119861172E-005
   3.3000000000000002E-002     5.7040470950343782E-005
   3.3300000000000003E-002     8.5439919949609634E-005
   3.3599999999999998E-002     1.2480350499465042E-004
   3.3900000000000000E-002     1.8104327108862516E-004
   3.4200000000000001E-002     2.6071064405127839E-004
   3.4500000000000003E-002     3.6918715517073562E-004
   3.4799999999999998E-002     5.1370321729989760E-004
   3.5099999999999999E-002     7.0596393525425294E-004
   3.5400000000000001E-002     9.5909905847403262E-004
   3.5699999999999996E-002     1.2836292590687956E-003
   3.6000000000000004E-002     1.6893190998729310E-003
   3.6299999999999999E-002     2.1890961825668520E-003
   3.6600000000000008E-002     2.7966113428575523E-003
   3.6900000000000002E-002     3.5191715634426274E-003
   3.7199999999999997E-002     4.3554013964581806E-003
   3.7500000000000006E-002     5.2985345564613706E-003
   3.7800000000000000E-002     6.3354018406676926E-003
   3.8100000000000009E-002     7.4392525246202712E-003
   3.8400000000000004E-002     8.5657140320337111E-003
   3.8699999999999998E-002     9.6559259018293986E-003
   3.9000000000000007E-002     1.0639510862426482E-002
   3.9300000000000002E-002     1.1431336835138861E-002
   3.9600000000000003E-002     1.1930128215945079E-002
   3.9900000000000005E-002     1.2027112417304142E-002
   4.0200000000000000E-002     1.1615860512374787E-002
   4.0500000000000001E-002     1.0597035586073000E-002
   4.0800000000000003E-002     8.8793039766836279E-003
   4.1100000000000005E-002     6.3905464190798789E-003
   4.1399999999999999E-002     3.0935828320526708E-003
   4.1700000000000008E-002    -1.0099037672008926E-003
   4.2000000000000003E-002    -5.8819045718839780E-003
   4.2299999999999997E-002    -1.1447665561878873E-002
   4.2600000000000006E-002    -1.7584643047286797E-002
   4.2900000000000001E-002    -2.4128277821444777E-002
   4.3200000000000002E-002    -3.0884274326487104E-002
   4.3500000000000004E-002    -3.7635430424041605E-002
   4.3799999999999999E-002    -4.4145048516192720E-002
   4.4100000000000000E-002    -5.0157412178673200E-002
   4.4400000000000002E-002    -5.5410667084094145E-002
   4.4700000000000004E-002    -5.9642938136197365E-002
   4.4999999999999998E-002    -6.2586214338081980E-002
   4.5300000000000000E-002    -6.3965853892073099E-002
   4.5600000000000002E-002    -6.3503359877427279E-002
   4.5899999999999996E-002    -6.0924040143774283E-002
   4.6200000000000005E-002    -5.5960860123413614E-002
   4.6500000000000000E-002    -4.8361905332584332E-002
   4.6799999999999994E-002    -3.7916064797186455E-002
   4.7100000000000003E-002    -2.4487447990820144E-002
   4.7399999999999998E-002    -8.0390033419598383E-003
   4.7700000000000006E-002     1.1334908529890997E-002
   4.8000000000000001E-002     3.3370527632147762E-002
   4.8300000000000010E-002     5.7611068543398591E-002
   4.8600000000000004E-002     8.3391386322319683E-002
   4.8899999999999999E-002    0.10985134895000304     
   4.9200000000000008E-002    0.13596511767524166     
   4.9500000000000002E-002    0.16057753452674017     
   4.9800000000000011E-002    0.18247407646178182     
   5.0100000000000006E-002    0.20046941156798770     
   5.0400000000000000E-002    0.21349182322486904     
   5.0700000000000009E-002    0.22067097928898605     
   5.1000000000000004E-002    0.22140678490515153     
   5.1299999999999998E-002    0.21542337002606082     
   5.1600000000000007E-002    0.20280376852302417     
   5.1900000000000002E-002    0.18397910394368555     
   5.2200000000000010E-002    0.15969923244585971     
   5.2500000000000005E-002    0.13096441750926191     
   5.2800000000000000E-002     9.8942786446986730E-002
   5.3099999999999994E-002     6.4882046596101972E-002
   5.3400000000000003E-002     3.0007752540428222E-002
   5.3699999999999998E-002    -4.5577469505963808E-003
   5.4000000000000006E-002    -3.7870490232048581E-002
   5.4300000000000001E-002    -6.9221508785707986E-002
   5.4599999999999996E-002    -9.8131943913372766E-002
   5.4900000000000004E-002   -0.12437469082067887     
   5.5199999999999999E-002   -0.14796473818588751     
   5.5499999999999994E-002   -0.16911061257345761     
   5.5800000000000002E-002   -0.18817144763359206     
   5.6099999999999997E-002   -0.20559798897632575     
   5.6400000000000006E-002   -0.22189164401575656     
   5.6700000000000000E-002   -0.23757567211486474     
   5.6999999999999995E-002   -0.25311799753748154     
   5.7300000000000004E-002   -0.26889651886602373     
   5.7599999999999998E-002   -0.28518256629413408     
   5.7900000000000007E-002   -0.30208476378654581     
   5.8200000000000002E-002   -0.31952090386555554     
   5.8499999999999996E-002   -0.33718683823759221     
   5.8800000000000005E-002   -0.35451607279609831     
   5.9100000000000000E-002   -0.37067860096705552     
   5.9400000000000008E-002   -0.38457139327101331     
   5.9700000000000003E-002   -0.39481851239928467     
   6.0000000000000012E-002   -0.39979856224293719     
   6.0300000000000006E-002   -0.39769809291887626     
   6.0600000000000001E-002   -0.38660296831372776     
   6.0900000000000010E-002   -0.36459757060651654     
   6.1200000000000004E-002   -0.32986043543383481     
   6.1500000000000013E-002   -0.28083371595875395     
   6.1800000000000008E-002   -0.21638539397542011     
   6.2100000000000002E-002   -0.13592522116296180     
   6.2399999999999997E-002    -3.9590278462021233E-002
   6.2700000000000006E-002     7.1637075410809992E-002
   6.3000000000000000E-002    0.19585186326772863     
   6.3300000000000009E-002    0.33014725981789894     
   6.3600000000000004E-002    0.47066440711737911     
   6.3899999999999998E-002    0.61265410228859096     
   6.4199999999999993E-002    0.75057528861834300     
   6.4500000000000002E-002    0.87838752460194058     
   6.4800000000000010E-002    0.98981437200378153     
   6.5100000000000005E-002     1.0786993590467873     
   6.5400000000000000E-002     1.1393426190560874     
   6.5700000000000008E-002     1.1668848714266744     
   6.5999999999999989E-002     1.1577673135000879     
   6.6299999999999998E-002     1.1100107469499747     
   6.6600000000000006E-002     1.0233904514314744     
   6.6900000000000001E-002    0.89962410124084613     
   6.7199999999999996E-002    0.74244810228427838     
   6.7500000000000004E-002    0.55748813349426740     
   6.7800000000000013E-002    0.35200522892925923     
   6.8099999999999994E-002    0.13450850139590509     
   6.8400000000000002E-002    -8.5666377941187033E-002
   6.8700000000000011E-002   -0.29882919544687070     
   6.8999999999999992E-002   -0.49556133571494421     
   6.9300000000000000E-002   -0.66728905280459117     
   6.9600000000000009E-002   -0.80679337313886279     
   6.9900000000000004E-002   -0.90862515028491586     
   7.0199999999999999E-002   -0.96942542917240360     
   7.0500000000000007E-002   -0.98823204690398470     
   7.0800000000000016E-002   -0.96651567072280997     
   7.1099999999999997E-002   -0.90803658672179566     
   7.1400000000000005E-002   -0.81862190250612343     
   7.1700000000000000E-002   -0.70580665180794000     
   7.1999999999999995E-002   -0.57836779370737901     
   7.2300000000000003E-002   -0.44581847785163653     
   7.2600000000000012E-002   -0.31764233271692177     
   7.2900000000000006E-002   -0.20272294575863148     
   7.3200000000000001E-002   -0.10885646436557384     
   7.3499999999999996E-002    -4.2188534256793919E-002
   7.3800000000000004E-002    -6.7743485813607368E-003
   7.4099999999999999E-002    -4.2621864801784537E-003
   7.4400000000000008E-002    -3.3782958897749737E-002
   7.4700000000000003E-002    -9.2097168732322210E-002
   7.5000000000000011E-002   -0.17369467961908924     
   7.5299999999999992E-002   -0.27106386525041870     
   7.5600000000000001E-002   -0.37534058325208974     
   7.5900000000000009E-002   -0.47685246691705174     
   7.6200000000000004E-002   -0.56578442493358239     
   7.6499999999999999E-002   -0.63286534441822084     
   7.6800000000000007E-002   -0.66999927656893021     
   7.7099999999999988E-002   -0.67104761613543573     
   7.7399999999999997E-002   -0.63225608615820761     
   7.7700000000000005E-002   -0.55243982754444865     
   7.8000000000000014E-002   -0.43332988342132772     
   7.8299999999999995E-002   -0.27949191072442758     
   7.8600000000000003E-002    -9.8106609253457933E-002
   7.8900000000000012E-002    0.10160106953938230     
   7.9199999999999993E-002    0.30895544064057567     
   7.9500000000000001E-002    0.51242041737169330     
   7.9800000000000010E-002    0.70040689669440326     
   8.0100000000000018E-002    0.86230774268103971     
   8.0399999999999999E-002    0.98906092523823119     
   8.0700000000000008E-002     1.0737182650800960     
   8.1000000000000003E-002     1.1120411775815668     
   8.1299999999999997E-002     1.1026871726458580     
   8.1600000000000006E-002     1.0473741379384904     
   8.1900000000000014E-002    0.95054773430591410     
   8.2199999999999995E-002    0.81906730420611495     
   8.2500000000000004E-002    0.66174562639515067     
   8.2799999999999999E-002    0.48869814855557969     
   8.3100000000000007E-002    0.31048282799333826     
   8.3400000000000002E-002    0.13747378777029273     
   8.3700000000000011E-002    -2.0852800787010600E-002
   8.4000000000000005E-002   -0.15659145611207226     
   8.4300000000000000E-002   -0.26389842775768013     
   8.4599999999999995E-002   -0.33925306871022087     
   8.4900000000000003E-002   -0.38174062171240664     
   8.5199999999999998E-002   -0.39284421250861001     
   8.5500000000000007E-002   -0.37638771789088032     
   8.5800000000000001E-002   -0.33808732777233885     
   8.6100000000000010E-002   -0.28493947010409393     
   8.6399999999999991E-002   -0.22462080097600268     
   8.6699999999999999E-002   -0.16477590594728309     
   8.7000000000000008E-002   -0.11240758274712670     
   8.7300000000000003E-002    -7.3044001023607308E-002
   8.7599999999999997E-002    -5.0175334508469893E-002
   8.7900000000000006E-002    -4.5146334452951242E-002
   8.8200000000000014E-002    -5.6882314967062975E-002
   8.8499999999999995E-002    -8.1758894066326526E-002
   8.8800000000000004E-002   -0.11410451417813405     
   8.9100000000000013E-002   -0.14675699640309992     
   8.9399999999999993E-002   -0.17185095995359356     
   8.9700000000000002E-002   -0.18141918210151453     
   9.0000000000000011E-002   -0.16838827392162892     
   9.0299999999999991E-002   -0.12756242471726331     
   9.0600000000000000E-002    -5.6219117895266901E-002
   9.0900000000000009E-002     4.5455969435699572E-002
   9.1200000000000017E-002    0.17402300053594022     
   9.1499999999999998E-002    0.32282944993846741     
   9.1800000000000007E-002    0.48253468283556522     
   9.2100000000000001E-002    0.64173191259328632     
   9.2399999999999996E-002    0.78769522363440814     
   9.2700000000000005E-002    0.90769732081891163     
   9.3000000000000013E-002    0.99001001936795063     
   9.3300000000000008E-002     1.0249438347909923     
   9.3600000000000003E-002     1.0057742991009704     
   9.3899999999999997E-002    0.92954565280427914     
   9.4200000000000006E-002    0.79752379864036449     
   9.4500000000000001E-002    0.61514939887147513     
   9.4800000000000009E-002    0.39174048761550484     
   9.5100000000000004E-002    0.13999283575962718     
   9.5399999999999999E-002   -0.12488088418815213     
   9.5699999999999993E-002   -0.38616758531522244     
   9.6000000000000002E-002   -0.62706242842666882     
   9.6300000000000011E-002   -0.83203017161747894     
   9.6600000000000005E-002   -0.98763987116482710     
   9.6900000000000000E-002    -1.0835754162489906     
   9.7200000000000009E-002    -1.1138196849532669     
   9.7499999999999989E-002    -1.0771510634316321     
   9.7799999999999998E-002   -0.97697782803818001     
   9.8100000000000007E-002   -0.82115085862761639     
   9.8400000000000015E-002   -0.62164011108854655     
   9.8699999999999996E-002   -0.39375776116549721     
   9.9000000000000005E-002   -0.15477580722835516     
   9.9300000000000013E-002     7.7500792751675374E-002
   9.9599999999999994E-002    0.28599358774382910     
   9.9900000000000003E-002    0.45544738860514045     
  0.10020000000000001         0.57391860467481948     
  0.10049999999999999         0.63375312514371984     
  0.10080000000000000         0.63204447292259047     
  0.10110000000000001         0.57064009749869804     
  0.10140000000000000         0.45603108908403112     
  0.10170000000000000         0.29881704186260016     
  0.10200000000000001         0.11248077803225165     
  0.10230000000000002         -8.7573233905458903E-002
  0.10260000000000000        -0.28560312738657512     
  0.10290000000000001        -0.46689335873754345     
  0.10320000000000000        -0.61854348069626752     
  0.10350000000000001        -0.73061211478669108     
  0.10380000000000000        -0.79696311738798897     
  0.10410000000000001        -0.81532916085469154     
  0.10440000000000001        -0.78697002308242148     
  0.10470000000000000        -0.71657068823818548     
  0.10500000000000000        -0.61163384684262390     
  0.10530000000000000        -0.48145005814922115     
  0.10560000000000000        -0.33632199366124649     
  0.10590000000000001        -0.18662465904400261     
  0.10620000000000000         -4.2038407354850094E-002
  0.10650000000000001          8.8936494965447199E-002
  0.10679999999999999         0.19960220254206007     
  0.10710000000000000         0.28518354293547432     
  0.10740000000000001         0.34316937461421837     
  0.10770000000000000         0.37302795849505266     
  0.10800000000000000         0.37577728106586505     
  0.10830000000000001         0.35413304041546567     
  0.10859999999999999         0.31214866807460595     
  0.10890000000000000         0.25453713619357110     
  0.10920000000000001         0.18624597914681029     
  0.10950000000000001         0.11227178891780154     
  0.10979999999999999          3.7505063227335711E-002
  0.11009999999999999         -3.3802274281988343E-002
  0.11040000000000001         -9.8414626570632713E-002
  0.11070000000000001        -0.15407966083316449     
  0.11100000000000000        -0.19958233673587156     
  0.11130000000000000        -0.23462108468865139     
  0.11160000000000002        -0.26014254637733103     
  0.11190000000000001        -0.27775649561873905     
  0.11220000000000001        -0.28957047825453053     
  0.11250000000000000        -0.29768726531384182     
  0.11280000000000000        -0.30457101855868984     
  0.11309999999999999        -0.31214710133247614     
  0.11340000000000001        -0.32116475017757473     
  0.11369999999999998        -0.33179542142637430     
  0.11400000000000000        -0.34352858625629601     
  0.11430000000000000        -0.35465531287396246     
  0.11460000000000002        -0.36259045493212216     
  0.11489999999999999        -0.36439815542740295     
  0.11520000000000001        -0.35730180487145002     
  0.11550000000000001        -0.33892948784420174     
  0.11580000000000000        -0.30709148006494480     
  0.11609999999999999        -0.26112906746606179     
  0.11640000000000002        -0.20193911201632941     
  0.11670000000000001        -0.13157698799282258     
  0.11700000000000001         -5.3437652799807278E-002
  0.11730000000000000          2.8006631832267648E-002
  0.11760000000000000         0.10752328922994936     
  0.11789999999999999         0.17927784805867208     
  0.11820000000000001         0.23844545428968811     
  0.11850000000000001         0.28097339891509954     
  0.11880000000000000         0.30392544374076991     
  0.11910000000000000         0.30621294485882000     
  0.11940000000000002         0.28869806411062404     
  0.11970000000000001         0.25418935891375782     
  0.12000000000000001         0.20678780547140502     
  0.12030000000000000         0.15172927007601067     
  0.12060000000000000          9.5283680561457196E-002
  0.12089999999999999          4.3894627685557186E-002
  0.12119999999999999          3.1057607507209983E-003
  0.12150000000000001         -2.1735356620281254E-002
  0.12180000000000001         -2.6560607654246948E-002
  0.12210000000000000         -8.8189139827046237E-003
  0.12239999999999999          3.3163335878954980E-002
  0.12270000000000002          9.9716520305336509E-002
  0.12300000000000001         0.18991874496197525     
  0.12330000000000001         0.30227487931389518     
  0.12360000000000000         0.43431788258153858     
  0.12390000000000000         0.58316149350702418     
  0.12419999999999999         0.74544484259644506     
  0.12450000000000001         0.91705707843281203     
  0.12480000000000001          1.0934781123940169     
  0.12509999999999999          1.2693513019220433     
  0.12540000000000001          1.4388701532344825     
  0.12570000000000003          1.5957514965201582     
  0.12600000000000000          1.7328200400711609     
  0.12630000000000002          1.8434255539733115     
  0.12659999999999999          1.9215390730674287     
  0.12690000000000001          1.9611172973514357     
  0.12719999999999998          1.9578239571122467     
  0.12750000000000000          1.9094087072522115     
  0.12780000000000002          1.8153264223018368     
  0.12809999999999999          1.6769835058883658     
  0.12840000000000001          1.4977272829314607     
  0.12869999999999998          1.2828478582892409     
  0.12900000000000000          1.0387683971529107     
  0.12930000000000003         0.77211340453191513     
  0.12959999999999999         0.48974970758114722     
  0.12990000000000002         0.19810039759600073     
  0.13019999999999998         -9.7662908139048099E-002
  0.13050000000000000        -0.39379224428956405     
  0.13080000000000003        -0.68746085350488428     
  0.13109999999999999        -0.97712006863810430     
  0.13140000000000002         -1.2617282720318030     
  0.13169999999999998         -1.5406414964987007     
  0.13200000000000001         -1.8126727484832301     
  0.13229999999999997         -2.0752527243049315     
  0.13260000000000000         -2.3251114427269499     
  0.13290000000000002         -2.5574898566481323     
  0.13319999999999999         -2.7653912484453400     
  0.13350000000000001         -2.9412173099836281     
  0.13380000000000003         -3.0768238895435758     
  0.13410000000000000         -3.1640587143267140     
  0.13440000000000002         -3.1957044815210338     
  0.13469999999999999         -3.1660126853870452     
  0.13500000000000001         -3.0720511327800750     
  0.13529999999999998         -2.9143562143114963     
  0.13560000000000000         -2.6963280743615456     
  0.13590000000000002         -2.4247922654633882     
  0.13619999999999999         -2.1100573334603752     
  0.13650000000000001         -1.7649675060057106     
  0.13680000000000003         -1.4040839246057750     
  0.13710000000000000         -1.0422947434177594     
  0.13740000000000002        -0.69411427595641917     
  0.13769999999999999        -0.37296167987802953     
  0.13800000000000001         -8.8937990832576475E-002
  0.13829999999999998         0.15119769303524322     
  0.13860000000000000         0.34423685230256140     
  0.13890000000000002         0.49190193489752332     
  0.13919999999999999         0.59953538954448859     
  0.13950000000000001         0.67623892610590630     
  0.13979999999999998         0.73380312361598143     
  0.14010000000000000         0.78570453722694467     
  0.14040000000000002         0.84655154242641473     
  0.14069999999999999         0.93000090550178527     
  0.14100000000000001          1.0471266566149744     
  0.14130000000000004          1.2069919336286716     
  0.14160000000000000          1.4148339571361177     
  0.14189999999999997          1.6706980973138599     
  0.14219999999999999          1.9699016055935488     
  0.14250000000000002          2.3030157485050751     
  0.14279999999999998          2.6560997095900802     
  0.14310000000000000          3.0111855504531064     
  0.14339999999999997          3.3467801913657667     
  0.14369999999999999          3.6402999301239163     
  0.14400000000000002          3.8692120227699149     
  0.14429999999999998          4.0115325840003493     
  0.14460000000000001          4.0486854392062810     
  0.14490000000000003          3.9668582698288617     
  0.14520000000000000          3.7583375269926762     
  0.14550000000000002          3.4228382562660471     
  0.14579999999999999          2.9671423851017167     
  0.14610000000000001          2.4058812591736292     
  0.14640000000000003          1.7618851754514173     
  0.14670000000000000          1.0633091451655545     
  0.14699999999999996         0.34263938341507938     
  0.14729999999999999        -0.36505240791168792     
  0.14760000000000001         -1.0252484401845550     
  0.14789999999999998         -1.6061810383559489     
  0.14820000000000000         -2.0814972288059792     