  -1.4999999999999999E-002     0.0000000000000000     
  -1.4700000000000000E-002     0.0000000000000000     
  -1.4400000000000000E-002     0.0000000000000000     
  -1.4100000000000000E-002     0.0000000000000000     
  -1.3800000000000000E-002     0.0000000000000000     
  -1.3500000000000000E-002     0.0000000000000000     
  -1.3200000000000000E-002     0.0000000000000000     
  -1.2899999999999998E-002     0.0000000000000000     
  -1.2600000000000000E-002     0.0000000000000000     
  -1.2299999999999998E-002     0.0000000000000000     
  -1.2000000000000000E-002     0.0000000000000000     
  -1.1699999999999999E-002     0.0000000000000000     
  -1.1399999999999999E-002     0.0000000000000000     
  -1.1099999999999999E-002     0.0000000000000000     
  -1.0799999999999999E-002     0.0000000000000000     
  -1.0499999999999999E-002     0.0000000000000000     
  -1.0199999999999999E-002     0.0000000000000000     
  -9.8999999999999991E-003     0.0000000000000000     
  -9.5999999999999992E-003     0.0000000000000000     
  -9.2999999999999992E-003     0.0000000000000000     
  -8.9999999999999993E-003     0.0000000000000000     
  -8.6999999999999994E-003     0.0000000000000000     
  -8.3999999999999995E-003     0.0000000000000000     
  -8.0999999999999996E-003     0.0000000000000000     
  -7.7999999999999988E-003     0.0000000000000000     
  -7.4999999999999997E-003     0.0000000000000000     
  -7.1999999999999998E-003     0.0000000000000000     
  -6.8999999999999981E-003     0.0000000000000000     
  -6.5999999999999982E-003     0.0000000000000000     
  -6.3000000000000000E-003     0.0000000000000000     
  -6.0000000000000001E-003     0.0000000000000000     
  -5.6999999999999985E-003     0.0000000000000000     
  -5.3999999999999986E-003     0.0000000000000000     
  -5.1000000000000004E-003     0.0000000000000000     
  -4.7999999999999987E-003     0.0000000000000000     
  -4.5000000000000005E-003     0.0000000000000000     
  -4.1999999999999989E-003     0.0000000000000000     
  -3.8999999999999990E-003     0.0000000000000000     
  -3.5999999999999990E-003     0.0000000000000000     
  -3.2999999999999991E-003     0.0000000000000000     
  -2.9999999999999992E-003     0.0000000000000000     
  -2.6999999999999993E-003     0.0000000000000000     
  -2.3999999999999994E-003     0.0000000000000000     
  -2.0999999999999977E-003     0.0000000000000000     
  -1.7999999999999995E-003     0.0000000000000000     
  -1.4999999999999979E-003     0.0000000000000000     
  -1.1999999999999997E-003     0.0000000000000000     
  -8.9999999999999976E-004     0.0000000000000000     
  -5.9999999999999810E-004     0.0000000000000000     
  -2.9999999999999992E-004     0.0000000000000000     
   0.0000000000000000          0.0000000000000000     
   3.0000000000000165E-004     0.0000000000000000     
   5.9999999999999984E-004     0.0000000000000000     
   9.0000000000000149E-004     0.0000000000000000     
   1.2000000000000031E-003     0.0000000000000000     
   1.5000000000000013E-003     0.0000000000000000     
   1.8000000000000030E-003     0.0000000000000000     
   2.1000000000000012E-003     0.0000000000000000     
   2.3999999999999994E-003     0.0000000000000000     
   2.7000000000000010E-003     0.0000000000000000     
   2.9999999999999992E-003     0.0000000000000000     
   3.3000000000000008E-003     0.0000000000000000     
   3.6000000000000025E-003     0.0000000000000000     
   3.9000000000000007E-003     0.0000000000000000     
   4.2000000000000023E-003     0.0000000000000000     
   4.5000000000000005E-003     0.0000000000000000     
   4.7999999999999987E-003     0.0000000000000000     
   5.1000000000000004E-003     0.0000000000000000     
   5.4000000000000020E-003     0.0000000000000000     
   5.7000000000000037E-003     0.0000000000000000     
   5.9999999999999984E-003     0.0000000000000000     
   6.3000000000000000E-003     0.0000000000000000     
   6.6000000000000017E-003     0.0000000000000000     
   6.9000000000000034E-003     0.0000000000000000     
   7.2000000000000015E-003     0.0000000000000000     
   7.5000000000000032E-003     0.0000000000000000     
   7.8000000000000014E-003     0.0000000000000000     
   8.0999999999999996E-003     0.0000000000000000     
   8.4000000000000012E-003     0.0000000000000000     
   8.7000000000000029E-003     0.0000000000000000     
   9.0000000000000011E-003     0.0000000000000000     
   9.2999999999999992E-003     0.0000000000000000     
   9.6000000000000009E-003     0.0000000000000000     
   9.8999999999999991E-003     0.0000000000000000     
   1.0200000000000001E-002     0.0000000000000000     
   1.0500000000000002E-002     0.0000000000000000     
   1.0800000000000004E-002     0.0000000000000000     
   1.1099999999999999E-002     0.0000000000000000     
   1.1400000000000000E-002     3.0558522863897480E-038
   1.1700000000000002E-002     1.5191115540610430E-036
   1.2000000000000004E-002    -2.2268063418795634E-035
   1.2300000000000002E-002    -4.8808653112407068E-035
   1.2600000000000000E-002     1.0635665899664775E-033
   1.2900000000000002E-002    -6.1810008664164971E-034
   1.3200000000000000E-002    -2.9859328007619717E-032
   1.3500000000000002E-002     1.2740103252158612E-031
   1.3800000000000003E-002     1.8141709950291992E-031
   1.4100000000000001E-002    -3.4567655466500080E-030
   1.4400000000000000E-002     1.1269990186452303E-029
   1.4700000000000001E-002     1.1560796774088660E-029
   1.4999999999999999E-002    -2.2777862829847662E-028
   1.5300000000000001E-002     8.2239623098500197E-028
   1.5600000000000003E-002    -6.3346392240667891E-028
   1.5899999999999997E-002    -6.6637970018694936E-027
   1.6199999999999999E-002     3.4228601023756480E-026
   1.6500000000000001E-002    -8.0405371683359231E-026
   1.6800000000000002E-002     4.4167806304441789E-026
   1.7100000000000004E-002     5.0803044939508331E-025
   1.7400000000000006E-002    -3.2298420609069593E-024
   1.7700000000000000E-002     1.4438453812861230E-023
   1.8000000000000002E-002    -4.9751121373663256E-023
   1.8300000000000004E-002     7.7927109116438505E-023
   1.8600000000000005E-002     5.4849814943508702E-022
   1.8900000000000000E-002    -6.4515647000321510E-021
   1.9200000000000002E-002     4.1866470346876333E-020
   1.9500000000000003E-002    -2.1434123069552284E-019
   1.9799999999999998E-002     9.5625749162990077E-019
   2.0100000000000000E-002    -3.9197644273478020E-018
   2.0400000000000001E-002     1.5337236254452508E-017
   2.0700000000000003E-002    -5.9001925690138324E-017
   2.0999999999999998E-002     2.2723460122507831E-016
   2.1299999999999999E-002    -8.7748247844439130E-016
   2.1600000000000001E-002     3.3421293250545598E-015
   2.1900000000000003E-002    -1.2171216980498407E-014
   2.2200000000000004E-002     4.0572948369172159E-014
   2.2500000000000006E-002    -1.1598386943410956E-013
   2.2800000000000001E-002     2.4748957796206829E-013
   2.3100000000000002E-002    -1.8786769778763272E-013
   2.3400000000000004E-002    -1.3977201663042213E-012
   2.3699999999999999E-002     8.3079247941138724E-012
   2.4000000000000000E-002    -2.4641490839227205E-011
   2.4300000000000002E-002     3.4698231862257013E-011
   2.4599999999999997E-002     4.4486250590029753E-011
   2.4900000000000005E-002    -3.4139238973283668E-010
   2.5200000000000000E-002     6.2916276636009063E-010
   2.5499999999999995E-002     3.8384669463442457E-010
   2.5800000000000003E-002    -3.6431773610966918E-009
   2.6099999999999998E-002     3.3961344285677637E-009
   2.6400000000000007E-002     1.1236836021457195E-008
   2.6700000000000002E-002    -2.1031084170633608E-008
   2.6999999999999996E-002    -3.4089684775628998E-008
   2.7300000000000005E-002     6.6785965013469312E-008
   2.7600000000000000E-002     1.1158488428616387E-007
   2.7900000000000008E-002    -1.4505439240531907E-007
   2.8200000000000003E-002    -3.5787613332417997E-007
   2.8499999999999998E-002     2.2685843152088713E-007
   2.8800000000000006E-002     1.5208535998664284E-006
   2.9100000000000001E-002     2.4073862688016656E-006
   2.9400000000000003E-002     2.6230653025529889E-006
   2.9700000000000004E-002     3.8123929360495124E-006
   3.0000000000000006E-002     7.5012545812928226E-006
   3.0300000000000001E-002     1.3098272724640738E-005
   3.0600000000000002E-002     1.9607116419750024E-005
   3.0900000000000004E-002     2.8618451294693675E-005
   3.1199999999999999E-002     4.3630012364284524E-005
   3.1500000000000007E-002     6.6883072520381847E-005
   3.1800000000000002E-002     9.9473792810122769E-005
   3.2099999999999997E-002     1.4486978788498008E-004
   3.2400000000000005E-002     2.0974064129365266E-004
   3.2700000000000000E-002     3.0079397803289658E-004
   3.3000000000000002E-002     4.2381815443104202E-004
   3.3300000000000003E-002     5.8730051713171486E-004
   3.3599999999999998E-002     8.0412242946098153E-004
   3.3900000000000000E-002     1.0875508509652285E-003
   3.4200000000000001E-002     1.4479395765125760E-003
   3.4500000000000003E-002     1.8956025777024585E-003
   3.4799999999999998E-002     2.4440232648822863E-003
   3.5099999999999999E-002     3.1057280691227235E-003
   3.5400000000000001E-002     3.8852074805176967E-003
   3.5699999999999996E-002     4.7779637831922295E-003
   3.6000000000000004E-002     5.7737247287386051E-003
   3.6299999999999999E-002     6.8541266609785378E-003
   3.6600000000000008E-002     7.9848270116221476E-003
   3.6900000000000002E-002     9.1129886833301033E-003
   3.7199999999999997E-002     1.0171587736788112E-002
   3.7500000000000006E-002     1.1081965004805516E-002
   3.7800000000000000E-002     1.1750016922985995E-002
   3.8100000000000009E-002     1.2066883357692015E-002
   3.8400000000000004E-002     1.1920197213897699E-002
   3.8699999999999998E-002     1.1203969900430766E-002
   3.9000000000000007E-002     9.8219724397556329E-003
   3.9300000000000002E-002     7.6916930232587277E-003
   3.9600000000000003E-002     4.7566043247911916E-003
   3.9900000000000005E-002     1.0008327538927331E-003
   4.0200000000000000E-002    -3.5467401038177856E-003
   4.0500000000000001E-002    -8.8198383035830719E-003
   4.0800000000000003E-002    -1.4710076735408362E-002
   4.1100000000000005E-002    -2.1059206579425616E-002
   4.1399999999999999E-002    -2.7668377867734240E-002
   4.1700000000000008E-002    -3.4310356773767037E-002
   4.2000000000000003E-002    -4.0739151570522658E-002
   4.2299999999999997E-002    -4.6690534350595003E-002
   4.2600000000000006E-002    -5.1885399862783732E-002
   4.2900000000000001E-002    -5.6040612232012954E-002
   4.3200000000000002E-002    -5.8874407429605036E-002
   4.3500000000000004E-002    -6.0099335861786507E-002
   4.3799999999999999E-002    -5.9420166753069159E-002
   4.4100000000000000E-002    -5.6542828403108425E-002
   4.4400000000000002E-002    -5.1178008369201944E-002
   4.4700000000000004E-002    -4.3048049410647549E-002
   4.4999999999999998E-002    -3.1906298798616395E-002
   4.5300000000000000E-002    -1.7570292860324410E-002
   4.5600000000000002E-002     4.4437602224903228E-005
   4.5899999999999996E-002     2.0891856257818087E-002
   4.6200000000000005E-002     4.4750915282093739E-002
   4.6500000000000000E-002     7.1185807922722999E-002
   4.6799999999999994E-002     9.9528474997869765E-002
   4.7100000000000003E-002    0.12887102005151219     
   4.7399999999999998E-002    0.15808951785922964     
   4.7700000000000006E-002    0.18587801467243992     
   4.8000000000000001E-002    0.21081293162930059     
   4.8300000000000010E-002    0.23145140340893189     
   4.8600000000000004E-002    0.24642812467409847     
   4.8899999999999999E-002    0.25456343459487041     
   4.9200000000000008E-002    0.25495257163903950     
   4.9500000000000002E-002    0.24705446649047946     
   4.9800000000000011E-002    0.23075640130743746     
   5.0100000000000006E-002    0.20637115528502648     
   5.0400000000000000E-002    0.17462775798626318     
   5.0700000000000009E-002    0.13662442577168399     
   5.1000000000000004E-002     9.3727690893103510E-002
   5.1299999999999998E-002     4.7492970093819808E-002
   5.1600000000000007E-002    -4.7023845423305177E-004
   5.1900000000000002E-002    -4.8607576547629039E-002
   5.2200000000000010E-002    -9.5522968257238716E-002
   5.2500000000000005E-002   -0.14005446877053584     
   5.2800000000000000E-002   -0.18132582445664802     
   5.3099999999999994E-002   -0.21877944230004598     
   5.3400000000000003E-002   -0.25216849263009244     
   5.3699999999999998E-002   -0.28153329047254250     
   5.4000000000000006E-002   -0.30715312096040037     
   5.4300000000000001E-002   -0.32947998277018087     
   5.4599999999999996E-002   -0.34908168327237199     
   5.4900000000000004E-002   -0.36655373875041342     
   5.5199999999999999E-002   -0.38245462470709057     
   5.5499999999999994E-002   -0.39723071349791894     
   5.5800000000000002E-002   -0.41111862247321973     
   5.6099999999999997E-002   -0.42410711423618430     
   5.6400000000000006E-002   -0.43588171177338708     
   5.6700000000000000E-002   -0.44575602640125567     
   5.6999999999999995E-002   -0.45265219720330840     
   5.7300000000000004E-002   -0.45514490183403389     
   5.7599999999999998E-002   -0.45144676920285498     
   5.7900000000000007E-002   -0.43951402910788673     
   5.8200000000000002E-002   -0.41716844402860431     
   5.8499999999999996E-002   -0.38220867878616005     
   5.8800000000000005E-002   -0.33261207408285465     
   5.9100000000000000E-002   -0.26675278405581260     
   5.9400000000000008E-002   -0.18357905883585879     
   5.9700000000000003E-002    -8.2795991541699809E-002
   6.0000000000000012E-002     3.4940776608082480E-002
   6.0300000000000006E-002    0.16788544508452130     
   6.0600000000000001E-002    0.31319088885006163     
   6.0900000000000010E-002    0.46690666394446900     
   6.1200000000000004E-002    0.62401180084630781     
   6.1500000000000013E-002    0.77859033156887492     
   6.1800000000000008E-002    0.92415094279420273     
   6.2100000000000002E-002     1.0538919616479632     
   6.2399999999999997E-002     1.1609838453369861     
   6.2700000000000006E-002     1.2390449373689449     
   6.3000000000000000E-002     1.2825773345386580     
   6.3300000000000009E-002     1.2872937938452296     
   6.3600000000000004E-002     1.2504883122686294     
   6.3899999999999998E-002     1.1712795771555733     
   6.4199999999999993E-002     1.0508468838508094     
   6.4500000000000002E-002    0.89251954506326214     
   6.4800000000000010E-002    0.70170097358511541     
   6.5100000000000005E-002    0.48566754843455229     
   6.5400000000000000E-002    0.25323907991605399     
   6.5700000000000008E-002     1.4369982770263245E-002
   6.5999999999999989E-002   -0.22030624289046363     
   6.6299999999999998E-002   -0.44021029879559936     
   6.6600000000000006E-002   -0.63546378780814727     
   6.6900000000000001E-002   -0.79739907367299168     
   6.7199999999999996E-002   -0.91917752535791308     
   6.7500000000000004E-002   -0.99629784072759620     
   6.7800000000000013E-002    -1.0269367335958073     
   6.8099999999999994E-002    -1.0121012110575336     
   6.8400000000000002E-002   -0.95557282695519419     
   6.8700000000000011E-002   -0.86369828782957825     
   6.8999999999999992E-002   -0.74507160216803570     
   6.9300000000000000E-002   -0.60992417644198227     
   6.9600000000000009E-002   -0.46941795247180806     
   6.9900000000000004E-002   -0.33479191275206510     
   7.0199999999999999E-002   -0.21663815863031566     
   7.0500000000000007E-002   -0.12425154543002925     
   7.0800000000000016E-002    -6.4751711016957314E-002
   7.1099999999999997E-002    -4.2464672927635005E-002
   7.1400000000000005E-002    -5.8797266020531147E-002
   7.1700000000000000E-002   -0.11203486569382659     
   7.1999999999999995E-002   -0.19727736988149980     
   7.2300000000000003E-002   -0.30685874454675410     
   7.2600000000000012E-002   -0.43090018336558344     
   7.2900000000000006E-002   -0.55800433985657527     
   7.3200000000000001E-002   -0.67605119557815385     
   7.3499999999999996E-002   -0.77315038699347838     
   7.3800000000000004E-002   -0.83858359781295633     
   7.4099999999999999E-002   -0.86355080740926837     
   7.4400000000000008E-002   -0.84197371738580173     
   7.4700000000000003E-002   -0.77100391279410019     
   7.5000000000000011E-002   -0.65122887629890869     
   7.5299999999999992E-002   -0.48671818507998310     
   7.5600000000000001E-002   -0.28483899978581562     
   7.5900000000000009E-002    -5.5718266055415633E-002
   7.6200000000000004E-002    0.18853335733895538     
   7.6499999999999999E-002    0.43465807258087352     
   7.6800000000000007E-002    0.66913554737899261     
   7.7099999999999988E-002    0.87911058327035363     
   7.7399999999999997E-002     1.0533146622687362     
   7.7700000000000005E-002     1.1828453666689782     
   7.8000000000000014E-002     1.2616827076769965     
   7.8299999999999995E-002     1.2868215794220035     
   7.8600000000000003E-002     1.2584068984675909     
   7.8900000000000012E-002     1.1797320948097507     
   7.9199999999999993E-002     1.0567556040497408     
   7.9500000000000001E-002    0.89742411919385745     
   7.9800000000000010E-002    0.71113227971911641     
   8.0100000000000018E-002    0.50828256607758426     
   8.0399999999999999E-002    0.29946176899400712     
   8.0700000000000008E-002     9.4729368170889616E-002
   8.1000000000000003E-002    -9.6637843150953806E-002
   8.1299999999999997E-002   -0.26668997023276231     
   8.1600000000000006E-002   -0.40903495334026019     
   8.1900000000000014E-002   -0.51889135956299448     
   8.2199999999999995E-002   -0.59343486035949944     
   8.2500000000000004E-002   -0.63163990426788885     
   8.2799999999999999E-002   -0.63404592327592724     
   8.3100000000000007E-002   -0.60274088475251730     
   8.3400000000000002E-002   -0.54123174134076280     
   8.3700000000000011E-002   -0.45406454714264122     
   8.4000000000000005E-002   -0.34641072280378182     
   8.4300000000000000E-002   -0.22376113948003251     
   8.4599999999999995E-002    -9.1843298816588703E-002
   8.4900000000000003E-002     4.4013160272437624E-002
   8.5199999999999998E-002    0.17916515533235233     
   8.5500000000000007E-002    0.30971587720423832     
   8.5800000000000001E-002    0.43275977091083551     
   8.6100000000000010E-002    0.54632040595197573     
   8.6399999999999991E-002    0.64913439545427210     
   8.6699999999999999E-002    0.74061293479698875     
   8.7000000000000008E-002    0.82042138846673751     
   8.7300000000000003E-002    0.88806438407239341     
   8.7599999999999997E-002    0.94254333859066008     
   8.7900000000000006E-002    0.98213018212545578     
   8.8200000000000014E-002     1.0043062407968613     
   8.8499999999999995E-002     1.0057670844524971     
   8.8800000000000004E-002    0.98252461645046552     
   8.9100000000000013E-002    0.93051840903577698     
   8.9399999999999993E-002    0.84625669621042121     
   8.9700000000000002E-002    0.72721158512051431     
   9.0000000000000011E-002    0.57254917737677147     
   9.0299999999999991E-002    0.38381265067488712     
   9.0600000000000000E-002    0.16522897989465735     
   9.0900000000000009E-002    -7.6138777525736501E-002
   9.1200000000000017E-002   -0.33091234878856657     
   9.1499999999999998E-002   -0.58746886779449881     
   9.1800000000000007E-002   -0.83264947152603419     
   9.2100000000000001E-002    -1.0532217285164513     
   9.2399999999999996E-002    -1.2365409988711953     
   9.2700000000000005E-002    -1.3717238385199195     
   9.3000000000000013E-002    -1.4505586726225772     
   9.3300000000000008E-002    -1.4682806983009300     
   9.3600000000000003E-002    -1.4240412820894619     
   9.3899999999999997E-002    -1.3209056222476221     
   9.4200000000000006E-002    -1.1656320910584839     
   9.4500000000000001E-002   -0.96815445342796380     
   9.4800000000000009E-002   -0.74069328710407945     
   9.5100000000000004E-002   -0.49702579743949116     
   9.5399999999999999E-002   -0.25141826364337660     
   9.5699999999999993E-002    -1.7698174576074033E-002
   9.6000000000000002E-002    0.19140957130222169     
   9.6300000000000011E-002    0.36493476663625302     
   9.6600000000000005E-002    0.49414756157845297     
   9.6900000000000000E-002    0.57257519132687662     
   9.7200000000000009E-002    0.59621225631253338     
   9.7499999999999989E-002    0.56360921703744182     
   9.7799999999999998E-002    0.47548768858269419     
   9.8100000000000007E-002    0.33490532410312746     
   9.8400000000000015E-002    0.14738020181698364     
   9.8699999999999996E-002    -7.9320919591832517E-002
   9.9000000000000005E-002   -0.33519047315759920     
   9.9300000000000013E-002   -0.60809380810693803     
   9.9599999999999994E-002   -0.88374369024122146     
   9.9900000000000003E-002    -1.1460696015955527     
  0.10020000000000001         -1.3781569337058528     
  0.10049999999999999         -1.5628758650604766     
  0.10080000000000000         -1.6839147267213193     
  0.10110000000000001         -1.7273130731171520     
  0.10140000000000000         -1.6824102447420444     
  0.10170000000000000         -1.5433756147878412     
  0.10200000000000001         -1.3101055331980120     
  0.10230000000000002        -0.98895748780789816     
  0.10260000000000000        -0.59298087518064690     
  0.10290000000000001        -0.14112583479043395     
  0.10320000000000000         0.34242869021748845     
  0.10350000000000001         0.82962613575020472     
  0.10380000000000000          1.2908647902834449     
  0.10410000000000001          1.6971220301665930     
  0.10440000000000001          2.0220486672793072     
  0.10470000000000000          2.2439262133347739     
  0.10500000000000000          2.3476485302550358     
  0.10530000000000000          2.3261081218342028     
  0.10560000000000000          2.1802975813288157     
  0.10590000000000001          1.9192470591491571     
  0.10620000000000000          1.5594203655686698     
  0.10650000000000001          1.1237451218301189     
  0.10679999999999999         0.63959800196516881     
  0.10710000000000000         0.13628051332648372     
  0.10740000000000001        -0.35647655003457146     
  0.10770000000000000        -0.81026575539170709     
  0.10800000000000000         -1.1999706697172616     
  0.10830000000000001         -1.5054354754643953     
  0.10859999999999999         -1.7124390849678193     
  0.10890000000000000         -1.8128610368763560     
  0.10920000000000001         -1.8048295924945847     
  0.10950000000000001         -1.6925965928066518     
  0.10979999999999999         -1.4861840954728152     
  0.11009999999999999         -1.2006646148934621     
  0.11040000000000001        -0.85432098568671222     
  0.11070000000000001        -0.46781754924653285     
  0.11100000000000000         -6.3516760071974154E-002
  0.11130000000000000         0.33588420769810590     
  0.11160000000000002         0.70913523449314964     
  0.11190000000000001          1.0376619245079546     
  0.11220000000000001          1.3058629233522545     
  0.11250000000000000          1.5018400879030338     
  0.11280000000000000          1.6186732421478425     
  0.11309999999999999          1.6547764824509130     
  0.11340000000000001          1.6132315490226716     
  0.11369999999999998          1.5013348614465016     
  0.11400000000000000          1.3305818204446282     
  0.11430000000000000          1.1157950305102560     
  0.11460000000000002         0.87350974241472201     
  0.11489999999999999         0.62061224562339490     
  0.11520000000000001         0.37351190912971433     
  0.11550000000000001         0.14741499135153546     
  0.11580000000000000         -4.4990058804410538E-002
  0.11609999999999999        -0.19469005047319771     
  0.11640000000000002        -0.29603060387594926     
  0.11670000000000001        -0.34644451406297705     
  0.11700000000000001        -0.34669619193281065     
  0.11730000000000000        -0.30060699227115606     
  0.11760000000000000        -0.21400597864893189     
  0.11789999999999999         -9.3693911318089906E-002
  0.11820000000000001          5.2564585921558216E-002
  0.11850000000000001         0.21651945232584380     
  0.11880000000000000         0.39040171463250672     
  0.11910000000000000         0.56707299488671126     
  0.11940000000000002         0.73998529184109785     
  0.11970000000000001         0.90295442751379795     
  0.12000000000000001          1.0501630676516811     
  0.12030000000000000          1.1764036201408032     
  0.12060000000000000          1.2765673334436798     
  0.12089999999999999          1.3456408513698861     
  0.12119999999999999          1.3790325423164660     
  0.12150000000000001          1.3721985060609256     
  0.12180000000000001          1.3212245877630409     
  0.12210000000000000          1.2232567710852180     
  0.12239999999999999          1.0766797426922921     
  0.12270000000000002         0.88147011166458000     
  0.12300000000000001         0.63907136126794128     
  0.12330000000000001         0.35307870487887705     
  0.12360000000000000          2.9404284627994492E-002
  0.12390000000000000        -0.32422489494567941     
  0.12419999999999999        -0.69869871212564583     
  0.12450000000000001         -1.0833604595906050     
  0.12480000000000001         -1.4663016975291168     
  0.12509999999999999         -1.8355300776460695     
  0.12540000000000001         -2.1794710718947314     
  0.12570000000000003         -2.4871616350478476     
  0.12600000000000000         -2.7486263378353755     
  0.12630000000000002         -2.9559827946179382     
  0.12659999999999999         -3.1037497269400660     
  0.12690000000000001         -3.1884093402962606     
  0.12719999999999998         -3.2087675431273510     
  0.12750000000000000         -3.1663490130624012     
  0.12780000000000002         -3.0647284655891980     
  0.12809999999999999         -2.9096839998190660     
  0.12840000000000001         -2.7079532414647787     
  0.12869999999999998         -2.4671573057582492     
  0.12900000000000000         -2.1961044201064794     
  0.12930000000000003         -1.9033288853669603     
  0.12959999999999999         -1.5965210903258722     
  0.12990000000000002         -1.2825478284901806     
  0.13019999999999998        -0.96763011397655774     
  0.13050000000000000        -0.65693462178862916     
  0.13080000000000003        -0.35392316508802946     
  0.13109999999999999         -6.1285106986092686E-002
  0.13140000000000002         0.21874104412029105     
  0.13169999999999998         0.48439327749242267     
  0.13200000000000001         0.73418621920809635     
  0.13229999999999997         0.96650230900589107     
  0.13260000000000000          1.1790553414202005     
  0.13290000000000002          1.3693823732032406     
  0.13319999999999999          1.5348293299456728     
  0.13350000000000001          1.6725539711188304     
  0.13380000000000003          1.7801948509842376     
  0.13410000000000000          1.8565695962060360     
  0.13440000000000002          1.9019888504308327     
  0.13469999999999999          1.9181644350421507     
  0.13500000000000001          1.9096648858932141     
  0.13529999999999998          1.8839966602622553     
  0.13560000000000000          1.8501960679682483     
  0.13590000000000002          1.8194234001962144     
  0.13619999999999999          1.8038709422713808     
  0.13650000000000001          1.8156759662217397     
  0.13680000000000003          1.8656468778363049     
  0.13710000000000000          1.9612049768547806     
  0.13740000000000002          2.1056010867962698     
  0.13769999999999999          2.2968818975736696     
  0.13800000000000001          2.5269239360204949     
  0.13829999999999998          2.7809902946854521     
  0.13860000000000000          3.0383665301923486     
  0.13890000000000002          3.2737786607911090     
  0.13919999999999999          3.4593147438618104     
  0.13950000000000001          3.5659599771098840     
  0.13979999999999998          3.5661956043784215     
  0.14010000000000000          3.4375994608218576     
  0.14040000000000002          3.1646644604323484     
  0.14069999999999999          2.7406080638216537     
  0.14100000000000001          2.1688404359855795     
  0.14130000000000004          1.4633704457678007     
  0.14160000000000000         0.64901103125654380     
  0.14189999999999997        -0.24092404325057259     
  0.14219999999999999         -1.1666637418629193     
  0.14250000000000002         -2.0837379322991323     
  0.14279999999999998         -2.9471454149351821     
  0.14310000000000000         -3.7141031576898484     
  0.14339999999999997         -4.3468950330303500     
  0.14369999999999999         -4.8165784336749908     
  0.14400000000000002         -5.1035984499087590     
  0.14429999999999998         -5.1997126865092866     
  0.14460000000000001         -5.1090011783394971     
  0.14490000000000003         -4.8464481068870668     
  0.14520000000000000         -4.4375089038474584     
  0.14550000000000002         -3.9159409990635368     
  0.14579999999999999         -3.3209327979262042     
  0.14610000000000001         -2.6947783694543972     
  0.14640000000000003         -2.0796162225276689     
  0.14670000000000000         -1.5139672671883133     
  0.14699999999999996         -1.0304726873039805     
  0.14729999999999999        -0.65339746215764549     
  0.14760000000000001        -0.39671234775274655     
  0.14789999999999998        -0.26356932765032504     
  0.14820000000000000        -0.24591635596835548     