  -1.4999999999999999E-002     0.0000000000000000     
  -1.4700000000000000E-002    -2.0889276129310019E-005
  -1.4400000000000000E-002    -9.2142916400916874E-005
  -1.4100000000000000E-002    -6.9628382334485650E-005
  -1.3800000000000000E-002    -2.3115891963243484E-005
  -1.3500000000000000E-002     1.1839235958177596E-004
  -1.3200000000000000E-002     6.1743281548842788E-004
  -1.2899999999999998E-002     6.5453577553853393E-004
  -1.2600000000000000E-002     8.3917233860120177E-004
  -1.2299999999999998E-002     1.3384267222136259E-003
  -1.2000000000000000E-002     1.1099730618298054E-003
  -1.1699999999999999E-002     1.7804581439122558E-003
  -1.1399999999999999E-002     2.2740478161722422E-003
  -1.1099999999999999E-002     3.0833918135613203E-003
  -1.0799999999999999E-002     4.8703518696129322E-003
  -1.0499999999999999E-002     5.4725483059883118E-003
  -1.0199999999999999E-002     7.9637309536337852E-003
  -9.8999999999999991E-003     9.4871465116739273E-003
  -9.5999999999999992E-003     9.9672051146626472E-003
  -9.2999999999999992E-003     1.0598452761769295E-002
  -8.9999999999999993E-003     5.2501508034765720E-003
  -8.6999999999999994E-003    -3.7890761159360409E-003
  -8.3999999999999995E-003    -2.4160087108612061E-002
  -8.0999999999999996E-003    -6.1461821198463440E-002
  -7.7999999999999988E-003   -0.11961743980646133     
  -7.4999999999999997E-003   -0.21606731414794922     
  -7.1999999999999998E-003   -0.35739731788635254     
  -6.8999999999999981E-003   -0.56517392396926880     
  -6.5999999999999982E-003   -0.86074173450469971     
  -6.3000000000000000E-003    -1.2615928649902344     
  -6.0000000000000001E-003    -1.8022526502609253     
  -5.6999999999999985E-003    -2.4995133876800537     
  -5.3999999999999986E-003    -3.3810317516326904     
  -5.1000000000000004E-003    -4.4665460586547852     
  -4.7999999999999987E-003    -5.7556843757629395     
  -4.5000000000000005E-003    -7.2518124580383301     
  -4.1999999999999989E-003    -8.9185085296630859     
  -3.8999999999999990E-003    -10.706399917602539     
  -3.5999999999999990E-003    -12.537574768066406     
  -3.2999999999999991E-003    -14.289139747619629     
  -2.9999999999999992E-003    -15.826908111572266     
  -2.6999999999999993E-003    -16.969156265258789     
  -2.3999999999999994E-003    -17.522287368774414     
  -2.0999999999999977E-003    -17.288257598876953     
  -1.7999999999999995E-003    -16.058893203735352     
  -1.4999999999999979E-003    -13.672832489013672     
  -1.1999999999999997E-003    -9.9985580444335938     
  -8.9999999999999976E-004    -4.9773011207580566     
  -5.9999999999999810E-004     1.3521649837493896     
  -2.9999999999999992E-004     8.8671674728393555     
   0.0000000000000000          17.314931869506836     
   3.0000000000000165E-004     26.343772888183594     
   5.9999999999999984E-004     35.506244659423828     
   9.0000000000000149E-004     44.266254425048828     
   1.2000000000000031E-003     52.062835693359375     
   1.5000000000000013E-003     58.319236755371094     
   1.8000000000000030E-003     62.506599426269531     
   2.1000000000000012E-003     64.193321228027344     
   2.3999999999999994E-003     63.065341949462891     
   2.7000000000000010E-003     58.990619659423828     
   2.9999999999999992E-003     52.016231536865234     
   3.3000000000000008E-003     42.381294250488281     
   3.6000000000000025E-003     30.519824981689453     
   3.9000000000000007E-003     17.008653640747070     
   4.2000000000000023E-003     2.5526862144470215     
   4.5000000000000005E-003    -12.081445693969727     
   4.7999999999999987E-003    -26.126037597656250     
   5.1000000000000004E-003    -38.845703125000000     
   5.4000000000000020E-003    -49.622379302978516     
   5.7000000000000037E-003    -57.972057342529297     
   5.9999999999999984E-003    -63.578861236572266     
   6.3000000000000000E-003    -66.325424194335938     
   6.6000000000000017E-003    -66.262016296386719     
   6.9000000000000034E-003    -63.615325927734375     
   7.2000000000000015E-003    -58.750389099121094     
   7.5000000000000032E-003    -52.121635437011719     
   7.8000000000000014E-003    -44.257408142089844     
   8.0999999999999996E-003    -35.691333770751953     
   8.4000000000000012E-003    -26.936042785644531     
   8.7000000000000029E-003    -18.457700729370117     
   9.0000000000000011E-003    -10.628447532653809     
   9.2999999999999992E-003    -3.7375469207763672     
   9.6000000000000009E-003     2.0305662155151367     
   9.8999999999999991E-003     6.5977482795715332     
   1.0200000000000001E-002     9.9607706069946289     
   1.0500000000000002E-002     12.206587791442871     
   1.0800000000000004E-002     13.475841522216797     
   1.1099999999999999E-002     13.940182685852051     
   1.1400000000000000E-002     13.810023307800293     
   1.1700000000000002E-002     13.281696319580078     
   1.2000000000000004E-002     12.549935340881348     
   1.2300000000000002E-002     11.792316436767578     
   1.2600000000000000E-002     11.137587547302246     
   1.2900000000000002E-002     10.700305938720703     
   1.3200000000000000E-002     10.537911415100098     
   1.3500000000000002E-002     10.673041343688965     
   1.3800000000000003E-002     11.101310729980469     
   1.4100000000000001E-002     11.765810966491699     
   1.4400000000000000E-002     12.602908134460449     
   1.4700000000000001E-002     13.517962455749512     
   1.4999999999999999E-002     14.402872085571289     
   1.5300000000000001E-002     15.161183357238770     
   1.5600000000000003E-002     15.683576583862305     
   1.5899999999999997E-002     15.888767242431641     
   1.6199999999999999E-002     15.713049888610840     
   1.6500000000000001E-002     15.109970092773438     
   1.6800000000000002E-002     14.078067779541016     
   1.7100000000000004E-002     12.631203651428223     
   1.7400000000000006E-002     10.818403244018555     
   1.7700000000000000E-002     8.7172746658325195     
   1.8000000000000002E-002     6.4127683639526367     
   1.8300000000000004E-002     4.0138096809387207     
   1.8600000000000005E-002     1.6263602972030640     
   1.8900000000000000E-002   -0.65009629726409912     
   1.9200000000000002E-002    -2.7189359664916992     
   1.9500000000000003E-002    -4.5124230384826660     
   1.9799999999999998E-002    -5.9791383743286133     
   2.0100000000000000E-002    -7.0889387130737305     
   2.0400000000000001E-002    -7.8462162017822266     
   2.0700000000000003E-002    -8.2649974822998047     
   2.0999999999999998E-002    -8.3849678039550781     
   2.1299999999999999E-002    -8.2600259780883789     
   2.1600000000000001E-002    -7.9414916038513184     
   2.1900000000000003E-002    -7.4955320358276367     
   2.2200000000000004E-002    -6.9749140739440918     
   2.2500000000000006E-002    -6.4266290664672852     
   2.2800000000000001E-002    -5.8952093124389648     
   2.3100000000000002E-002    -5.4012327194213867     
   2.3400000000000004E-002    -4.9653840065002441     
   2.3699999999999999E-002    -4.5946183204650879     
   2.4000000000000000E-002    -4.2818932533264160     
   2.4300000000000002E-002    -4.0278134346008301     
   2.4599999999999997E-002    -3.8169958591461182     
   2.4900000000000005E-002    -3.6390616893768311     
   2.5200000000000000E-002    -3.4886834621429443     
   2.5499999999999995E-002    -3.3497869968414307     
   2.5800000000000003E-002    -3.2222795486450195     
   2.6099999999999998E-002    -3.0993473529815674     
   2.6400000000000007E-002    -2.9733374118804932     
   2.6700000000000002E-002    -2.8478360176086426     
   2.6999999999999996E-002    -2.7105906009674072     
   2.7300000000000005E-002    -2.5588190555572510     
   2.7600000000000000E-002    -2.3861560821533203     
   2.7900000000000008E-002    -2.1749536991119385     
   2.8200000000000003E-002    -1.9222406148910522     
   2.8499999999999998E-002    -1.6093258857727051     
   2.8800000000000006E-002    -1.2242240905761719     
   2.9100000000000001E-002   -0.76354104280471802     
   2.9400000000000003E-002   -0.21225455403327942     
   2.9700000000000004E-002    0.42227414250373840     
   3.0000000000000006E-002     1.1365222930908203     
   3.0300000000000001E-002     1.9203206300735474     
   3.0600000000000002E-002     2.7442157268524170     
   3.0900000000000004E-002     3.5876686573028564     
   3.1199999999999999E-002     4.4102950096130371     
   3.1500000000000007E-002     5.1712503433227539     
   3.1800000000000002E-002     5.8342294692993164     
   3.2099999999999997E-002     6.3505096435546875     
   3.2400000000000005E-002     6.6881642341613770     
   3.2700000000000000E-002     6.8168516159057617     
   3.3000000000000002E-002     6.7129855155944824     
   3.3300000000000003E-002     6.3757081031799316     
   3.3599999999999998E-002     5.8074483871459961     
   3.3900000000000000E-002     5.0307316780090332     
   3.4200000000000001E-002     4.0848302841186523     
   3.4500000000000003E-002     3.0109732151031494     
   3.4799999999999998E-002     1.8699268102645874     
   3.5099999999999999E-002    0.72185570001602173     
   3.5400000000000001E-002   -0.37543165683746338     
   3.5699999999999996E-002    -1.3581137657165527     
   3.6000000000000004E-002    -2.1828248500823975     
   3.6299999999999999E-002    -2.8104565143585205     
   3.6600000000000008E-002    -3.2154550552368164     
   3.6900000000000002E-002    -3.3975832462310791     
   3.7199999999999997E-002    -3.3587818145751953     
   3.7500000000000006E-002    -3.1269974708557129     
   3.7800000000000000E-002    -2.7397801876068115     
   3.8100000000000009E-002    -2.2357666492462158     
   3.8400000000000004E-002    -1.6736295223236084     
   3.8699999999999998E-002    -1.0977903604507446     
   3.9000000000000007E-002   -0.55752909183502197     
   3.9300000000000002E-002    -9.9216014146804810E-002
   3.9600000000000003E-002    0.25295907258987427     
   3.9900000000000005E-002    0.46872371435165405     
   4.0200000000000000E-002    0.54185169935226440     
   4.0500000000000001E-002    0.47448450326919556     
   4.0800000000000003E-002    0.27081525325775146     
   4.1100000000000005E-002    -4.2014516890048981E-002
   4.1399999999999999E-002   -0.44380205869674683     
   4.1700000000000008E-002   -0.90333932638168335     
   4.2000000000000003E-002    -1.3827662467956543     
   4.2299999999999997E-002    -1.8547639846801758     
   4.2600000000000006E-002    -2.2788469791412354     
   4.2900000000000001E-002    -2.6250653266906738     
   4.3200000000000002E-002    -2.8673913478851318     
   4.3500000000000004E-002    -2.9748275279998779     
   4.3799999999999999E-002    -2.9354670047760010     
   4.4100000000000000E-002    -2.7341618537902832     
   4.4400000000000002E-002    -2.3681952953338623     
   4.4700000000000004E-002    -1.8500455617904663     
   4.4999999999999998E-002    -1.1920192241668701     
   4.5300000000000000E-002   -0.42822572588920593     
   4.5600000000000002E-002    0.40333878993988037     
   4.5899999999999996E-002     1.2593066692352295     
   4.6200000000000005E-002     2.0833315849304199     
   4.6500000000000000E-002     2.8291361331939697     
   4.6799999999999994E-002     3.4485995769500732     
   4.7100000000000003E-002     3.9019649028778076     
   4.7399999999999998E-002     4.1685190200805664     
   4.7700000000000006E-002     4.2345738410949707     
   4.8000000000000001E-002     4.1097607612609863     
   4.8300000000000010E-002     3.8175327777862549     
   4.8600000000000004E-002     3.3914067745208740     
   4.8899999999999999E-002     2.8798751831054688     
   4.9200000000000008E-002     2.3291792869567871     
   4.9500000000000002E-002     1.7851095199584961     
   4.9800000000000011E-002     1.2874780893325806     
   5.0100000000000006E-002    0.85967427492141724     
   5.0400000000000000E-002    0.51274484395980835     
   5.0700000000000009E-002    0.24299524724483490     
   5.1000000000000004E-002     2.8443038463592529E-002
   5.1299999999999998E-002   -0.15768073499202728     
   5.1600000000000007E-002   -0.34999912977218628     
   5.1900000000000002E-002   -0.58417463302612305     
   5.2200000000000010E-002   -0.88267594575881958     
   5.2500000000000005E-002    -1.2645206451416016     
   5.2800000000000000E-002    -1.7278233766555786     
   5.3099999999999994E-002    -2.2544517517089844     
   5.3400000000000003E-002    -2.8177328109741211     
   5.3699999999999998E-002    -3.3690736293792725     
   5.4000000000000006E-002    -3.8617947101593018     
   5.4300000000000001E-002    -4.2458243370056152     
   5.4599999999999996E-002    -4.4720993041992188     
   5.4900000000000004E-002    -4.5130972862243652     
   5.5199999999999999E-002    -4.3466444015502930     
   5.5499999999999994E-002    -3.9754011631011963     
   5.5800000000000002E-002    -3.4213407039642334     
   5.6099999999999997E-002    -2.7164146900177002     
   5.6400000000000006E-002    -1.9152714014053345     
   5.6700000000000000E-002    -1.0717408657073975     
   5.6999999999999995E-002   -0.24457789957523346     
   5.7300000000000004E-002    0.50881361961364746     
   5.7599999999999998E-002     1.1476596593856812     
   5.7900000000000007E-002     1.6377213001251221     
   5.8200000000000002E-002     1.9632513523101807     
   5.8499999999999996E-002     2.1258296966552734     
   5.8800000000000005E-002     2.1364717483520508     
   5.9100000000000000E-002     2.0227966308593750     
   5.9400000000000008E-002     1.8178546428680420     
   5.9700000000000003E-002     1.5568785667419434     
   6.0000000000000012E-002     1.2796065807342529     
   6.0300000000000006E-002     1.0182313919067383     
   6.0600000000000001E-002    0.80082207918167114     
   6.0900000000000010E-002    0.65107959508895874     
   6.1200000000000004E-002    0.57996654510498047     
   6.1500000000000013E-002    0.59531366825103760     
   6.1800000000000008E-002    0.69795674085617065     
   6.2100000000000002E-002    0.87858641147613525     
   6.2399999999999997E-002     1.1297448873519897     
   6.2700000000000006E-002     1.4345654249191284     
   6.3000000000000000E-002     1.7741729021072388     
   6.3300000000000009E-002     2.1317670345306396     
   6.3600000000000004E-002     2.4802005290985107     
   6.3899999999999998E-002     2.8003008365631104     
   6.4199999999999993E-002     3.0684142112731934     
   6.4500000000000002E-002     3.2590188980102539     
   6.4800000000000010E-002     3.3582482337951660     
   6.5100000000000005E-002     3.3438713550567627     
   6.5400000000000000E-002     3.2066307067871094     
   6.5700000000000008E-002     2.9426929950714111     
   6.5999999999999989E-002     2.5458900928497314     
   6.6299999999999998E-002     2.0297126770019531     
   6.6600000000000006E-002     1.4024416208267212     
   6.6900000000000001E-002    0.68222647905349731     
   6.7199999999999996E-002   -0.10224904119968414     
   6.7500000000000004E-002   -0.93205100297927856     
   6.7800000000000013E-002    -1.7710902690887451     
   6.8099999999999994E-002    -2.5914747714996338     
   6.8400000000000002E-002    -3.3668484687805176     
   6.8700000000000011E-002    -4.0605792999267578     
   6.8999999999999992E-002    -4.6549811363220215     
   6.9300000000000000E-002    -5.1215929985046387     
   6.9600000000000009E-002    -5.4409871101379395     
   6.9900000000000004E-002    -5.6055521965026855     
   7.0199999999999999E-002    -5.5982155799865723     
   7.0500000000000007E-002    -5.4247865676879883     
   7.0800000000000016E-002    -5.0876097679138184     
   7.1099999999999997E-002    -4.5961055755615234     
   7.1400000000000005E-002    -3.9771595001220703     
   7.1700000000000000E-002    -3.2486758232116699     
   7.1999999999999995E-002    -2.4468765258789062     
   7.2300000000000003E-002    -1.6070821285247803     
   7.2600000000000012E-002   -0.76130527257919312     
   7.2900000000000006E-002     4.7821436077356339E-002
   7.3200000000000001E-002    0.79225772619247437     
   7.3499999999999996E-002     1.4424670934677124     
   7.3800000000000004E-002     1.9752041101455688     
   7.4099999999999999E-002     2.3822691440582275     
   7.4400000000000008E-002     2.6555409431457520     
   7.4700000000000003E-002     2.8011445999145508     
   7.5000000000000011E-002     2.8330168724060059     
   7.5299999999999992E-002     2.7660520076751709     
   7.5600000000000001E-002     2.6260099411010742     
   7.5900000000000009E-002     2.4368145465850830     
   7.6200000000000004E-002     2.2211825847625732     
   7.6499999999999999E-002     2.0049319267272949     
   7.6800000000000007E-002     1.8045502901077271     
   7.7099999999999988E-002     1.6351466178894043     
   7.7399999999999997E-002     1.5090274810791016     
   7.7700000000000005E-002     1.4266331195831299     
   7.8000000000000014E-002     1.3917540311813354     
   7.8299999999999995E-002     1.4005219936370850     
   7.8600000000000003E-002     1.4431172609329224     
   7.8900000000000012E-002     1.5164250135421753     
   7.9199999999999993E-002     1.6057759523391724     
   7.9500000000000001E-002     1.7023363113403320     
   7.9800000000000010E-002     1.7979429960250854     
   8.0100000000000018E-002     1.8762578964233398     
   8.0399999999999999E-002     1.9338318109512329     
   8.0700000000000008E-002     1.9573128223419189     
   8.1000000000000003E-002     1.9378889799118042     
   8.1299999999999997E-002     1.8738698959350586     
   8.1600000000000006E-002     1.7520585060119629     
   8.1900000000000014E-002     1.5747607946395874     
   8.2199999999999995E-002     1.3388750553131104     
   8.2500000000000004E-002     1.0411677360534668     
   8.2799999999999999E-002    0.69214075803756714     
   8.3100000000000007E-002    0.28977757692337036     
   8.3400000000000002E-002   -0.15421280264854431     
   8.3700000000000011E-002   -0.62872099876403809     
   8.4000000000000005E-002    -1.1280356645584106     
   8.4300000000000000E-002    -1.6313655376434326     
   8.4599999999999995E-002    -2.1305367946624756     
   8.4900000000000003E-002    -2.6092121601104736     
   8.5199999999999998E-002    -3.0486776828765869     
   8.5500000000000007E-002    -3.4410934448242188     
   8.5800000000000001E-002    -3.7654051780700684     
   8.6100000000000010E-002    -4.0121564865112305     
   8.6399999999999991E-002    -4.1717915534973145     
   8.6699999999999999E-002    -4.2301464080810547     
   8.7000000000000008E-002    -4.1881661415100098     
   8.7300000000000003E-002    -4.0394945144653320     
   8.7599999999999997E-002    -3.7867212295532227     
   8.7900000000000006E-002    -3.4400260448455811     
   8.8200000000000014E-002    -3.0046300888061523     
   8.8499999999999995E-002    -2.5002772808074951     
   8.8800000000000004E-002    -1.9437859058380127     
   8.9100000000000013E-002    -1.3543078899383545     
   8.9399999999999993E-002   -0.75812822580337524     
   8.9700000000000002E-002   -0.17385458946228027     
   9.0000000000000011E-002    0.37616094946861267     
   9.0299999999999991E-002    0.87252467870712280     
   9.0600000000000000E-002     1.3037760257720947     
   9.0900000000000009E-002     1.6580178737640381     
   9.1200000000000017E-002     1.9313492774963379     
   9.1499999999999998E-002     2.1266565322875977     
   9.1800000000000007E-002     2.2465472221374512     
   9.2100000000000001E-002     2.3031303882598877     
   9.2399999999999996E-002     2.3090922832489014     
   9.2700000000000005E-002     2.2764525413513184     
   9.3000000000000013E-002     2.2241413593292236     
   9.3300000000000008E-002     2.1629047393798828     
   9.3600000000000003E-002     2.1052241325378418     
   9.3899999999999997E-002     2.0635282993316650     
   9.4200000000000006E-002     2.0384418964385986     
   9.4500000000000001E-002     2.0369417667388916     
   9.4800000000000009E-002     2.0562832355499268     
   9.5100000000000004E-002     2.0891282558441162     
   9.5399999999999999E-002     2.1342525482177734     
   9.5699999999999993E-002     2.1758980751037598     
   9.6000000000000002E-002     2.2074127197265625     
   9.6300000000000011E-002     2.2187802791595459     
   9.6600000000000005E-002     2.1942520141601562     
   9.6900000000000000E-002     2.1317341327667236     
   9.7200000000000009E-002     2.0169954299926758     
   9.7499999999999989E-002     1.8459709882736206     
   9.7799999999999998E-002     1.6185415983200073     
   9.8100000000000007E-002     1.3267482519149780     
   9.8400000000000015E-002    0.97984433174133301     
   9.8699999999999996E-002    0.57855427265167236     
   9.9000000000000005E-002    0.12960386276245117     
   9.9300000000000013E-002   -0.35098004341125488     
   9.9599999999999994E-002   -0.85809701681137085     
   9.9900000000000003E-002    -1.3714039325714111     
  0.10020000000000001         -1.8767132759094238     
  0.10049999999999999         -2.3607287406921387     
  0.10080000000000000         -2.8007550239562988     
  0.10110000000000001         -3.1882758140563965     
  0.10140000000000000         -3.5060310363769531     
  0.10170000000000000         -3.7417883872985840     
  0.10200000000000001         -3.8919310569763184     
  0.10230000000000002         -3.9448895454406738     
  0.10260000000000000         -3.9029369354248047     
  0.10290000000000001         -3.7662324905395508     
  0.10320000000000000         -3.5358910560607910     
  0.10350000000000001         -3.2240815162658691     
  0.10380000000000000         -2.8357462882995605     
  0.10410000000000001         -2.3845238685607910     
  0.10440000000000001         -1.8864090442657471     
  0.10470000000000000         -1.3525825738906860     
  0.10500000000000000        -0.80472940206527710     
  0.10530000000000000        -0.25820660591125488     
  0.10560000000000000         0.26972141861915588     
  0.10590000000000001         0.75791221857070923     
  0.10620000000000000          1.1941663026809692     
  0.10650000000000001          1.5612524747848511     
  0.10679999999999999          1.8481328487396240     
  0.10710000000000000          2.0497698783874512     
  0.10740000000000001          2.1594474315643311     
  0.10770000000000000          2.1818542480468750     
  0.10800000000000000          2.1232054233551025     
  0.10830000000000001          1.9926532506942749     
  0.10859999999999999          1.8087016344070435     
  0.10890000000000000          1.5862218141555786     
  0.10920000000000001          1.3452239036560059     
  0.10950000000000001          1.1068695783615112     
  0.10979999999999999         0.88658410310745239     
  0.11009999999999999         0.70346456766128540     
  0.11040000000000001         0.56863629817962646     
  0.11070000000000001         0.49000081419944763     
  0.11100000000000000         0.47452908754348755     
  0.11130000000000000         0.51921451091766357     
  0.11160000000000002         0.62151455879211426     
  0.11190000000000001         0.77371382713317871     
  0.11220000000000001         0.96247446537017822     
  0.11250000000000000          1.1772078275680542     
  0.11280000000000000          1.4007685184478760     
  0.11309999999999999          1.6173027753829956     
  0.11340000000000001          1.8123489618301392     
  0.11369999999999998          1.9677652120590210     
  0.11400000000000000          2.0716547966003418     
  0.11430000000000000          2.1110129356384277     
  0.11460000000000002          2.0755581855773926     
  0.11489999999999999          1.9607559442520142     
  0.11520000000000001          1.7622245550155640     
  0.11550000000000001          1.4818580150604248     
  0.11580000000000000          1.1254405975341797     
  0.11609999999999999         0.70151019096374512     
  0.11640000000000002         0.22381675243377686     
  0.11670000000000001        -0.29171302914619446     
  0.11700000000000001        -0.82721120119094849     
  0.11730000000000000         -1.3618981838226318     
  0.11760000000000000         -1.8764719963073730     
  0.11789999999999999         -2.3519403934478760     
  0.11820000000000001         -2.7695293426513672     
  0.11850000000000001         -3.1159970760345459     
  0.11880000000000000         -3.3789105415344238     
  0.11910000000000000         -3.5496969223022461     
  0.11940000000000002         -3.6259970664978027     
  0.11970000000000001         -3.6050848960876465     
  0.12000000000000001         -3.4911668300628662     
  0.12030000000000000         -3.2909290790557861     
  0.12060000000000000         -3.0106890201568604     
  0.12089999999999999         -2.6652195453643799     
  0.12119999999999999         -2.2649040222167969     
  0.12150000000000001         -1.8253509998321533     
  0.12180000000000001         -1.3645354509353638     
  0.12210000000000000        -0.89509761333465576     
  0.12239999999999999        -0.43791037797927856     
  0.12270000000000002         -6.5831672400236130E-003
  0.12300000000000001         0.38438472151756287     
  0.12330000000000001         0.71940547227859497     
  0.12360000000000000         0.99268215894699097     
  0.12390000000000000          1.1946842670440674     
  0.12419999999999999          1.3239983320236206     
  0.12450000000000001          1.3842264413833618     
  0.12480000000000001          1.3771286010742188     
  0.12509999999999999          1.3157217502593994     
  0.12540000000000001          1.2102526426315308     
  0.12570000000000003          1.0738687515258789     
  0.12600000000000000         0.92461812496185303     
  0.12630000000000002         0.77315461635589600     
  0.12659999999999999         0.63582867383956909     
  0.12690000000000001         0.52389299869537354     
  0.12719999999999998         0.44448477029800415     
  0.12750000000000000         0.40756690502166748     
  0.12780000000000002         0.41402411460876465     
  0.12809999999999999         0.46575048565864563     
  0.12840000000000001         0.56269669532775879     
  0.12869999999999998         0.69801783561706543     
  0.12900000000000000         0.86905372142791748     
  0.12930000000000003          1.0669242143630981     
  0.12959999999999999          1.2818294763565063     
  0.12990000000000002          1.5063092708587646     
  0.13019999999999998          1.7262510061264038     
  0.13050000000000000          1.9321858882904053     
  0.13080000000000003          2.1124544143676758     
  0.13109999999999999          2.2540106773376465     
  0.13140000000000002          2.3496332168579102     
  0.13169999999999998          2.3890659809112549     
  0.13200000000000001          2.3666324615478516     
  0.13229999999999997          2.2806537151336670     
  0.13260000000000000          2.1284954547882080     
  0.13290000000000002          1.9151320457458496     
  0.13319999999999999          1.6459484100341797     
  0.13350000000000001          1.3275737762451172     
  0.13380000000000003         0.97302085161209106     
  0.13410000000000000         0.59132200479507446     
  0.13440000000000002         0.19489532709121704     
  0.13469999999999999        -0.20281274616718292     
  0.13500000000000001        -0.59320133924484253     
  0.13529999999999998        -0.96372127532958984     
  0.13560000000000000         -1.3068087100982666     
  0.13590000000000002         -1.6163669824600220     
  0.13619999999999999         -1.8845397233963013     
  0.13650000000000001         -2.1106953620910645     
  0.13680000000000003         -2.2912750244140625     
  0.13710000000000000         -2.4255852699279785     
  0.13740000000000002         -2.5178456306457520     
  0.13769999999999999         -2.5676681995391846     
  0.13800000000000001         -2.5823941230773926     
  0.13829999999999998         -2.5676312446594238     
  0.13860000000000000         -2.5285623073577881     
  0.13890000000000002         -2.4763197898864746     
  0.13919999999999999         -2.4155292510986328     
  0.13950000000000001         -2.3552653789520264     
  0.13979999999999998         -2.3025026321411133     
  0.14010000000000000         -2.2591061592102051     
  0.14040000000000002         -2.2305321693420410     
  0.14069999999999999         -2.2141828536987305     
  0.14100000000000001         -2.2072420120239258     
  0.14130000000000004         -2.2055177688598633     
  0.14160000000000000         -2.1983914375305176     
  0.14189999999999997         -2.1785254478454590     
  0.14219999999999999         -2.1345539093017578     
  0.14250000000000002         -2.0551927089691162     
  0.14279999999999998         -1.9327350854873657     
  0.14310000000000000         -1.7574325799942017     
  0.14339999999999997         -1.5242415666580200     
  0.14369999999999999         -1.2307540178298950     
  0.14400000000000002        -0.87504661083221436     
  0.14429999999999998        -0.46141883730888367     
  0.14460000000000001          5.8042071759700775E-003
  0.14490000000000003         0.51955479383468628     
  0.14520000000000000          1.0683215856552124     
  0.14550000000000002          1.6429042816162109     
  0.14579999999999999          2.2297825813293457     
  0.14610000000000001          2.8151204586029053     
  0.14640000000000003          3.3867433071136475     
  0.14670000000000000          3.9286606311798096     
  0.14699999999999996          4.4281840324401855     
  0.14729999999999999          4.8722863197326660     
  0.14760000000000001          5.2469744682312012     
  0.14789999999999998          5.5434441566467285     
  0.14820000000000000          5.7506971359252930     