  -1.4999999999999999E-002     0.0000000000000000     
  -1.4700000000000000E-002     0.0000000000000000     
  -1.4400000000000000E-002     0.0000000000000000     
  -1.4100000000000000E-002     0.0000000000000000     
  -1.3800000000000000E-002     0.0000000000000000     
  -1.3500000000000000E-002     0.0000000000000000     
  -1.3200000000000000E-002     0.0000000000000000     
  -1.2899999999999998E-002     0.0000000000000000     
  -1.2600000000000000E-002     0.0000000000000000     
  -1.2299999999999998E-002     0.0000000000000000     
  -1.2000000000000000E-002     0.0000000000000000     
  -1.1699999999999999E-002     0.0000000000000000     
  -1.1399999999999999E-002     0.0000000000000000     
  -1.1099999999999999E-002     0.0000000000000000     
  -1.0799999999999999E-002     0.0000000000000000     
  -1.0499999999999999E-002     0.0000000000000000     
  -1.0199999999999999E-002     0.0000000000000000     
  -9.8999999999999991E-003     0.0000000000000000     
  -9.5999999999999992E-003     9.2254799690978805E-038
  -9.2999999999999992E-003     3.3269518136901691E-036
  -8.9999999999999993E-003    -6.9709847508468119E-035
  -8.6999999999999994E-003     5.0602463978464798E-034
  -8.3999999999999995E-003     2.9214618837323408E-034
  -8.0999999999999996E-003    -1.4176727416305956E-032
  -7.7999999999999988E-003     7.9092867334531121E-032
  -7.4999999999999997E-003    -2.2405557884703734E-031
  -7.1999999999999998E-003     3.3906064432034779E-031
  -6.8999999999999981E-003    -2.5207267894644303E-031
  -6.5999999999999982E-003    -5.2289701828154239E-031
  -6.3000000000000000E-003     1.1807579044423111E-029
  -6.0000000000000001E-003    -7.6255356984841289E-029
  -5.6999999999999985E-003     1.4643851447501106E-028
  -5.3999999999999986E-003     1.1121791487055894E-027
  -5.1000000000000004E-003    -1.2296423225556231E-026
  -4.7999999999999987E-003     7.4123133167948139E-026
  -4.5000000000000005E-003    -3.4360454354548778E-025
  -4.1999999999999989E-003     1.2893751050970707E-024
  -3.8999999999999990E-003    -3.8958782444732498E-024
  -3.5999999999999990E-003     9.2611424845066279E-024
  -3.2999999999999991E-003    -1.6363598809628179E-023
  -2.9999999999999992E-003     1.7584932739779031E-023
  -2.6999999999999993E-003     3.0219395828623679E-024
  -2.3999999999999994E-003    -5.0631189400065657E-023
  -2.0999999999999977E-003     4.3732778387033932E-023
  -1.7999999999999995E-003     3.6124968510885252E-022
  -1.4999999999999979E-003    -2.0548521873898525E-021
  -1.1999999999999997E-003     6.7704487243396219E-021
  -8.9999999999999976E-004    -1.7045763960361895E-020
  -5.9999999999999810E-004     3.5029273796840879E-020
  -2.9999999999999992E-004    -5.8647034057411158E-020
   0.0000000000000000          7.3345706039598168E-020
   3.0000000000000165E-004    -3.9028949681581214E-020
   5.9999999999999984E-004    -1.2348030175720903E-019
   9.0000000000000149E-004     5.3395149860579639E-019
   1.2000000000000031E-003    -1.3215414292973622E-018
   1.5000000000000013E-003     2.5380643298806790E-018
   1.8000000000000030E-003    -3.9976873835442431E-018
   2.1000000000000012E-003     5.0236696767428937E-018
   2.3999999999999994E-003    -4.0747492670506644E-018
   2.7000000000000010E-003    -1.6500688160905937E-018
   2.9999999999999992E-003     1.5764016612273919E-017
   3.3000000000000008E-003    -3.8501579080952611E-017
   3.6000000000000025E-003     5.4631423654891825E-017
   3.9000000000000007E-003    -2.2526469457962221E-017
   4.2000000000000023E-003    -6.3835119839600773E-017
   4.5000000000000005E-003    -1.5946743061975977E-016
   4.7999999999999987E-003     2.1822073887045816E-015
   5.1000000000000004E-003    -8.6835371308092636E-015
   5.4000000000000020E-003     1.7477239831077374E-014
   5.7000000000000037E-003     2.0309056235657425E-015
   5.9999999999999984E-003    -1.5047162887302805E-013
   6.3000000000000000E-003     5.7993311700832136E-013
   6.6000000000000017E-003    -1.1470144374059903E-012
   6.9000000000000034E-003     3.7132154946187677E-013
   7.2000000000000015E-003     5.7468305200133849E-012
   7.5000000000000032E-003    -2.0860061580140818E-011
   7.8000000000000014E-003     3.1121402562908892E-011
   8.0999999999999996E-003     3.2577533828354689E-011
   8.4000000000000012E-003    -3.0344529126786659E-010
   8.7000000000000029E-003     7.4726379432744655E-010
   9.0000000000000011E-003    -3.8802562770167797E-010
   9.2999999999999992E-003    -3.2691420538014020E-009
   9.6000000000000009E-003     1.0395180018164422E-008
   9.8999999999999991E-003    -6.2985530412504934E-009
   1.0200000000000001E-002    -3.8016601881200017E-008
   1.0500000000000002E-002     8.8977009812216342E-008
   1.0800000000000004E-002     4.4154578731892918E-008
   1.1099999999999999E-002    -3.9296444647498418E-007
   1.1400000000000000E-002     4.7821499058138593E-008
   1.1700000000000002E-002     1.2996744484566889E-006
   1.2000000000000004E-002    -2.4338029147687515E-008
   1.2300000000000002E-002    -4.0799081981261579E-006
   1.2600000000000000E-002    -2.0746400310436676E-006
   1.2900000000000002E-002     1.7781046264354216E-005
   1.3200000000000000E-002     6.0346574364416781E-005
   1.3500000000000002E-002     1.2457335086039521E-004
   1.3800000000000003E-002     2.1389606740917751E-004
   1.4100000000000001E-002     3.4234045131397925E-004
   1.4400000000000000E-002     5.3647975027636477E-004
   1.4700000000000001E-002     8.3724561768543787E-004
   1.4999999999999999E-002     1.3011296786406522E-003
   1.5300000000000001E-002     2.0059444430691672E-003
   1.5600000000000003E-002     3.0578539069335275E-003
   1.5899999999999997E-002     4.6001264673906639E-003
   1.6199999999999999E-002     6.8297362542751316E-003
   1.6500000000000001E-002     1.0011087292488480E-002
   1.6800000000000002E-002     1.4482154838238448E-002
   1.7100000000000004E-002     2.0662977486300083E-002
   1.7400000000000006E-002     2.9072910953442666E-002
   1.7700000000000000E-002     4.0339895373894041E-002
   1.8000000000000002E-002     5.5182090808072681E-002
   1.8300000000000004E-002     7.4379845364432429E-002
   1.8600000000000005E-002     9.8750149246973784E-002
   1.8900000000000000E-002    0.12909241930022830     
   1.9200000000000002E-002    0.16610272974324314     
   1.9500000000000003E-002    0.21025575649056449     
   1.9799999999999998E-002    0.26164372672607250     
   2.0100000000000000E-002    0.31982569863895627     
   2.0400000000000001E-002    0.38363764102451192     
   2.0700000000000003E-002    0.45101332277534034     
   2.0999999999999998E-002    0.51883298626983532     
   2.1299999999999999E-002    0.58278732318285087     
   2.1600000000000001E-002    0.63738050092028686     
   2.1900000000000003E-002    0.67593457690579228     
   2.2200000000000004E-002    0.69082069331426510     
   2.2500000000000006E-002    0.67381581403623159     
   2.2800000000000001E-002    0.61660587911787701     
   2.3100000000000002E-002    0.51150784644057445     
   2.3400000000000004E-002    0.35216017996804005     
   2.3699999999999999E-002    0.13448896537978339     
   2.4000000000000000E-002   -0.14247631230895408     
   2.4300000000000002E-002   -0.47579533725932821     
   2.4599999999999997E-002   -0.85810463884207699     
   2.4900000000000005E-002    -1.2772403791697862     
   2.5200000000000000E-002    -1.7162662462431513     
   2.5499999999999995E-002    -2.1541351370162118     
   2.5800000000000003E-002    -2.5665052340346151     
   2.6099999999999998E-002    -2.9271781969407584     
   2.6400000000000007E-002    -3.2097262326172853     
   2.6700000000000002E-002    -3.3893660579776537     
   2.6999999999999996E-002    -3.4450733935933044     
   2.7300000000000005E-002    -3.3614473929881967     
   2.7600000000000000E-002    -3.1301871197234590     
   2.7900000000000008E-002    -2.7512070251364094     
   2.8200000000000003E-002    -2.2331183419600222     
   2.8499999999999998E-002    -1.5928220520045073     
   2.8800000000000006E-002   -0.85493113985009828     
   2.9100000000000001E-002    -4.9905677959639849E-002
   2.9400000000000003E-002    0.78762877947026766     
   2.9700000000000004E-002     1.6212880618192429     
   3.0000000000000006E-002     2.4155853268354477     
   3.0300000000000001E-002     3.1377059482721563     
   3.0600000000000002E-002     3.7599942415085934     
   3.0900000000000004E-002     4.2610579188088025     
   3.1199999999999999E-002     4.6266573455072972     
   3.1500000000000007E-002     4.8501649038705921     
   3.1800000000000002E-002     4.9318975828467444     
   3.2099999999999997E-002     4.8786008010946489     
   3.2400000000000005E-002     4.7018634022514902     
   3.2700000000000000E-002     4.4167514626072659     
   3.3000000000000002E-002     4.0402338881812909     
   3.3300000000000003E-002     3.5896806556269780     
   3.3599999999999998E-002     3.0815986247967544     
   3.3900000000000000E-002     2.5306669547651381     
   3.4200000000000001E-002     1.9493034827222928     
   3.4500000000000003E-002     1.3473355832686593     
   3.4799999999999998E-002    0.73263677473450528     
   3.5099999999999999E-002    0.11130207065408593     
   3.5400000000000001E-002   -0.51130496233570355     
   3.5699999999999996E-002    -1.1294374999836112     
   3.6000000000000004E-002    -1.7365665941269661     
   3.6299999999999999E-002    -2.3238300633715809     
   3.6600000000000008E-002    -2.8799405275405761     
   3.6900000000000002E-002    -3.3906068699934764     
   3.7199999999999997E-002    -3.8388378531402481     
   3.7500000000000006E-002    -4.2054830899957381     
   3.7800000000000000E-002    -4.4703820162341827     
   3.8100000000000009E-002    -4.6138063363310096     
   3.8400000000000004E-002    -4.6179653491200838     
   3.8699999999999998E-002    -4.4695374436482780     
   3.9000000000000007E-002    -4.1605974382374882     
   3.9300000000000002E-002    -3.6909421428129008     
   3.9600000000000003E-002    -3.0689251291017285     
   3.9900000000000005E-002    -2.3120173419550127     
   4.0200000000000000E-002    -1.4469109264415749     
   4.0500000000000001E-002   -0.50809258176538385     
   4.0800000000000003E-002    0.46321887592334932     
   4.1100000000000005E-002     1.4218128886265173     
   4.1399999999999999E-002     2.3209244666699327     
   4.1700000000000008E-002     3.1151378558014713     
   4.2000000000000003E-002     3.7635807244540445     
   4.2299999999999997E-002     4.2323351999210104     
   4.2600000000000006E-002     4.4967066682017958     
   4.2900000000000001E-002     4.5429542991811047     
   4.3200000000000002E-002     4.3690604417302268     
   4.3500000000000004E-002     3.9844075295542041     
   4.3799999999999999E-002     3.4097293882975919     
   4.4100000000000000E-002     2.6753820520464302     
   4.4400000000000002E-002     1.8195336616451101     
   4.4700000000000004E-002    0.88646389666538639     
   4.4999999999999998E-002    -7.6613161706529098E-002
   4.5300000000000000E-002    -1.0215758357918148     
   4.5600000000000002E-002    -1.9020412182450830     
   4.5899999999999996E-002    -2.6754350244836687     
   4.6200000000000005E-002    -3.3052278202090477     
   4.6500000000000000E-002    -3.7630328649177471     
   4.6799999999999994E-002    -4.0292123891990883     
   4.7100000000000003E-002    -4.0950190765501446     
   4.7399999999999998E-002    -3.9624709887450535     
   4.7700000000000006E-002    -3.6446818192403185     
   4.8000000000000001E-002    -3.1651209552768194     
   4.8300000000000010E-002    -2.5565602778682432     
   4.8600000000000004E-002    -1.8597045981237699     
   4.8899999999999999E-002    -1.1204329921653553     
   4.9200000000000008E-002   -0.38772500265843046     
   4.9500000000000002E-002    0.29017823813760302     
   4.9800000000000011E-002    0.86816755260569956     
   5.0100000000000006E-002     1.3078075933433970     
   5.0400000000000000E-002     1.5798468965594701     
   5.0700000000000009E-002     1.6659828345058116     
   5.1000000000000004E-002     1.5610468541533393     
   5.1299999999999998E-002     1.2725295960493881     
   5.1600000000000007E-002    0.82084768355994697     
   5.1900000000000002E-002    0.23749937628014095     
   5.2200000000000010E-002   -0.43719973629518805     
   5.2500000000000005E-002    -1.1565919024299962     
   5.2800000000000000E-002    -1.8718730121680238     
   5.3099999999999994E-002    -2.5344054294427920     
   5.3400000000000003E-002    -3.0998677216089732     
   5.3699999999999998E-002    -3.5308771653264301     
   5.4000000000000006E-002    -3.7985078877941731     
   5.4300000000000001E-002    -3.8850037429641304     
   5.4599999999999996E-002    -3.7832480418217926     
   5.4900000000000004E-002    -3.4963810551261076     
   5.5199999999999999E-002    -3.0378009578987530     
   5.5499999999999994E-002    -2.4274517947275598     
   5.5800000000000002E-002    -1.6913355469541784     
   5.6099999999999997E-002   -0.85836454073030666     
   5.6400000000000006E-002     4.2368374503546136E-002
   5.6700000000000000E-002    0.98183027815025525     
   5.6999999999999995E-002     1.9353291111058422     
   5.7300000000000004E-002     2.8802449692498229     
   5.7599999999999998E-002     3.7976145541809032     
   5.7900000000000007E-002     4.6724443314794826     
   5.8200000000000002E-002     5.4899834495652300     
   5.8499999999999996E-002     6.2377983971099979     
   5.8800000000000005E-002     6.9022284345174967     
   5.9100000000000000E-002     7.4679380646263382     
   5.9400000000000008E-002     7.9193622764940699     
   5.9700000000000003E-002     8.2381319632690122     
   6.0000000000000012E-002     8.4068306885971822     
   6.0300000000000006E-002     8.4099008733707024     
   6.0600000000000001E-002     8.2347813659142730     
   6.0900000000000010E-002     7.8762555720253147     
   6.1200000000000004E-002     7.3363602411995146     
   6.1500000000000013E-002     6.6269314454752077     
   6.1800000000000008E-002     5.7695189798369881     
   6.2100000000000002E-002     4.7935652889748326     
   6.2399999999999997E-002     3.7360648580744424     
   6.2700000000000006E-002     2.6367779879727067     
   6.3000000000000000E-002     1.5349928784921758     
   6.3300000000000009E-002    0.46602385594009910     
   6.3600000000000004E-002   -0.54418327222654028     
   6.3899999999999998E-002    -1.4802536065963210     
   6.4199999999999993E-002    -2.3395265173512199     
   6.4500000000000002E-002    -3.1321322380442318     
   6.4800000000000010E-002    -3.8790808328712814     
   6.5100000000000005E-002    -4.6093314962048026     
   6.5400000000000000E-002    -5.3547340808230075     
   6.5700000000000008E-002    -6.1453219195251165     
   6.5999999999999989E-002    -7.0047806925350926     
   6.6299999999999998E-002    -7.9441766533300751     
   6.6600000000000006E-002    -8.9597332446199687     
   6.6900000000000001E-002    -10.031088896396625     
   6.7199999999999996E-002    -11.119104274804585     
   6.7500000000000004E-002    -12.169843661789088     
   6.7800000000000013E-002    -13.115612797304152     
   6.8099999999999994E-002    -13.880632282335796     
   6.8400000000000002E-002    -14.386743731691922     
   6.8700000000000011E-002    -14.557789575295146     
   6.8999999999999992E-002    -14.328573176632915     
   6.9300000000000000E-002    -13.647843803543481     
   6.9600000000000009E-002    -12.484373883597186     
   6.9900000000000004E-002    -10.831643677899308     
   7.0199999999999999E-002    -8.7082556921922958     
   7.0500000000000007E-002    -6.1603915020345426     
   7.0800000000000016E-002    -3.2606631585348467     
   7.1099999999999997E-002   -0.10472302098838782     
   7.1400000000000005E-002     3.1910817728285963     
   7.1700000000000000E-002     6.4963167221735603     
   7.1999999999999995E-002     9.6729263819076579     
   7.2300000000000003E-002     12.581565222304370     
   7.2600000000000012E-002     15.091363579852327     
   7.2900000000000006E-002     17.085812556802921     
   7.3200000000000001E-002     18.470405311936474     
   7.3499999999999996E-002     19.180307238555372     
   7.3800000000000004E-002     19.181850638713968     
   7.4099999999999999E-002     18.478819986113194     
   7.4400000000000008E-002     17.110114291155242     
   7.4700000000000003E-002     15.148615304743203     
   7.5000000000000011E-002     12.699725284606757     
   7.5299999999999992E-002     9.8906383254629304     
   7.5600000000000001E-002     6.8683534280709466     
   7.5900000000000009E-002     3.7875434947369655     
   7.6200000000000004E-002    0.80151586661991558     
   7.6499999999999999E-002    -1.9430231408350380     
   7.6800000000000007E-002    -4.3194015927454927     
   7.7099999999999988E-002    -6.2236966772447602     
   7.7399999999999997E-002    -7.5816201502219220     
   7.7700000000000005E-002    -8.3536596645618317     
   7.8000000000000014E-002    -8.5333305089976079     
   7.8299999999999995E-002    -8.1504173127413537     
   7.8600000000000003E-002    -7.2661336890250254     
   7.8900000000000012E-002    -5.9688783067807378     
   7.9199999999999993E-002    -4.3705603690074781     
   7.9500000000000001E-002    -2.5968890772742341     
   7.9800000000000010E-002   -0.78149793459510519     
   8.0100000000000018E-002    0.94295284479711938     
   8.0399999999999999E-002     2.4539390756716841     
   8.0700000000000008E-002     3.6453862247609834     
   8.1000000000000003E-002     4.4352036690935677     
   8.1299999999999997E-002     4.7712268199384287     
   8.1600000000000006E-002     4.6331140464606264     
   8.1900000000000014E-002     4.0350828811352670     
   8.2199999999999995E-002     3.0244263246856633     
   8.2500000000000004E-002     1.6773590586099054     
   8.2799999999999999E-002     9.5888589185584294E-002
   8.3100000000000007E-002    -1.6032291241240415     
   8.3400000000000002E-002    -3.2939305718813614     
   8.3700000000000011E-002    -4.8513023247842284     
   8.4000000000000005E-002    -6.1638894116765357     
   8.4300000000000000E-002    -7.1371106588096964     
   8.4599999999999995E-002    -7.7062412364680810     
   8.4900000000000003E-002    -7.8378876531760824     
   8.5199999999999998E-002    -7.5337804543335096     
   8.5500000000000007E-002    -6.8326342407510197     
   8.5800000000000001E-002    -5.8020367407137599     
   8.6100000000000010E-002    -4.5374794582238565     
   8.6399999999999991E-002    -3.1503757458841619     
   8.6699999999999999E-002    -1.7595684358012988     
   8.7000000000000008E-002   -0.48118905947600688     
   8.7300000000000003E-002    0.58422225051086230     
   8.7599999999999997E-002     1.3576757620548108     
   8.7900000000000006E-002     1.7910390630236250     
   8.8200000000000014E-002     1.8704750268189230     
   8.8499999999999995E-002     1.6165615789254524     
   8.8800000000000004E-002     1.0822903279609761     
   8.9100000000000013E-002    0.34589992428979288     
   8.9399999999999993E-002   -0.49587411375128454     
   8.9700000000000002E-002    -1.3394659345874373     
   9.0000000000000011E-002    -2.0845552873490547     
   9.0299999999999991E-002    -2.6439623908689445     
   9.0600000000000000E-002    -2.9522112459911725     
   9.0900000000000009E-002    -2.9713596570075467     
   9.1200000000000017E-002    -2.6938277366453605     
   9.1499999999999998E-002    -2.1407180961796684     
   9.1800000000000007E-002    -1.3591970692439119     
   9.2100000000000001E-002   -0.41573529799258413     
   9.2399999999999996E-002    0.61195384357890248     
   9.2700000000000005E-002     1.6430095847494997     
   9.3000000000000013E-002     2.6029388343261459     
   9.3300000000000008E-002     3.4289719453522993     
   9.3600000000000003E-002     4.0764002144688121     
   9.3899999999999997E-002     4.5206849577891433     
   9.4200000000000006E-002     4.7575598240725299     
   9.4500000000000001E-002     4.8013979247453591     
   9.4800000000000009E-002     4.6810264382176001     
   9.5100000000000004E-002     4.4349726710123036     
   9.5399999999999999E-002     4.1060651926823084     
   9.5699999999999993E-002     3.7362982692796152     
   9.6000000000000002E-002     3.3624874247350078     
   9.6300000000000011E-002     3.0136538738297531     
   9.6600000000000005E-002     2.7084477768984954     
   9.6900000000000000E-002     2.4561802610662227     
   9.7200000000000009E-002     2.2566857630823165     
   9.7499999999999989E-002     2.1033392904359758     
   9.7799999999999998E-002     1.9853764209395379     
   9.8100000000000007E-002     1.8897971677697427     
   9.8400000000000015E-002     1.8059113897135433     
   9.8699999999999996E-002     1.7248020850296157     
   9.9000000000000005E-002     1.6427202117207074     
   9.9300000000000013E-002     1.5596550277356656     
   9.9599999999999994E-002     1.4786818002034252     
   9.9900000000000003E-002     1.4064312650406094     
  0.10020000000000001          1.3477701934264061     
  0.10049999999999999          1.3070588325412231     
  0.10080000000000000          1.2841846159297248     
  0.10110000000000001          1.2738276943356439     
  0.10140000000000000          1.2672137872415163     
  0.10170000000000000          1.2486063967716703     
  0.10200000000000001          1.2020020048882927     
  0.10230000000000002          1.1085044379886426     
  0.10260000000000000         0.95128379733116830     
  0.10290000000000001         0.71856088645915150     
  0.10320000000000000         0.40115841823698428     
  0.10350000000000001         -1.3424400489885358E-003
  0.10380000000000000        -0.48635754180950386     
  0.10410000000000001         -1.0464560665737181     
  0.10440000000000001         -1.6720086035083845     
  0.10470000000000000         -2.3553823382045733     
  0.10500000000000000         -3.0884186595948293     
  0.10530000000000000         -3.8681159116980268     
  0.10560000000000000         -4.6922520920711293     
  0.10590000000000001         -5.5584491443513997     
  0.10620000000000000         -6.4627543188212542     
  0.10650000000000001         -7.3922585231242408     
  0.10679999999999999         -8.3262155982941408     
  0.10710000000000000         -9.2310219778551641     
  0.10740000000000001         -10.059952823225814     
  0.10770000000000000         -10.758296356185951     
  0.10800000000000000         -11.263687896976421     
  0.10830000000000001         -11.517549374365984     
  0.10859999999999999         -11.470967487213613     
  0.10890000000000000         -11.092094067289764     
  0.10920000000000001         -10.376114512185836     
  0.10950000000000001         -9.3441762994456212     
  0.10979999999999999         -8.0480043429879800     
  0.11009999999999999         -6.5639106235523741     
  0.11040000000000001         -4.9811943907716625     
  0.11070000000000001         -3.3952617742889544     
  0.11100000000000000         -1.8881581168779249     
  0.11130000000000000        -0.51782548165696785     
  0.11160000000000002         0.69477831794088019     
  0.11190000000000001          1.7756944185895662     
  0.11220000000000001          2.7965876454268113     
  0.11250000000000000          3.8711350939328852     
  0.11280000000000000          5.1436732332706789     
  0.11309999999999999          6.7679325342502139     
  0.11340000000000001          8.8870480569371466     
  0.11369999999999998          11.605130877248811     
  0.11400000000000000          14.963856479137860     
  0.11430000000000000          18.923978144940577     
  0.11460000000000002          23.347408198499267     
  0.11489999999999999          27.999747614568832     
  0.11520000000000001          32.553206640123392     
  0.11550000000000001          36.607958604007194     
  0.11580000000000000          39.724351260818935     
  0.11609999999999999          41.455907377130643     
  0.11640000000000002          41.400581525896769     
  0.11670000000000001          39.237674730924482     
  0.11700000000000001          34.773327083629624     
  0.11730000000000000          27.972317462192677     
  0.11760000000000000          18.972628118694331     
  0.11789999999999999          8.1000462210021738     
  0.11820000000000001         -4.1563107930585375     
  0.11850000000000001         -17.163279339703990     
  0.11880000000000000         -30.189593964402547     
  0.11910000000000000         -42.461868151845579     
  0.11940000000000002         -53.215791892188804     
  0.11970000000000001         -61.768726690437290     
  0.12000000000000001         -67.558254039061694     
  0.12030000000000000         -70.199586290634272     
  0.12060000000000000         -69.508012758622499     
  0.12089999999999999         -65.510316175740854     
  0.12119999999999999         -58.449721425890857     
  0.12150000000000001         -48.749638021748297     
  0.12180000000000001         -36.995034941419817     
  0.12210000000000000         -23.874000124937140     
  0.12239999999999999         -10.129603987322611     
  0.12270000000000002          3.4856240653280679     
  0.12300000000000001          16.273910425752888     
  0.12330000000000001          27.617658073573693     
  0.12360000000000000          37.026928071697284     
  0.12390000000000000          44.154435437910479     
  0.12419999999999999          48.802198186554961     
  0.12450000000000001          50.932674917373333     
  0.12480000000000001          50.640700081309717     
  0.12509999999999999          48.148976813545801     
  0.12540000000000001          43.778276925583214     
  0.12570000000000003          37.914108292302444     
  0.12600000000000000          30.990414729962595     
  0.12630000000000002          23.446150654391317     
  0.12659999999999999          15.710118837438927     
  0.12690000000000001          8.1763741437140496     
  0.12719999999999998          1.1801836564844450     
  0.12750000000000000         -5.0044884921622383     
  0.12780000000000002         -10.182809391273793     
  0.12809999999999999         -14.234576784402179     
  0.12840000000000001         -17.114003255410466     
  0.12869999999999998         -18.845122956293437     
  0.12900000000000000         -19.506119765005792     
  0.12930000000000003         -19.223106108422698     
  0.12959999999999999         -18.153099266965455     
  0.12990000000000002         -16.468199226181639     
  0.13019999999999998         -14.348857220378591     
  0.13050000000000000         -11.966159369375703     
  0.13080000000000003         -9.4754389548866982     
  0.13109999999999999         -7.0139449716198214     
  0.13140000000000002         -4.6876231749774462     
  0.13169999999999998         -2.5818026576016919     
  0.13200000000000001        -0.75281070687557694     
  0.13229999999999997         0.76754079336654968     
  0.13260000000000000          1.9637475441325307     
  0.13290000000000002          2.8444957900213694     
  0.13319999999999999          3.4254724566011419     
  0.13350000000000001          3.7365775494061921     
  0.13380000000000003          3.8149212612530130     
  0.13410000000000000          3.6994318044672383     
  0.13440000000000002          3.4364638503812870     
  0.13469999999999999          3.0661259917152108     
  0.13500000000000001          2.6307394531040558     
  0.13529999999999998          2.1677500783778498     
  0.13560000000000000          1.7068406764287900     
  0.13590000000000002          1.2755600509711442     
  0.13619999999999999         0.88984322933804449     
  0.13650000000000001         0.56264206814800843     
  0.13680000000000003         0.29807114079085650     
  0.13710000000000000          9.5552727996596865E-002
  0.13740000000000002         -4.7815249527874082E-002
  0.13769999999999999        -0.14049678559226209     
  0.13800000000000001        -0.18779632705171601     
  0.13829999999999998        -0.19894360482692919     
  0.13860000000000000        -0.17974455682191959     
  0.13890000000000002        -0.13512448499688690     
  0.13919999999999999         -7.0422638872089438E-002
  0.13950000000000001          1.2822927405979678E-002
  0.13979999999999998         0.10897588259357294     
  0.14010000000000000         0.21610117502839099     
  0.14040000000000002         0.32818925794346532     
  0.14069999999999999         0.43848097797467034     
  0.14100000000000001         0.54016214228693826     
  0.14130000000000004         0.62242619271123090     
  0.14160000000000000         0.67841388215785514     
  0.14189999999999997         0.69730388339175065     
  0.14219999999999999         0.67183473035494146     
  0.14250000000000002         0.59657169926315490     
  0.14279999999999998         0.46705125305456541     
  0.14310000000000000         0.28538505465852815     
  0.14339999999999997          5.3506819566650654E-002
  0.14369999999999999        -0.21994774572538489     
  0.14400000000000002        -0.52449256307832171     
  0.14429999999999998        -0.84682848281974898     
  0.14460000000000001         -1.1699674248392959     
  0.14490000000000003         -1.4773014261765738     
  0.14520000000000000         -1.7504464381245057     
  0.14550000000000002         -1.9736536191958436     
  0.14579999999999999         -2.1314372248125721     
  0.14610000000000001         -2.2129175749498984     
  0.14640000000000003         -2.2106190032733082     
  0.14670000000000000         -2.1214095809069562     
  0.14699999999999996         -1.9479501419966851     
  0.14729999999999999         -1.6950027175199622     
  0.14760000000000001         -1.3744256926545404     
  0.14789999999999998        -0.99830780004332098     
  0.14820000000000000        -0.58252345993286880     