  -1.4999999999999999E-002     0.0000000000000000     
  -1.4700000000000000E-002     0.0000000000000000     
  -1.4400000000000000E-002     0.0000000000000000     
  -1.4100000000000000E-002     0.0000000000000000     
  -1.3800000000000000E-002     0.0000000000000000     
  -1.3500000000000000E-002     0.0000000000000000     
  -1.3200000000000000E-002     0.0000000000000000     
  -1.2899999999999998E-002     0.0000000000000000     
  -1.2600000000000000E-002     0.0000000000000000     
  -1.2299999999999998E-002     0.0000000000000000     
  -1.2000000000000000E-002     0.0000000000000000     
  -1.1699999999999999E-002     0.0000000000000000     
  -1.1399999999999999E-002     0.0000000000000000     
  -1.1099999999999999E-002     0.0000000000000000     
  -1.0799999999999999E-002     0.0000000000000000     
  -1.0499999999999999E-002     0.0000000000000000     
  -1.0199999999999999E-002     0.0000000000000000     
  -9.8999999999999991E-003     0.0000000000000000     
  -9.5999999999999992E-003     0.0000000000000000     
  -9.2999999999999992E-003     0.0000000000000000     
  -8.9999999999999993E-003     0.0000000000000000     
  -8.6999999999999994E-003     0.0000000000000000     
  -8.3999999999999995E-003     0.0000000000000000     
  -8.0999999999999996E-003     0.0000000000000000     
  -7.7999999999999988E-003     0.0000000000000000     
  -7.4999999999999997E-003     0.0000000000000000     
  -7.1999999999999998E-003     0.0000000000000000     
  -6.8999999999999981E-003     0.0000000000000000     
  -6.5999999999999982E-003     0.0000000000000000     
  -6.3000000000000000E-003     0.0000000000000000     
  -6.0000000000000001E-003     0.0000000000000000     
  -5.6999999999999985E-003     0.0000000000000000     
  -5.3999999999999986E-003     0.0000000000000000     
  -5.1000000000000004E-003     0.0000000000000000     
  -4.7999999999999987E-003     0.0000000000000000     
  -4.5000000000000005E-003     0.0000000000000000     
  -4.1999999999999989E-003     0.0000000000000000     
  -3.8999999999999990E-003     0.0000000000000000     
  -3.5999999999999990E-003     0.0000000000000000     
  -3.2999999999999991E-003     0.0000000000000000     
  -2.9999999999999992E-003     0.0000000000000000     
  -2.6999999999999993E-003     0.0000000000000000     
  -2.3999999999999994E-003     0.0000000000000000     
  -2.0999999999999977E-003     0.0000000000000000     
  -1.7999999999999995E-003     0.0000000000000000     
  -1.4999999999999979E-003     0.0000000000000000     
  -1.1999999999999997E-003     0.0000000000000000     
  -8.9999999999999976E-004     0.0000000000000000     
  -5.9999999999999810E-004     0.0000000000000000     
  -2.9999999999999992E-004     0.0000000000000000     
   0.0000000000000000          0.0000000000000000     
   3.0000000000000165E-004     0.0000000000000000     
   5.9999999999999984E-004    -4.2670501631384903E-039
   9.0000000000000149E-004    -1.0124493558727062E-037
   1.2000000000000031E-003     1.5547018289112282E-036
   1.5000000000000013E-003    -1.5478130154551781E-035
   1.8000000000000030E-003    -6.8892845235903527E-036
   2.1000000000000012E-003     1.3743584153889222E-034
   2.3999999999999994E-003     4.4990124909776366E-036
   2.7000000000000010E-003    -1.1206392699624867E-033
   2.9999999999999992E-003     2.4199340539268358E-033
   3.3000000000000008E-003     3.0873169561371609E-034
   3.6000000000000025E-003    -1.0757225186857659E-032
   3.9000000000000007E-003     2.4113076632736033E-032
   4.2000000000000023E-003    -9.6562121322618342E-035
   4.5000000000000005E-003    -1.6781846399749329E-031
   4.7999999999999987E-003     3.8891337382230551E-031
   5.1000000000000004E-003     3.1565130779364318E-031
   5.4000000000000020E-003    -3.3329317687102708E-030
   5.7000000000000037E-003     6.2055471099153354E-030
   5.9999999999999984E-003     2.8802925170353606E-030
   6.3000000000000000E-003    -4.0506581570135487E-029
   6.6000000000000017E-003     9.9377554963375084E-029
   6.9000000000000034E-003    -9.1746738545440649E-029
   7.2000000000000015E-003    -1.8673085038757297E-028
   7.5000000000000032E-003     9.2381170528407650E-028
   7.8000000000000014E-003    -1.8879344384203071E-027
   8.0999999999999996E-003     2.0164621384974202E-027
   8.4000000000000012E-003     8.2981542923300624E-028
   8.7000000000000029E-003    -1.1817615172003925E-026
   9.0000000000000011E-003     4.6998242025046484E-026
   9.2999999999999992E-003    -1.4055260866605470E-025
   9.6000000000000009E-003     2.8725718693045883E-025
   9.8999999999999991E-003    -1.0561798514942245E-025
   1.0200000000000001E-002    -2.2488299129901608E-024
   1.0500000000000002E-002     1.2914380899241196E-023
   1.0800000000000004E-002    -5.0980627325627833E-023
   1.1099999999999999E-002     1.8549660334381746E-022
   1.1400000000000000E-002    -7.0140473458758916E-022
   1.1700000000000002E-002     2.7267049813292730E-021
   1.2000000000000004E-002    -1.0041550056483260E-020
   1.2300000000000002E-002     3.2169842495918726E-020
   1.2600000000000000E-002    -7.9854545430352893E-020
   1.2900000000000002E-002     9.4492215563569950E-020
   1.3200000000000000E-002     4.4581087257209053E-019
   1.3500000000000002E-002    -4.0928917152055424E-018
   1.3800000000000003E-002     1.9805061365315906E-017
   1.4100000000000001E-002    -6.6139676806895355E-017
   1.4400000000000000E-002     1.0722880689067100E-016
   1.4700000000000001E-002     5.2928066196722866E-016
   1.4999999999999999E-002    -6.4988937807065964E-015
   1.5300000000000001E-002     4.1165806161422929E-014
   1.5600000000000003E-002    -1.9596353676055700E-013
   1.5899999999999997E-002     7.3775320395028906E-013
   1.6199999999999999E-002    -2.1110651997572749E-012
   1.6500000000000001E-002     3.7405610538582456E-012
   1.6800000000000002E-002     1.5471681156130994E-012
   1.7100000000000004E-002    -3.9104735968109337E-011
   1.7400000000000006E-002     1.4437092482156357E-010
   1.7700000000000000E-002    -2.3536590722114542E-010
   1.8000000000000002E-002    -1.9499743569243010E-010
   1.8300000000000004E-002     1.9035669358853822E-009
   1.8600000000000005E-002    -3.3507528739270127E-009
   1.8900000000000000E-002    -2.7028770433402125E-009
   1.9200000000000002E-002     1.8585786751050585E-008
   1.9500000000000003E-002    -1.0855391967130800E-008
   1.9799999999999998E-002    -5.9202635903118311E-008
   2.0100000000000000E-002     5.5977345747005615E-008
   2.0400000000000001E-002     1.7736535178734611E-007
   2.0700000000000003E-002    -1.1225821799817636E-007
   2.0999999999999998E-002    -5.9390146950937054E-007
   2.1299999999999999E-002    -8.1256479441847710E-008
   2.1600000000000001E-002     2.6973552475893526E-006
   2.1900000000000003E-002     7.9702353294886907E-006
   2.2200000000000004E-002     1.5124954063708014E-005
   2.2500000000000006E-002     2.3992759966715016E-005
   2.2800000000000001E-002     3.5762105711976229E-005
   2.3100000000000002E-002     5.3423001192976416E-005
   2.3400000000000004E-002     8.1596345545661714E-005
   2.3699999999999999E-002     1.2578132345604292E-004
   2.4000000000000000E-002     1.9250424465679962E-004
   2.4300000000000002E-002     2.9060718523779214E-004
   2.4599999999999997E-002     4.3278446489527014E-004
   2.4900000000000005E-002     6.3688590435610412E-004
   2.5200000000000000E-002     9.2624151325481838E-004
   2.5499999999999995E-002     1.3290199357352817E-003
   2.5800000000000003E-002     1.8779015529399312E-003
   2.6099999999999998E-002     2.6113323243885656E-003
   2.6400000000000007E-002     3.5751847043804241E-003
   2.6700000000000002E-002     4.8220364609223298E-003
   2.6999999999999996E-002     6.4076529550376182E-003
   2.7300000000000005E-002     8.3865523552794641E-003
   2.7600000000000000E-002     1.0806945903053866E-002
   2.7900000000000008E-002     1.3704324948981272E-002
   2.8200000000000003E-002     1.7094515720821102E-002
   2.8499999999999998E-002     2.0966473299250721E-002
   2.8800000000000006E-002     2.5274994941531737E-002
   2.9100000000000001E-002     2.9932389704494744E-002
   2.9400000000000003E-002     3.4803451066673041E-002
   2.9700000000000004E-002     3.9704842865100343E-002
   3.0000000000000006E-002     4.4414263113372598E-002
   3.0300000000000001E-002     4.8685641795247259E-002
   3.0600000000000002E-002     5.2265698260557381E-002
   3.0900000000000004E-002     5.4922279991098222E-002
   3.1199999999999999E-002     5.6476535862426624E-002
   3.1500000000000007E-002     5.6841759566181205E-002
   3.1800000000000002E-002     5.6055584288595028E-002
   3.2099999999999997E-002     5.4310305710860263E-002
   3.2400000000000005E-002     5.1958161871674458E-002
   3.2700000000000000E-002     4.9507060869808051E-002
   3.3000000000000002E-002     4.7588079788096982E-002
   3.3300000000000003E-002     4.6881659586119007E-002
   3.3599999999999998E-002     4.8049344205298938E-002
   3.3900000000000000E-002     5.1604510224323663E-002
   3.4200000000000001E-002     5.7796974552863700E-002
   3.4500000000000003E-002     6.6490229846670079E-002
   3.4799999999999998E-002     7.7047344357081826E-002
   3.5099999999999999E-002     8.8279911794169497E-002
   3.5400000000000001E-002     9.8417003858054297E-002
   3.5699999999999996E-002    0.10515629610326194     
   3.6000000000000004E-002    0.10580522908222267     
   3.6299999999999999E-002     9.7457210427714713E-002
   3.6600000000000008E-002     7.7273708028684995E-002
   3.6900000000000002E-002     4.2769659808981508E-002
   3.7199999999999997E-002    -7.8778168761992062E-003
   3.7500000000000006E-002    -7.5497824944956493E-002
   3.7800000000000000E-002   -0.15972916443667007     
   3.8100000000000009E-002   -0.25882515690960783     
   3.8400000000000004E-002   -0.36962789312863187     
   3.8699999999999998E-002   -0.48769508252090965     
   3.9000000000000007E-002   -0.60743608975657182     
   3.9300000000000002E-002   -0.72250503917524256     
   3.9600000000000003E-002   -0.82615485346356721     
   3.9900000000000005E-002   -0.91171263834481664     
   4.0200000000000000E-002   -0.97308540188069159     
   4.0500000000000001E-002    -1.0051516913721343     
   4.0800000000000003E-002    -1.0042174126139436     
   4.1100000000000005E-002   -0.96820073791765893     
   4.1399999999999999E-002   -0.89680842614262346     
   4.1700000000000008E-002   -0.79158937982560929     
   4.2000000000000003E-002   -0.65573347262856529     
   4.2299999999999997E-002   -0.49393625454108214     
   4.2600000000000006E-002   -0.31205859533411751     
   4.2900000000000001E-002   -0.11667666064939475     
   4.3200000000000002E-002     8.5211779564533296E-002
   4.3500000000000004E-002    0.28668550444518104     
   4.3799999999999999E-002    0.48130372725987769     
   4.4100000000000000E-002    0.66327023451734135     
   4.4400000000000002E-002    0.82795913438692281     
   4.4700000000000004E-002    0.97192791267157119     
   4.4999999999999998E-002     1.0929997818529102     
   4.5300000000000000E-002     1.1904967045372814     
   4.5600000000000002E-002     1.2647930037029411     
   4.5899999999999996E-002     1.3174764841864999     
   4.6200000000000005E-002     1.3509366910103111     
   4.6500000000000000E-002     1.3679693900929877     
   4.6799999999999994E-002     1.3716874685496094     
   4.7100000000000003E-002     1.3647421097685708     
   4.7399999999999998E-002     1.3491755465413888     
   4.7700000000000006E-002     1.3260120412278411     
   4.8000000000000001E-002     1.2948077136362812     
   4.8300000000000010E-002     1.2537692288309970     
   4.8600000000000004E-002     1.1994841382703996     
   4.8899999999999999E-002     1.1272223118156397     
   4.9200000000000008E-002     1.0313079691127278     
   4.9500000000000002E-002    0.90554343493059974     
   4.9800000000000011E-002    0.74412360814851297     
   5.0100000000000006E-002    0.54236980592800510     
   5.0400000000000000E-002    0.29754804638673260     
   5.0700000000000009E-002     9.7495718549724941E-003
   5.1000000000000004E-002   -0.31747514474617411     
   5.1299999999999998E-002   -0.67679161832928614     
   5.1600000000000007E-002    -1.0569977576756777     
   5.1900000000000002E-002    -1.4432579173809472     
   5.2200000000000010E-002    -1.8179674738477019     
   5.2500000000000005E-002    -2.1616650020865364     
   5.2800000000000000E-002    -2.4544287797247506     
   5.3099999999999994E-002    -2.6775070856360657     
   5.3400000000000003E-002    -2.8146504795666516     
   5.3699999999999998E-002    -2.8535806910427937     
   5.4000000000000006E-002    -2.7870519771300053     
   5.4300000000000001E-002    -2.6135030805869945     
   5.4599999999999996E-002    -2.3374420057823571     
   5.4900000000000004E-002    -1.9688746191863657     
   5.5199999999999999E-002    -1.5228703633751479     
   5.5499999999999994E-002    -1.0182551579767889     
   5.5800000000000002E-002   -0.47608328100274200     
   5.6099999999999997E-002     8.1560154826839315E-002
   5.6400000000000006E-002    0.63317756562819483     
   5.6700000000000000E-002     1.1592608669018603     
   5.6999999999999995E-002     1.6429918566887594     
   5.7300000000000004E-002     2.0711035720882194     
   5.7599999999999998E-002     2.4339328572778953     
   5.7900000000000007E-002     2.7252942131964772     
   5.8200000000000002E-002     2.9421267986433435     
   5.8499999999999996E-002     3.0834209815060092     
   5.8800000000000005E-002     3.1500994980865613     
   5.9100000000000000E-002     3.1437064053391879     
   5.9400000000000008E-002     3.0660260437887530     
   5.9700000000000003E-002     2.9187808259114689     
   6.0000000000000012E-002     2.7030406915886545     
   6.0300000000000006E-002     2.4198787643015791     
   6.0600000000000001E-002     2.0702375824023989     
   6.0900000000000010E-002     1.6556298788219159     
   6.1200000000000004E-002     1.1790253058351254     
   6.1500000000000013E-002    0.64500371663659450     
   6.1800000000000008E-002     6.0927561063440550E-002
   6.2100000000000002E-002   -0.56290840996473790     
   6.2399999999999997E-002    -1.2128818289767977     
   6.2700000000000006E-002    -1.8717184372121167     
   6.3000000000000000E-002    -2.5193979947711682     
   6.3300000000000009E-002    -3.1330512439502627     
   6.3600000000000004E-002    -3.6882803670759898     
   6.3899999999999998E-002    -4.1602611197148747     
   6.4199999999999993E-002    -4.5248737287398910     
   6.4500000000000002E-002    -4.7605264231560795     
   6.4800000000000010E-002    -4.8493892423339560     
   6.5100000000000005E-002    -4.7791665046526646     
   6.5400000000000000E-002    -4.5441917538357188     
   6.5700000000000008E-002    -4.1462952804758402     
   6.5999999999999989E-002    -3.5957549930151345     
   6.6299999999999998E-002    -2.9106817353311101     
   6.6600000000000006E-002    -2.1171198333937831     
   6.6900000000000001E-002    -1.2475876694401071     
   6.7199999999999996E-002   -0.33958050874695545     
   6.7500000000000004E-002    0.56629109809635203     
   6.7800000000000013E-002     1.4292146945075572     
   6.8099999999999994E-002     2.2098965615689536     
   6.8400000000000002E-002     2.8733940723834763     
   6.8700000000000011E-002     3.3913692551699484     
   6.8999999999999992E-002     3.7435501051336928     
   6.9300000000000000E-002     3.9190006452880226     
   6.9600000000000009E-002     3.9166665640842098     
   6.9900000000000004E-002     3.7449382537668896     
   7.0199999999999999E-002     3.4211843704359950     
   7.0500000000000007E-002     2.9696673003116416     
   7.0800000000000016E-002     2.4202007592622721     
   7.1099999999999997E-002     1.8057842539990929     
   7.1400000000000005E-002     1.1598077264901718     
   7.1700000000000000E-002    0.51519006813192370     
   7.1999999999999995E-002    -9.8646949942109763E-002
   7.2300000000000003E-002   -0.65647088998986902     
   7.2600000000000012E-002    -1.1377187528689348     
   7.2900000000000006E-002    -1.5277018010850227     
   7.3200000000000001E-002    -1.8163896529922852     
   7.3499999999999996E-002    -1.9988599141710779     
   7.3800000000000004E-002    -2.0735205627939166     
   7.4099999999999999E-002    -2.0419318441976131     
   7.4400000000000008E-002    -1.9084383416874289     
   7.4700000000000003E-002    -1.6784179349310193     
   7.5000000000000011E-002    -1.3597010411980541     
   7.5299999999999992E-002   -0.96130018905947345     
   7.5600000000000001E-002   -0.49417809627604292     
   7.5900000000000009E-002     2.7701718985250423E-002
   7.6200000000000004E-002    0.58846259746530549     
   7.6499999999999999E-002     1.1686162846037078     
   7.6800000000000007E-002     1.7460326024726243     
   7.7099999999999988E-002     2.2963141478854823     
   7.7399999999999997E-002     2.7932060930007765     
   7.7700000000000005E-002     3.2107341985215641     
   7.8000000000000014E-002     3.5241288645466256     
   7.8299999999999995E-002     3.7121803882867823     
   7.8600000000000003E-002     3.7590908608138278     
   7.8900000000000012E-002     3.6555867695704904     
   7.9199999999999993E-002     3.4010050994354941     
   7.9500000000000001E-002     3.0031560366659136     
   7.9800000000000010E-002     2.4784197080284045     
   8.0100000000000018E-002     1.8516330692610836     
   8.0399999999999999E-002     1.1535124132788326     
   8.0700000000000008E-002    0.41955280735097489     
   8.1000000000000003E-002   -0.31256268345701477     
   8.1299999999999997E-002    -1.0064371184428076     
   8.1600000000000006E-002    -1.6281782820185668     
   8.1900000000000014E-002    -2.1499966944184052     
   8.2199999999999995E-002    -2.5513132911376459     
   8.2500000000000004E-002    -2.8198706324830027     
   8.2799999999999999E-002    -2.9531231006030509     
   8.3100000000000007E-002    -2.9562635366255563     
   8.3400000000000002E-002    -2.8431659474155992     
   8.3700000000000011E-002    -2.6333743348368017     
   8.4000000000000005E-002    -2.3504093314071213     
   8.4300000000000000E-002    -2.0206627789799114     
   8.4599999999999995E-002    -1.6689451736769527     
   8.4900000000000003E-002    -1.3187758940519636     
   8.5199999999999998E-002   -0.98920847513130639     
   8.5500000000000007E-002   -0.69399340068333260     
   8.5800000000000001E-002   -0.44163637210589179     
   8.6100000000000010E-002   -0.23429571882814981     
   8.6399999999999991E-002    -7.0023494841608747E-002
   8.6699999999999999E-002     5.7729062565166078E-002
   8.7000000000000008E-002    0.15729197877359180     
   8.7300000000000003E-002    0.23732475038447287     
   8.7599999999999997E-002    0.30568679294458967     
   8.7900000000000006E-002    0.36704215080090741     
   8.8200000000000014E-002    0.42303657284547036     
   8.8499999999999995E-002    0.47055321409453299     
   8.8800000000000004E-002    0.50274097712990162     
   8.9100000000000013E-002    0.50975278875219843     
   8.9399999999999993E-002    0.47964565742938525     
   8.9700000000000002E-002    0.40073532885964624     
   9.0000000000000011E-002    0.26334293113532803     
   9.0299999999999991E-002     6.1931462597353715E-002
   9.0600000000000000E-002   -0.20358096454505770     
   9.0900000000000009E-002   -0.52637611973477405     
   9.1200000000000017E-002   -0.89229911245093874     
   9.1499999999999998E-002    -1.2802318989053063     
   9.1800000000000007E-002    -1.6633178422520345     
   9.2100000000000001E-002    -2.0104261054230861     
   9.2399999999999996E-002    -2.2890569173460307     
   9.2700000000000005E-002    -2.4679083040342960     
   9.3000000000000013E-002    -2.5192816156008746     
   9.3300000000000008E-002    -2.4227597694139220     
   9.3600000000000003E-002    -2.1665357465121389     
   9.3899999999999997E-002    -1.7496774377124966     
   9.4200000000000006E-002    -1.1828984923641741     
   9.4500000000000001E-002   -0.48862095897416680     
   9.4800000000000009E-002    0.29929026436815542     
   9.5100000000000004E-002     1.1383674106257580     
   9.5399999999999999E-002     1.9785844231690746     
   9.5699999999999993E-002     2.7662485549130196     
   9.6000000000000002E-002     3.4478090835453514     
   9.6300000000000011E-002     3.9725378244122282     
   9.6600000000000005E-002     4.2981364641948119     
   9.6900000000000000E-002     4.3927129353956644     
   9.7200000000000009E-002     4.2385906107337519     
   9.7499999999999989E-002     3.8347489784382276     
   9.7799999999999998E-002     3.1971281543994508     
   9.8100000000000007E-002     2.3599005688362702     
   9.8400000000000015E-002     1.3720606322973126     
   9.8699999999999996E-002    0.29662923026842947     
   9.9000000000000005E-002   -0.79479212767590646     
   9.9300000000000013E-002    -1.8270065887262490     
   9.9599999999999994E-002    -2.7257820680884635     
   9.9900000000000003E-002    -3.4253421787867495     
  0.10020000000000001         -3.8720076041771563     
  0.10049999999999999         -4.0308487676157085     
  0.10080000000000000         -3.8872035874934738     
  0.10110000000000001         -3.4491620807415444     
  0.10140000000000000         -2.7482260253069768     
  0.10170000000000000         -1.8348856868505408     
  0.10200000000000001        -0.77768156362093066     
  0.10230000000000002         0.34435331978347383     
  0.10260000000000000          1.4469792185847226     
  0.10290000000000001          2.4472858292971154     
  0.10320000000000000          3.2717992580117681     
  0.10350000000000001          3.8602029745597264     
  0.10380000000000000          4.1720493467286701     
  0.10410000000000001          4.1886848892156365     
  0.10440000000000001          3.9143851777167953     
  0.10470000000000000          3.3767056204347554     
  0.10500000000000000          2.6220950601365551     
  0.10530000000000000          1.7133151163727156     
  0.10560000000000000         0.72290506581208902     
  0.10590000000000001        -0.27275171383078423     
  0.10620000000000000         -1.1992018143582470     
  0.10650000000000001         -1.9905450230606334     
  0.10679999999999999         -2.5937212895295403     
  0.10710000000000000         -2.9727750425266635     
  0.10740000000000001         -3.1105958573005452     
  0.10770000000000000         -3.0093664849059252     
  0.10800000000000000         -2.6891473044278236     
  0.10830000000000001         -2.1851037317583080     
  0.10859999999999999         -1.5440526039334301     
  0.10890000000000000        -0.81861988054431833     
  0.10920000000000001         -6.3595091216878785E-002
  0.10950000000000001         0.66923404943512388     
  0.10979999999999999          1.3349661884036976     
  0.11009999999999999          1.8980184979184287     
  0.11040000000000001          2.3342598644534860     
  0.11070000000000001          2.6304664317968900     
  0.11100000000000000          2.7839408078569505     
  0.11130000000000000          2.8003253524609590     
  0.11160000000000002          2.6908894163546933     
  0.11190000000000001          2.4705875516682170     
  0.11220000000000001          2.1546935740960684     
  0.11250000000000000          1.7575542240833339     
  0.11280000000000000          1.2914789543316481     
  0.11309999999999999         0.76617678635236075     
  0.11340000000000001         0.18933262520477534     
  0.11369999999999998        -0.43182498948233583     
  0.11400000000000000         -1.0899090211354370     
  0.11430000000000000         -1.7754752308929298     
  0.11460000000000002         -2.4760423895184829     
  0.11489999999999999         -3.1755954943303237     
  0.11520000000000001         -3.8549061225687069     
  0.11550000000000001         -4.4925879420270007     
  0.11580000000000000         -5.0654225571222753     
  0.11609999999999999         -5.5511881803496692     
  0.11640000000000002         -5.9297858987642087     
  0.11670000000000001         -6.1844007390323554     
  0.11700000000000001         -6.3038980463525434     
  0.11730000000000000         -6.2809890771432606     
  0.11760000000000000         -6.1142909689505700     
  0.11789999999999999         -5.8068113172512028     
  0.11820000000000001         -5.3638812191964007     
  0.11850000000000001         -4.7944538058816732     
  0.11880000000000000         -4.1072158626735309     
  0.11910000000000000         -3.3116686454238025     
  0.11940000000000002         -2.4170268088645273     
  0.11970000000000001         -1.4314201902788071     
  0.12000000000000001        -0.36371684376084090     
  0.12030000000000000         0.77654905821393250     
  0.12060000000000000          1.9781467408945446     
  0.12089999999999999          3.2275909634224433     
  0.12119999999999999          4.5064258772298018     
  0.12150000000000001          5.7930844121279677     
  0.12180000000000001          7.0600757209415406     
  0.12210000000000000          8.2759852068684268     
  0.12239999999999999          9.4054254003700635     
  0.12270000000000002          10.408755239073400     
  0.12300000000000001          11.246499271348910     
  0.12330000000000001          11.877027120895036     
  0.12360000000000000          12.261730380799122     
  0.12390000000000000          12.366100162951170     
  0.12419999999999999          12.160253591005812     
  0.12450000000000001          11.624728938921464     
  0.12480000000000001          10.748450627598828     
  0.12509999999999999          9.5336266530168388     
  0.12540000000000001          7.9957450723553638     
  0.12570000000000003          6.1643642315084719     
  0.12600000000000000          4.0845279416662663     
  0.12630000000000002          1.8136502168143807     
  0.12659999999999999        -0.57720855326203235     
  0.12690000000000001         -3.0080843834107185     
  0.12719999999999998         -5.3918400324203617     
  0.12750000000000000         -7.6394704176566108     
  0.12780000000000002         -9.6633834842007786     
  0.12809999999999999         -11.382513686218658     
  0.12840000000000001         -12.727241643579987     
  0.12869999999999998         -13.641781385651029     
  0.12900000000000000         -14.089602892462267     
  0.12930000000000003         -14.053284365258492     
  0.12959999999999999         -13.537661864071850     
  0.12990000000000002         -12.568616468083604     
  0.13019999999999998         -11.192242479625094     
  0.13050000000000000         -9.4738228495875347     
  0.13080000000000003         -7.4921564180796487     
  0.13109999999999999         -5.3386989456005978     
  0.13140000000000002         -3.1118384988754144     
  0.13169999999999998        -0.91216547054452235     
  0.13200000000000001          1.1613691966009365     
  0.13229999999999997          3.0168218313919937     
  0.13260000000000000          4.5732514423734187     
  0.13290000000000002          5.7646676501940703     
  0.13319999999999999          6.5434947389073841     
  0.13350000000000001          6.8834950978896643     
  0.13380000000000003          6.7801887254669992     
  0.13410000000000000          6.2531970088190008     
  0.13440000000000002          5.3438171053580987     
  0.13469999999999999          4.1144779297766121     
  0.13500000000000001          2.6453018164612274     
  0.13529999999999998          1.0289200057290344     
  0.13560000000000000        -0.63208080553713408     
  0.13590000000000002         -2.2337072286413004     
  0.13619999999999999         -3.6740449777517199     
  0.13650000000000001         -4.8604487347431018     
  0.13680000000000003         -5.7150735310510470     
  0.13710000000000000         -6.1780171701131650     
  0.13740000000000002         -6.2134983056357527     
  0.13769999999999999         -5.8095016745185166     
  0.13800000000000001         -4.9802374112704939     
  0.13829999999999998         -3.7653993612939303     
  0.13860000000000000         -2.2275007396107327     
  0.13890000000000002        -0.44912786367309820     
  0.13919999999999999          1.4727695179143652     
  0.13950000000000001          3.4314572403016399     
  0.13979999999999998          5.3174079636252145     
  0.14010000000000000          7.0244021725901291     
  0.14040000000000002          8.4562587887455152     
  0.14069999999999999          9.5323746639797946     
  0.14100000000000001          10.193308275174729     
  0.14130000000000004          10.404229141746754     
  0.14160000000000000          10.157022707973283     
  0.14189999999999997          9.4720868381800898     
  0.14219999999999999          8.3954077920250114     
  0.14250000000000002          6.9971606216909734     
  0.14279999999999998          5.3666643870616042     
  0.14310000000000000          3.6050980855594759     
  0.14339999999999997          1.8215525541000090     
  0.14369999999999999         0.12274539247442817     
  0.14400000000000002         -1.3926283657688643     
  0.14429999999999998         -2.6411577016038592     
  0.14460000000000001         -3.5614845298151465     
  0.14490000000000003         -4.1161785699164568     
  0.14520000000000000         -4.2970172292972322     
  0.14550000000000002         -4.1233619695108565     
  0.14579999999999999         -3.6407561228073106     
  0.14610000000000001         -2.9185510537503880     
  0.14640000000000003         -2.0417872417930880     
  0.14670000000000000         -1.1067682625670443     
  0.14699999999999996        -0.21174190332609300     
  0.14729999999999999         0.55101813011866962     
  0.14760000000000001          1.1014857460802165     
  0.14789999999999998          1.3798713205212110     
  0.14820000000000000          1.3506819349261363     