  -1.4999999999999999E-002     0.0000000000000000     
  -1.4700000000000000E-002     0.0000000000000000     
  -1.4400000000000000E-002     0.0000000000000000     
  -1.4100000000000000E-002     0.0000000000000000     
  -1.3800000000000000E-002     0.0000000000000000     
  -1.3500000000000000E-002     0.0000000000000000     
  -1.3200000000000000E-002     0.0000000000000000     
  -1.2899999999999998E-002     0.0000000000000000     
  -1.2600000000000000E-002     0.0000000000000000     
  -1.2299999999999998E-002     0.0000000000000000     
  -1.2000000000000000E-002     0.0000000000000000     
  -1.1699999999999999E-002     0.0000000000000000     
  -1.1399999999999999E-002     0.0000000000000000     
  -1.1099999999999999E-002     0.0000000000000000     
  -1.0799999999999999E-002     0.0000000000000000     
  -1.0499999999999999E-002     0.0000000000000000     
  -1.0199999999999999E-002     0.0000000000000000     
  -9.8999999999999991E-003     0.0000000000000000     
  -9.5999999999999992E-003     0.0000000000000000     
  -9.2999999999999992E-003     0.0000000000000000     
  -8.9999999999999993E-003     0.0000000000000000     
  -8.6999999999999994E-003     0.0000000000000000     
  -8.3999999999999995E-003     0.0000000000000000     
  -8.0999999999999996E-003     0.0000000000000000     
  -7.7999999999999988E-003     0.0000000000000000     
  -7.4999999999999997E-003     0.0000000000000000     
  -7.1999999999999998E-003     0.0000000000000000     
  -6.8999999999999981E-003     0.0000000000000000     
  -6.5999999999999982E-003     0.0000000000000000     
  -6.3000000000000000E-003     0.0000000000000000     
  -6.0000000000000001E-003     0.0000000000000000     
  -5.6999999999999985E-003     0.0000000000000000     
  -5.3999999999999986E-003     0.0000000000000000     
  -5.1000000000000004E-003     0.0000000000000000     
  -4.7999999999999987E-003     0.0000000000000000     
  -4.5000000000000005E-003     0.0000000000000000     
  -4.1999999999999989E-003     0.0000000000000000     
  -3.8999999999999990E-003     0.0000000000000000     
  -3.5999999999999990E-003     0.0000000000000000     
  -3.2999999999999991E-003     0.0000000000000000     
  -2.9999999999999992E-003     0.0000000000000000     
  -2.6999999999999993E-003     0.0000000000000000     
  -2.3999999999999994E-003     0.0000000000000000     
  -2.0999999999999977E-003     0.0000000000000000     
  -1.7999999999999995E-003     0.0000000000000000     
  -1.4999999999999979E-003     0.0000000000000000     
  -1.1999999999999997E-003     0.0000000000000000     
  -8.9999999999999976E-004     0.0000000000000000     
  -5.9999999999999810E-004     0.0000000000000000     
  -2.9999999999999992E-004     0.0000000000000000     
   0.0000000000000000          0.0000000000000000     
   3.0000000000000165E-004     0.0000000000000000     
   5.9999999999999984E-004     0.0000000000000000     
   9.0000000000000149E-004     0.0000000000000000     
   1.2000000000000031E-003     0.0000000000000000     
   1.5000000000000013E-003     0.0000000000000000     
   1.8000000000000030E-003     0.0000000000000000     
   2.1000000000000012E-003     0.0000000000000000     
   2.3999999999999994E-003     0.0000000000000000     
   2.7000000000000010E-003     0.0000000000000000     
   2.9999999999999992E-003     0.0000000000000000     
   3.3000000000000008E-003     0.0000000000000000     
   3.6000000000000025E-003     0.0000000000000000     
   3.9000000000000007E-003     0.0000000000000000     
   4.2000000000000023E-003     0.0000000000000000     
   4.5000000000000005E-003     0.0000000000000000     
   4.7999999999999987E-003     0.0000000000000000     
   5.1000000000000004E-003    -5.0340743493359564E-038
   5.4000000000000020E-003    -1.9947698925381634E-037
   5.7000000000000037E-003    -3.3524006767212033E-036
   5.9999999999999984E-003     2.1347646307040923E-035
   6.3000000000000000E-003     1.9841916059939557E-035
   6.6000000000000017E-003    -3.9700935512144055E-035
   6.9000000000000034E-003     7.9635381255321069E-035
   7.2000000000000015E-003    -1.2464027909284249E-035
   7.5000000000000032E-003    -6.8756133641382705E-034
   7.8000000000000014E-003     2.8570175133144367E-033
   8.0999999999999996E-003    -5.1898371103809224E-035
   8.4000000000000012E-003    -1.5339088298106506E-032
   8.7000000000000029E-003     2.2860946887944412E-032
   9.0000000000000011E-003    -1.3817081689892528E-032
   9.2999999999999992E-003     1.2870300381001893E-031
   9.6000000000000009E-003     2.6154153989382115E-031
   9.8999999999999991E-003    -6.5705915509522379E-030
   1.0200000000000001E-002     2.6576566087542312E-029
   1.0500000000000002E-002    -6.6511372281794882E-030
   1.0800000000000004E-002    -3.6402153728764781E-028
   1.1099999999999999E-002     1.6481815156846188E-027
   1.1400000000000000E-002    -2.9203519853340446E-027
   1.1700000000000002E-002    -2.5544590252708975E-027
   1.2000000000000004E-002     2.2095555583922149E-026
   1.2300000000000002E-002    -7.3855341625776533E-027
   1.2600000000000000E-002    -2.5041316872637144E-025
   1.2900000000000002E-002     7.4918734027831775E-025
   1.3200000000000000E-002     2.2417832912761854E-024
   1.3500000000000002E-002    -3.2456147880781283E-023
   1.3800000000000003E-002     1.9571673647861052E-022
   1.4100000000000001E-002    -9.0937214589094128E-022
   1.4400000000000000E-002     3.7538050180359065E-021
   1.4700000000000001E-002    -1.4534209365639017E-020
   1.4999999999999999E-002     5.3511117403103809E-020
   1.5300000000000001E-002    -1.8668587090018404E-019
   1.5600000000000003E-002     6.1596602103220508E-019
   1.5899999999999997E-002    -1.9549201009477827E-018
   1.6199999999999999E-002     6.3219853401787721E-018
   1.6500000000000001E-002    -2.3125036838241842E-017
   1.6800000000000002E-002     1.0277181703872459E-016
   1.7100000000000004E-002    -5.2360514646372897E-016
   1.7400000000000006E-002     2.7215290854392804E-015
   1.7700000000000000E-002    -1.3303705184411433E-014
   1.8000000000000002E-002     5.8449121106940856E-014
   1.8300000000000004E-002    -2.2265514464205018E-013
   1.8600000000000005E-002     6.9850153087587342E-013
   1.8900000000000000E-002    -1.6005347101180358E-012
   1.9200000000000002E-002     1.4530876863201784E-012
   1.9500000000000003E-002     7.9239020046506943E-012
   1.9799999999999998E-002    -4.8178651517516618E-011
   2.0100000000000000E-002     1.3285483107290580E-010
   2.0400000000000001E-002    -1.3562106290034934E-010
   2.0700000000000003E-002    -4.2719850297936381E-010
   2.0999999999999998E-002     1.9673551063869992E-009
   2.1299999999999999E-002    -2.3382191264517532E-009
   2.1600000000000001E-002    -4.9054232050214686E-009
   2.1900000000000003E-002     1.7853332414297606E-008
   2.2200000000000004E-002    -1.8310472187102565E-009
   2.2500000000000006E-002    -6.4304729363611301E-008
   2.2800000000000001E-002     3.2284649990946596E-008
   2.3100000000000002E-002     1.9590595953427600E-007
   2.3400000000000004E-002    -5.3042028728893611E-008
   2.3699999999999999E-002    -6.1277358772107945E-007
   2.4000000000000000E-002    -2.6235752928572858E-007
   2.4300000000000002E-002     2.3159786570130429E-006
   2.4599999999999997E-002     7.1508237450976166E-006
   2.4900000000000005E-002     1.3393093219982784E-005
   2.5200000000000000E-002     2.1077904106652813E-005
   2.5499999999999995E-002     3.1831870640330298E-005
   2.5800000000000003E-002     4.8534035734776500E-005
   2.6099999999999998E-002     7.5048954266389084E-005
   2.6400000000000007E-002     1.1610610139599223E-004
   2.6700000000000002E-002     1.7769205996245960E-004
   2.6999999999999996E-002     2.6796273394482165E-004
   2.7300000000000005E-002     3.9854512293569996E-004
   2.7600000000000000E-002     5.8589632845128768E-004
   2.7900000000000008E-002     8.5148023276284887E-004
   2.8200000000000003E-002     1.2211013928388435E-003
   2.8499999999999998E-002     1.7249948312880181E-003
   2.8800000000000006E-002     2.3989763720886209E-003
   2.9100000000000001E-002     3.2853023913949897E-003
   2.9400000000000003E-002     4.4310983821135436E-003
   2.9700000000000004E-002     5.8844968918176921E-003
   3.0000000000000006E-002     7.6902794831328336E-003
   3.0300000000000001E-002     9.8848738401932090E-003
   3.0600000000000002E-002     1.2488739405630445E-002
   3.0900000000000004E-002     1.5496659719995420E-002
   3.1199999999999999E-002     1.8867943094212802E-002
   3.1500000000000007E-002     2.2515871002464216E-002
   3.1800000000000002E-002     2.6298106138427091E-002
   3.2099999999999997E-002     3.0007144786687978E-002
   3.2400000000000005E-002     3.3365920518181991E-002
   3.2700000000000000E-002     3.6033181916956591E-002
   3.3000000000000002E-002     3.7613868724721611E-002
   3.3300000000000003E-002     3.7677719942882604E-002
   3.3599999999999998E-002     3.5792062091706933E-002
   3.3900000000000000E-002     3.1560963593166291E-002
   3.4200000000000001E-002     2.4681162818822822E-002
   3.4500000000000003E-002     1.4994737008013459E-002
   3.4799999999999998E-002     2.5433754289690969E-003
   3.5099999999999999E-002    -1.2375880548543633E-002
   3.5400000000000001E-002    -2.9173385735310253E-002
   3.5699999999999996E-002    -4.6954621450286727E-002
   3.6000000000000004E-002    -6.4529033702233729E-002
   3.6299999999999999E-002    -8.0458098186980465E-002
   3.6600000000000008E-002    -9.3131389242097740E-002
   3.6900000000000002E-002   -0.10088084887737425     
   3.7199999999999997E-002   -0.10212956943188933     
   3.7500000000000006E-002    -9.5539023462567485E-002
   3.7800000000000000E-002    -8.0175610074413761E-002
   3.8100000000000009E-002    -5.5664476306985788E-002
   3.8400000000000004E-002    -2.2298810120645496E-002
   3.8699999999999998E-002     1.8881252348977084E-002
   3.9000000000000007E-002     6.6078601538542392E-002
   3.9300000000000002E-002    0.11679719515046161     
   3.9600000000000003E-002    0.16794600956105965     
   3.9900000000000005E-002    0.21602504772251496     
   4.0200000000000000E-002    0.25735673367074519     
   4.0500000000000001E-002    0.28833271747860678     
   4.0800000000000003E-002    0.30568371078387102     
   4.1100000000000005E-002    0.30672474921322745     
   4.1399999999999999E-002    0.28956543856423700     
   4.1700000000000008E-002    0.25327703774834553     
   4.2000000000000003E-002    0.19797958426214990     
   4.2299999999999997E-002    0.12487338602602405     
   4.2600000000000006E-002     3.6190037703324296E-002
   4.2900000000000001E-002    -6.4940800667142806E-002
   4.3200000000000002E-002   -0.17462533928766133     
   4.3500000000000004E-002   -0.28845130988436019     
   4.3799999999999999E-002   -0.40170515684288688     
   4.4100000000000000E-002   -0.50958243713334284     
   4.4400000000000002E-002   -0.60747811981881839     
   4.4700000000000004E-002   -0.69113349195756157     
   4.4999999999999998E-002   -0.75688284023260621     
   4.5300000000000000E-002   -0.80177658039474409     
   4.5600000000000002E-002   -0.82367355799670960     
   4.5899999999999996E-002   -0.82137831050568977     
   4.6200000000000005E-002   -0.79457441482586688     
   4.6500000000000000E-002   -0.74388630276900258     
   4.6799999999999994E-002   -0.67080458336223003     
   4.7100000000000003E-002   -0.57758687322055735     
   4.7399999999999998E-002   -0.46717918599978603     
   4.7700000000000006E-002   -0.34305056352530983     
   4.8000000000000001E-002   -0.20904944175050666     
   4.8300000000000010E-002    -6.9253852757152234E-002
   4.8600000000000004E-002     7.2200086605124003E-002
   4.8899999999999999E-002    0.21136456536346304     
   4.9200000000000008E-002    0.34449048244707825     
   4.9500000000000002E-002    0.46838768833939071     
   4.9800000000000011E-002    0.58041969637484314     
   5.0100000000000006E-002    0.67868116992104888     
   5.0400000000000000E-002    0.76209516484999185     
   5.0700000000000009E-002    0.83037899004193605     
   5.1000000000000004E-002    0.88410287415537425     
   5.1299999999999998E-002    0.92453205223561952     
   5.1600000000000007E-002    0.95354370976798819     
   5.1900000000000002E-002    0.97334115680178712     
   5.2200000000000010E-002    0.98615516531301139     
   5.2500000000000005E-002    0.99399451790236526     
   5.2800000000000000E-002    0.99824877299336734     
   5.3099999999999994E-002    0.99937276034434674     
   5.3400000000000003E-002    0.99667057854178509     
   5.3699999999999998E-002    0.98813074290756120     
   5.4000000000000006E-002    0.97043330561995589     
   5.4300000000000001E-002    0.93904547809949079     
   5.4599999999999996E-002    0.88860885392785605     
   5.4900000000000004E-002    0.81340185272303600     
   5.5199999999999999E-002    0.70799910624495155     
   5.5499999999999994E-002    0.56789934950363374     
   5.5800000000000002E-002    0.39029424841082339     
   5.6099999999999997E-002    0.17470201996129830     
   5.6400000000000006E-002    -7.6613099182550215E-002
   5.6700000000000000E-002   -0.35825530436251296     
   5.6999999999999995E-002   -0.66180517188000909     
   5.7300000000000004E-002   -0.97603001042373805     
   5.7599999999999998E-002    -1.2874306812084875     
   5.7900000000000007E-002    -1.5812099269056858     
   5.8200000000000002E-002    -1.8421189287505086     
   5.8499999999999996E-002    -2.0557710789025450     
   5.8800000000000005E-002    -2.2094463340865431     
   5.9100000000000000E-002    -2.2931870649054957     
   5.9400000000000008E-002    -2.3005874567160447     
   5.9700000000000003E-002    -2.2290100515305369     
   6.0000000000000012E-002    -2.0799063975223788     
   6.0300000000000006E-002    -1.8583865697375970     
   6.0600000000000001E-002    -1.5728485093826237     
   6.0900000000000010E-002    -1.2342210892744845     
   6.1200000000000004E-002   -0.85494337726173697     
   6.1500000000000013E-002   -0.44819470460621602     
   6.1800000000000008E-002    -2.6990229807588140E-002
   6.2100000000000002E-002    0.39641580553597144     
   6.2399999999999997E-002    0.81112446126922055     
   6.2700000000000006E-002     1.2077252836932999     
   6.3000000000000000E-002     1.5782915021394288     
   6.3300000000000009E-002     1.9163467930777500     
   6.3600000000000004E-002     2.2162788423700945     
   6.3899999999999998E-002     2.4732583738945806     
   6.4199999999999993E-002     2.6827033156982338     
   6.4500000000000002E-002     2.8399062454129194     
   6.4800000000000010E-002     2.9401371615407044     
   6.5100000000000005E-002     2.9783524843322056     
   6.5400000000000000E-002     2.9497057047642130     
   6.5700000000000008E-002     2.8496707659514726     
   6.5999999999999989E-002     2.6744023476132668     
   6.6299999999999998E-002     2.4215853445820557     
   6.6600000000000006E-002     2.0905928337250828     
   6.6900000000000001E-002     1.6832659803920436     
   6.7199999999999996E-002     1.2042993140555680     
   6.7500000000000004E-002    0.66138013104370685     
   6.7800000000000013E-002     6.5875490950195736E-002
   6.8099999999999994E-002   -0.56775540307080874     
   6.8400000000000002E-002    -1.2216452876401434     
   6.8700000000000011E-002    -1.8749821657252603     
   6.8999999999999992E-002    -2.5047770212656104     
   6.9300000000000000E-002    -3.0863095384094095     
   6.9600000000000009E-002    -3.5946536844933092     
   6.9900000000000004E-002    -4.0055218213245070     
   7.0199999999999999E-002    -4.2967694173856756     
   7.0500000000000007E-002    -4.4501759141472519     
   7.0800000000000016E-002    -4.4522561551537194     
   7.1099999999999997E-002    -4.2962215464324345     
   7.1400000000000005E-002    -3.9825970035853118     
   7.1700000000000000E-002    -3.5200025538567701     
   7.1999999999999995E-002    -2.9254781157534779     
   7.2300000000000003E-002    -2.2234030843875416     
   7.2600000000000012E-002    -1.4451602550212570     
   7.2900000000000006E-002   -0.62681723515897581     
   7.3200000000000001E-002    0.19281199564475315     
   7.3499999999999996E-002    0.97434671803209127     
   7.3800000000000004E-002     1.6811786882437758     
   7.4099999999999999E-002     2.2811244744071857     
   7.4400000000000008E-002     2.7490346496828693     
   7.4700000000000003E-002     3.0687191584454041     
   7.5000000000000011E-002     3.2331300411484563     
   7.5299999999999992E-002     3.2453682484843824     
   7.5600000000000001E-002     3.1172484257695032     
   7.5900000000000009E-002     2.8682677616772025     
   7.6200000000000004E-002     2.5238048762809200     
   7.6499999999999999E-002     2.1119143591867129     
   7.6800000000000007E-002     1.6620376503581227     
   7.7099999999999988E-002     1.2016726786215415     
   7.7399999999999997E-002    0.75474120021950952     
   7.7700000000000005E-002    0.34032833022527953     
   7.8000000000000014E-002    -2.8645826860845158E-002
   7.8299999999999995E-002   -0.34493500854352988     
   7.8600000000000003E-002   -0.60669996522674197     
   7.8900000000000012E-002   -0.81631601931358588     
   7.9199999999999993E-002   -0.97890417498811999     
   7.9500000000000001E-002    -1.1010439619087826     
   7.9800000000000010E-002    -1.1889578185097633     
   8.0100000000000018E-002    -1.2473210104839367     
   8.0399999999999999E-002    -1.2789900656828195     
   8.0700000000000008E-002    -1.2843711809089911     
   8.1000000000000003E-002    -1.2617571165724470     
   8.1299999999999997E-002    -1.2083792600607879     
   8.1600000000000006E-002    -1.1211020336116704     
   8.1900000000000014E-002   -0.99765550034159389     
   8.2199999999999995E-002   -0.83799317819319086     
   8.2500000000000004E-002   -0.64474473682170697     
   8.2799999999999999E-002   -0.42418983390474807     
   8.3100000000000007E-002   -0.18568762479951317     
   8.3400000000000002E-002     5.8493846034431307E-002
   8.3700000000000011E-002    0.29420153786374748     
   8.4000000000000005E-002    0.50718594033621311     
   8.4300000000000000E-002    0.68388565811358593     
   8.4599999999999995E-002    0.81368859329774246     
   8.4900000000000003E-002    0.88996470826638330     
   8.5199999999999998E-002    0.91073887799079145     
   8.5500000000000007E-002    0.87982445804333054     
   8.5800000000000001E-002    0.80546158315933170     
   8.6100000000000010E-002    0.70044796732090830     
   8.6399999999999991E-002    0.58029843982114926     
   8.6699999999999999E-002    0.46090260823362073     
   8.7000000000000008E-002    0.35775715356863635     
   8.7300000000000003E-002    0.28236493424932974     
   8.7599999999999997E-002    0.24191714153227917     
   8.7900000000000006E-002    0.23779067699835998     
   8.8200000000000014E-002    0.26472689511498437     
   8.8499999999999995E-002    0.31239455646228720     
   8.8800000000000004E-002    0.36581275820274683     
   8.9100000000000013E-002    0.40780497241276059     
   8.9399999999999993E-002    0.42134390746133654     
   8.9700000000000002E-002    0.39230846989164725     
   9.0000000000000011E-002    0.31170988564396396     
   9.0299999999999991E-002    0.17786592166196513     
   9.0600000000000000E-002    -2.9015614531553435E-003
   9.0900000000000009E-002   -0.21601159349923027     
   9.1200000000000017E-002   -0.43951465776557974     
   9.1499999999999998E-002   -0.64679270036761416     
   9.1800000000000007E-002   -0.80861881045314021     
   9.2100000000000001E-002   -0.89703864993880700     
   9.2399999999999996E-002   -0.88888381713687536     
   9.2700000000000005E-002   -0.76850224647191467     
   9.3000000000000013E-002   -0.53058082960935238     
   9.3300000000000008E-002   -0.18125209011604682     
   9.3600000000000003E-002    0.26180428938372557     
   9.3899999999999997E-002    0.77016981993598055     
   9.4200000000000006E-002     1.3073844619335002     
   9.4500000000000001E-002     1.8317294436231997     
   9.4800000000000009E-002     2.3001048527516588     
   9.5100000000000004E-002     2.6722722909295129     
   9.5399999999999999E-002     2.9135205634164691     
   9.5699999999999993E-002     2.9989641152017441     
   9.6000000000000002E-002     2.9147712165419080     
   9.6300000000000011E-002     2.6590401703368514     
   9.6600000000000005E-002     2.2425571938113080     
   9.6900000000000000E-002     1.6863367944868131     
   9.7200000000000009E-002     1.0207701242718521     
   9.7499999999999989E-002    0.28194407306230884     
   9.7799999999999998E-002   -0.49077246153397169     
   9.8100000000000007E-002    -1.2576157003141386     
   9.8400000000000015E-002    -1.9818688497815451     
   9.8699999999999996E-002    -2.6308721431309081     
   9.9000000000000005E-002    -3.1785344206395933     
   9.9300000000000013E-002    -3.6055589181813161     
   9.9599999999999994E-002    -3.8998566299945594     
   9.9900000000000003E-002    -4.0563904822723060     
  0.10020000000000001         -4.0758316596558757     
  0.10049999999999999         -3.9639790616965627     
  0.10080000000000000         -3.7306945602886969     
  0.10110000000000001         -3.3883906583676691     
  0.10140000000000000         -2.9519938226910796     
  0.10170000000000000         -2.4377997113569876     
  0.10200000000000001         -1.8630252783984176     
  0.10230000000000002         -1.2462586903725068     
  0.10260000000000000        -0.60653610656333257     
  0.10290000000000001          3.5831684703600430E-002
  0.10320000000000000         0.65995958063617088     
  0.10350000000000001          1.2445723542802298     
  0.10380000000000000          1.7681078732688960     
  0.10410000000000001          2.2104362842021033     
  0.10440000000000001          2.5527519637595617     
  0.10470000000000000          2.7796360245128966     
  0.10500000000000000          2.8801535788971648     
  0.10530000000000000          2.8486597602489070     
  0.10560000000000000          2.6865003924955317     
  0.10590000000000001          2.4021647219080933     
  0.10620000000000000          2.0116509570921011     
  0.10650000000000001          1.5378246540338552     
  0.10679999999999999          1.0097349598534358     
  0.10710000000000000         0.46069776483567537     
  0.10740000000000001         -7.3507237418094284E-002
  0.10770000000000000        -0.55684323756668341     
  0.10800000000000000        -0.95632243466187905     
  0.10830000000000001         -1.2436581569553589     
  0.10859999999999999         -1.3978360490581068     
  0.10890000000000000         -1.4068564372265087     
  0.10920000000000001         -1.2684877215707004     
  0.10950000000000001        -0.99144977858955130     
  0.10979999999999999        -0.59405914527419590     
  0.11009999999999999        -0.10437715062620079     
  0.11040000000000001         0.44225548798582537     
  0.11070000000000001          1.0055374929309586     
  0.11100000000000000          1.5421219372505917     
  0.11130000000000000          2.0096910788585660     
  0.11160000000000002          2.3687119640622640     
  0.11190000000000001          2.5858562458744103     
  0.11220000000000001          2.6366525713159348     
  0.11250000000000000          2.5070869758834249     
  0.11280000000000000          2.1952091734815724     
  0.11309999999999999          1.7118956100926184     
  0.11340000000000001          1.0802152882290130     
  0.11369999999999998         0.33480340020152610     
  0.11400000000000000        -0.48074417942028091     
  0.11430000000000000         -1.3163939060153282     
  0.11460000000000002         -2.1184776621902603     
  0.11489999999999999         -2.8344680717666293     
  0.11520000000000001         -3.4158158808761954     
  0.11550000000000001         -3.8222363167871833     
  0.11580000000000000         -4.0249055348078002     
  0.11609999999999999         -4.0079684964153017     
  0.11640000000000002         -3.7713700634705276     
  0.11670000000000001         -3.3296410984814457     
  0.11700000000000001         -2.7115313389187747     
  0.11730000000000000         -1.9582823288579405     
  0.11760000000000000         -1.1192964272916655     
  0.11789999999999999        -0.25030322998799548     
  0.11820000000000001         0.59301407884179014     
  0.11850000000000001          1.3581858917755270     
  0.11880000000000000          1.9995706748766313     
  0.11910000000000000          2.4830035441756806     
  0.11940000000000002          2.7865911941656236     
  0.11970000000000001          2.9032305354586327     
  0.12000000000000001          2.8402042244503747     
  0.12030000000000000          2.6177854906185019     
  0.12060000000000000          2.2681390877434495     
  0.12089999999999999          1.8306778595405007     
  0.12119999999999999          1.3498220255853752     
  0.12150000000000001         0.87068442995711592     
  0.12180000000000001         0.43507663764715687     
  0.12210000000000000          7.8570937334515922E-002
  0.12239999999999999        -0.17254119986865923     
  0.12270000000000002        -0.30307405750612970     
  0.12300000000000001        -0.30927448804358093     
  0.12330000000000001        -0.19895905367795841     
  0.12360000000000000          9.7890208955555558E-003
  0.12390000000000000         0.29131919244665294     
  0.12419999999999999         0.61425750104861043     
  0.12450000000000001         0.94522545063834951     
  0.12480000000000001          1.2516909953751103     
  0.12509999999999999          1.5043207491879897     
  0.12540000000000001          1.6796454224902178     
  0.12570000000000003          1.7607461123514341     
  0.12600000000000000          1.7384761526955899     
  0.12630000000000002          1.6107493254319252     
  0.12659999999999999          1.3816276658502815     
  0.12690000000000001          1.0598288344869644     
  0.12719999999999998         0.65737274738054197     
  0.12750000000000000         0.18770361383857326     
  0.12780000000000002        -0.33493713601645325     
  0.12809999999999999        -0.89666685814089675     
  0.12840000000000001         -1.4845835882573040     
  0.12869999999999998         -2.0850516875336194     
  0.12900000000000000         -2.6848535627104013     
  0.12930000000000003         -3.2689108380744827     
  0.12959999999999999         -3.8199650217420782     
  0.12990000000000002         -4.3192701024791944     
  0.13019999999999998         -4.7446306818346358     
  0.13050000000000000         -5.0740902728418575     
  0.13080000000000003         -5.2848437434194011     
  0.13109999999999999         -5.3562435706235192     
  0.13140000000000002         -5.2731304189818786     
  0.13169999999999998         -5.0248425989557859     
  0.13200000000000001         -4.6105926738790117     
  0.13229999999999997         -4.0376211797657930     
  0.13260000000000000         -3.3223961949877179     
  0.13290000000000002         -2.4909004464588804     
  0.13319999999999999         -1.5744380215254736     
  0.13350000000000001        -0.60947865344188301     
  0.13380000000000003         0.36639033306079227     
  0.13410000000000000          1.3182300111005887     
  0.13440000000000002          2.2140911974055797     
  0.13469999999999999          3.0308116784724000     
  0.13500000000000001          3.7525613294010327     
  0.13529999999999998          4.3719451135078486     
  0.13560000000000000          4.8911810914350298     
  0.13590000000000002          5.3173000701849702     
  0.13619999999999999          5.6631722050816933     
  0.13650000000000001          5.9431347347891261     
  0.13680000000000003          6.1700530757063916     
  0.13710000000000000          6.3547056441838663     
  0.13740000000000002          6.5015032051101400     
  0.13769999999999999          6.6093867546056515     
  0.13800000000000001          6.6703081536286959     
  0.13829999999999998          6.6700337075521361     
  0.13860000000000000          6.5906188903890950     
  0.13890000000000002          6.4102915602262556     
  0.13919999999999999          6.1076308325307025     
  0.13950000000000001          5.6633772558392366     
  0.13979999999999998          5.0619026293898628     
  0.14010000000000000          4.2941169962080181     
  0.14040000000000002          3.3585890653563268     
  0.14069999999999999          2.2619687759579676     
  0.14100000000000001          1.0196172837255286     
  0.14130000000000004        -0.34422093112367946     
  0.14160000000000000         -1.7982845705972466     
  0.14189999999999997         -3.3046389121916633     
  0.14219999999999999         -4.8204865238990564     
  0.14250000000000002         -6.2993370893357001     
  0.14279999999999998         -7.6937870202761403     
  0.14310000000000000         -8.9562949100849920     
  0.14339999999999997         -10.042180448567620     
  0.14369999999999999         -10.909880354287765     
  0.14400000000000002         -11.524249524580569     
  0.14429999999999998         -11.857296377261378     
  0.14460000000000001         -11.888606582494219     
  0.14490000000000003         -11.608371310135567     
  0.14520000000000000         -11.015209186475431     
  0.14550000000000002         -10.119223820906541     
  0.14579999999999999         -8.9392906925318698     
  0.14610000000000001         -7.5037155809218348     
  0.14640000000000003         -5.8510519368324196     
  0.14670000000000000         -4.0249883779115549     
  0.14699999999999996         -2.0778429721385123     
  0.14729999999999999         -6.6815208393624204E-002
  0.14760000000000001          1.9486912651226334     
  0.14789999999999998          3.9040577609916767     
  0.14820000000000000          5.7369217405923933     