  -1.4999999999999999E-002     0.0000000000000000     
  -1.4700000000000000E-002     0.0000000000000000     
  -1.4400000000000000E-002     0.0000000000000000     
  -1.4100000000000000E-002     0.0000000000000000     
  -1.3800000000000000E-002     0.0000000000000000     
  -1.3500000000000000E-002     0.0000000000000000     
  -1.3200000000000000E-002     0.0000000000000000     
  -1.2899999999999998E-002    -4.0836719665314347E-035
  -1.2600000000000000E-002     2.3564997497690161E-034
  -1.2299999999999998E-002    -3.5279193596267735E-033
  -1.2000000000000000E-002     1.3924180799826360E-031
  -1.1699999999999999E-002     7.7454086847008558E-032
  -1.1399999999999999E-002    -3.0331464675623501E-029
  -1.1099999999999999E-002     2.2137096189148681E-028
  -1.0799999999999999E-002     2.3554258034952002E-027
  -1.0499999999999999E-002    -6.8962337430961471E-026
  -1.0199999999999999E-002     7.8635055260537224E-025
  -9.8999999999999991E-003    -5.3717538561288164E-024
  -9.5999999999999992E-003     2.3634982695236213E-023
  -9.2999999999999992E-003    -6.4381456519096239E-023
  -8.9999999999999993E-003     5.2315178952354961E-023
  -8.6999999999999994E-003     5.5006531285076418E-022
  -8.3999999999999995E-003    -3.8721826969641746E-021
  -8.0999999999999996E-003     1.5379945228196038E-020
  -7.7999999999999988E-003    -4.3894381210391895E-020
  -7.4999999999999997E-003     9.8570841985562296E-020
  -7.1999999999999998E-003    -1.9361954892287380E-019
  -6.8999999999999981E-003     4.1943723243634491E-019
  -6.5999999999999982E-003    -1.2692977932170812E-018
  -6.3000000000000000E-003     4.0496976080473120E-018
  -6.0000000000000001E-003    -8.2712122098504637E-018
  -5.6999999999999985E-003    -2.1089817577167307E-018
  -5.3999999999999986E-003     8.7397203604833531E-017
  -5.1000000000000004E-003    -3.6852971519958156E-016
  -4.7999999999999987E-003     9.3958643745576482E-016
  -4.5000000000000005E-003    -1.5228017618044119E-015
  -4.1999999999999989E-003     8.3455784600713900E-016
  -3.8999999999999990E-003     3.7848159529412298E-015
  -3.5999999999999990E-003    -1.5120662968243215E-014
  -3.2999999999999991E-003     3.1917228056474109E-014
  -2.9999999999999992E-003    -4.2573912196206334E-014
  -2.6999999999999993E-003     2.2351552845991524E-014
  -2.3999999999999994E-003     5.4716380216849117E-014
  -2.0999999999999977E-003    -1.8307073522058626E-013
  -1.7999999999999995E-003     2.9383670518447202E-013
  -1.4999999999999979E-003    -2.7811287344262081E-013
  -1.1999999999999997E-003     9.3087226837353099E-014
  -8.9999999999999976E-004     1.5317067547041679E-013
  -5.9999999999999810E-004    -3.6229775689927690E-013
  -2.9999999999999992E-004     8.5867511018244969E-013
   0.0000000000000000         -2.4263026483783978E-012
   3.0000000000000165E-004     5.0988341153412886E-012
   5.9999999999999984E-004    -6.2093949773633916E-012
   9.0000000000000149E-004     6.9641742459630729E-013
   1.2000000000000031E-003     1.3413214115798322E-011
   1.5000000000000013E-003    -2.7114199774302961E-011
   1.8000000000000030E-003     1.9544718274366879E-011
   2.1000000000000012E-003     2.6241259165615816E-011
   2.3999999999999994E-003    -8.0753861930737969E-011
   2.7000000000000010E-003    -7.8837544131848958E-012
   2.9999999999999992E-003     5.1731702255253253E-010
   3.3000000000000008E-003    -1.3317953406755123E-009
   3.6000000000000025E-003     4.4650466657358834E-010
   3.9000000000000007E-003     6.6642655838222709E-009
   4.2000000000000023E-003    -1.9879514923104580E-008
   4.5000000000000005E-003     1.5035974243460259E-008
   4.7999999999999987E-003     5.8100987132547743E-008
   5.1000000000000004E-003    -1.7436335042475548E-007
   5.4000000000000020E-003     4.8713854283732871E-008
   5.7000000000000037E-003     5.7860108881868655E-007
   5.9999999999999984E-003    -6.9029181304358644E-007
   6.3000000000000000E-003    -1.6049139048845973E-006
   6.6000000000000017E-003     2.1230671336525120E-006
   6.9000000000000034E-003     5.0276948968530633E-006
   7.2000000000000015E-003    -4.1262546801590361E-006
   7.5000000000000032E-003    -1.5785377399879508E-005
   7.8000000000000014E-003     6.2692779465578496E-006
   8.0999999999999996E-003     7.1306312747765332E-005
   8.4000000000000012E-003     1.3549691357184201E-004
   8.7000000000000029E-003     1.7702049808576703E-004
   9.0000000000000011E-003     2.5139920762740076E-004
   9.2999999999999992E-003     4.3235701741650701E-004
   9.6000000000000009E-003     7.3133676778525114E-004
   9.8999999999999991E-003     1.1310722911730409E-003
   1.0200000000000001E-002     1.6966161783784628E-003
   1.0500000000000002E-002     2.5781001895666122E-003
   1.0800000000000004E-002     3.9194333367049694E-003
   1.1099999999999999E-002     5.8485870249569416E-003
   1.1400000000000000E-002     8.5625704377889633E-003
   1.1700000000000002E-002     1.2389335781335831E-002
   1.2000000000000004E-002     1.7735935747623444E-002
   1.2300000000000002E-002     2.5024577975273132E-002
   1.2600000000000000E-002     3.4766111522912979E-002
   1.2900000000000002E-002     4.7638781368732452E-002
   1.3200000000000000E-002     6.4401507377624512E-002
   1.3500000000000002E-002     8.5775367915630341E-002
   1.3800000000000003E-002    0.11248923093080521     
   1.4100000000000001E-002    0.14533829689025879     
   1.4400000000000000E-002    0.18499086797237396     
   1.4700000000000001E-002    0.23172688484191895     
   1.4999999999999999E-002    0.28542980551719666     
   1.5300000000000001E-002    0.34563490748405457     
   1.5600000000000003E-002    0.41128620505332947     
   1.5899999999999997E-002    0.48040664196014404     
   1.6199999999999999E-002    0.55010712146759033     
   1.6500000000000001E-002    0.61681121587753296     
   1.6800000000000002E-002    0.67616003751754761     
   1.7100000000000004E-002    0.72300559282302856     
   1.7400000000000006E-002    0.75170886516571045     
   1.7700000000000000E-002    0.75663316249847412     
   1.8000000000000002E-002    0.73261624574661255     
   1.8300000000000004E-002    0.67535197734832764     
   1.8600000000000005E-002    0.58195340633392334     
   1.8900000000000000E-002    0.45172053575515747     
   1.9200000000000002E-002    0.28659635782241821     
   1.9500000000000003E-002     9.1124206781387329E-002
   1.9799999999999998E-002   -0.12728984653949738     
   2.0100000000000000E-002   -0.35841321945190430     
   2.0400000000000001E-002   -0.58953112363815308     
   2.0700000000000003E-002   -0.80650728940963745     
   2.0999999999999998E-002   -0.99507904052734375     
   2.1299999999999999E-002    -1.1416221857070923     
   2.1600000000000001E-002    -1.2341889142990112     
   2.1900000000000003E-002    -1.2643399238586426     
   2.2200000000000004E-002    -1.2282447814941406     
   2.2500000000000006E-002    -1.1271853446960449     
   2.2800000000000001E-002   -0.96775501966476440     
   2.3100000000000002E-002   -0.76216322183609009     
   2.3400000000000004E-002   -0.52781379222869873     
   2.3699999999999999E-002   -0.28579479455947876     
   2.4000000000000000E-002    -5.9342253953218460E-002
   2.4300000000000002E-002    0.12755492329597473     
   2.4599999999999997E-002    0.25207450985908508     
   2.4900000000000005E-002    0.29451999068260193     
   2.5200000000000000E-002    0.24017769098281860     
   2.5499999999999995E-002     8.0725073814392090E-002
   2.5800000000000003E-002   -0.18500682711601257     
   2.6099999999999998E-002   -0.55061203241348267     
   2.6400000000000007E-002    -1.0017855167388916     
   2.6700000000000002E-002    -1.5173858404159546     
   2.6999999999999996E-002    -2.0702784061431885     
   2.7300000000000005E-002    -2.6286072731018066     
   2.7600000000000000E-002    -3.1579928398132324     
   2.7900000000000008E-002    -3.6232471466064453     
   2.8200000000000003E-002    -3.9906475543975830     
   2.8499999999999998E-002    -4.2298426628112793     
   2.8800000000000006E-002    -4.3153352737426758     
   2.9100000000000001E-002    -4.2287697792053223     
   2.9400000000000003E-002    -3.9600057601928711     
   2.9700000000000004E-002    -3.5074298381805420     
   3.0000000000000006E-002    -2.8792231082916260     
   3.0300000000000001E-002    -2.0930824279785156     
   3.0600000000000002E-002    -1.1749707460403442     
   3.0900000000000004E-002   -0.15876533091068268     
   3.1199999999999999E-002    0.91543203592300415     
   3.1500000000000007E-002     2.0037906169891357     
   3.1800000000000002E-002     3.0602893829345703     
   3.2099999999999997E-002     4.0399489402770996     
   3.2400000000000005E-002     4.9007296562194824     
   3.2700000000000000E-002     5.6064720153808594     
   3.3000000000000002E-002     6.1296448707580566     
   3.3300000000000003E-002     6.4520750045776367     
   3.3599999999999998E-002     6.5671072006225586     
   3.3900000000000000E-002     6.4801912307739258     
   3.4200000000000001E-002     6.2076811790466309     
   3.4500000000000003E-002     5.7780761718750000     
   3.4799999999999998E-002     5.2281231880187988     
   3.5099999999999999E-002     4.5998964309692383     
   3.5400000000000001E-002     3.9407541751861572     
   3.5699999999999996E-002     3.2976281642913818     
   3.6000000000000004E-002     2.7132685184478760     
   3.6299999999999999E-002     2.2247085571289062     
   3.6600000000000008E-002     1.8585923910140991     
   3.6900000000000002E-002     1.6312966346740723     
   3.7199999999999997E-002     1.5462384223937988     
   3.7500000000000006E-002     1.5919808149337769     
   3.7800000000000000E-002     1.7463107109069824     
   3.8100000000000009E-002     1.9758216142654419     
   3.8400000000000004E-002     2.2372741699218750     
   3.8699999999999998E-002     2.4824709892272949     
   3.9000000000000007E-002     2.6588966846466064     
   3.9300000000000002E-002     2.7149336338043213     
   3.9600000000000003E-002     2.6029109954833984     
   3.9900000000000005E-002     2.2799746990203857     
   4.0200000000000000E-002     1.7137933969497681     
   4.0500000000000001E-002    0.88380968570709229     
   4.0800000000000003E-002   -0.21783077716827393     
   4.1100000000000005E-002    -1.5814713239669800     
   4.1399999999999999E-002    -3.1804862022399902     
   4.1700000000000008E-002    -4.9704513549804688     
   4.2000000000000003E-002    -6.8869781494140625     
   4.2299999999999997E-002    -8.8500080108642578     
   4.2600000000000006E-002    -10.763257026672363     
   4.2900000000000001E-002    -12.517210960388184     
   4.3200000000000002E-002    -13.998364448547363     
   4.3500000000000004E-002    -15.092254638671875     
   4.3799999999999999E-002    -15.691271781921387     
   4.4100000000000000E-002    -15.706336021423340     
   4.4400000000000002E-002    -15.072503089904785     
   4.4700000000000004E-002    -13.758070945739746     
   4.4999999999999998E-002    -11.771306037902832     
   4.5300000000000000E-002    -9.1614933013916016     
   4.5600000000000002E-002    -6.0228600502014160     
   4.5899999999999996E-002    -2.4885668754577637     
   4.6200000000000005E-002     1.2767720222473145     
   4.6500000000000000E-002     5.0837883949279785     
   4.6799999999999994E-002     8.7346277236938477     
   4.7100000000000003E-002     12.035535812377930     
   4.7399999999999998E-002     14.810522079467773     
   4.7700000000000006E-002     16.915555953979492     
   4.8000000000000001E-002     18.246437072753906     
   4.8300000000000010E-002     18.748361587524414     
   4.8600000000000004E-002     18.417133331298828     
   4.8899999999999999E-002     17.296182632446289     
   4.9200000000000008E-002     15.474268913269043     
   4.9500000000000002E-002     13.074870109558105     
   4.9800000000000011E-002     10.243861198425293     
   5.0100000000000006E-002     7.1417045593261719     
   5.0400000000000000E-002     3.9289026260375977     
   5.0700000000000009E-002    0.75447350740432739     
   5.1000000000000004E-002    -2.2474150657653809     
   5.1299999999999998E-002    -4.9663515090942383     
   5.1600000000000007E-002    -7.3193316459655762     
   5.1900000000000002E-002    -9.2478322982788086     
   5.2200000000000010E-002    -10.719075202941895     
   5.2500000000000005E-002    -11.720686912536621     
   5.2800000000000000E-002    -12.258764266967773     
   5.3099999999999994E-002    -12.354290008544922     
   5.3400000000000003E-002    -12.036540985107422     
   5.3699999999999998E-002    -11.344268798828125     
   5.4000000000000006E-002    -10.323042869567871     
   5.4300000000000001E-002    -9.0219383239746094     
   5.4599999999999996E-002    -7.4952135086059570     
   5.4900000000000004E-002    -5.8012232780456543     
   5.5199999999999999E-002    -4.0008802413940430     
   5.5499999999999994E-002    -2.1574454307556152     
   5.5800000000000002E-002   -0.33438515663146973     
   5.6099999999999997E-002     1.4065434932708740     
   5.6400000000000006E-002     3.0094120502471924     
   5.6700000000000000E-002     4.4254932403564453     
   5.6999999999999995E-002     5.6162972450256348     
   5.7300000000000004E-002     6.5567750930786133     
   5.7599999999999998E-002     7.2363448143005371     
   5.7900000000000007E-002     7.6574997901916504     
   5.8200000000000002E-002     7.8372001647949219     
   5.8499999999999996E-002     7.8040041923522949     
   5.8800000000000005E-002     7.5936446189880371     
   5.9100000000000000E-002     7.2473902702331543     
   5.9400000000000008E-002     6.8070549964904785     
   5.9700000000000003E-002     6.3101305961608887     
   6.0000000000000012E-002     5.7890725135803223     
   6.0300000000000006E-002     5.2665290832519531     
   6.0600000000000001E-002     4.7551736831665039     
   6.0900000000000010E-002     4.2577953338623047     
   6.1200000000000004E-002     3.7674572467803955     
   6.1500000000000013E-002     3.2716228961944580     
   6.1800000000000008E-002     2.7521843910217285     
   6.2100000000000002E-002     2.1891868114471436     
   6.2399999999999997E-002     1.5671018362045288     
   6.2700000000000006E-002    0.87330794334411621     
   6.3000000000000000E-002    0.10213787853717804     
   6.3300000000000009E-002   -0.74245554208755493     
   6.3600000000000004E-002    -1.6487500667572021     
   6.3899999999999998E-002    -2.5950355529785156     
   6.4199999999999993E-002    -3.5538122653961182     
   6.4500000000000002E-002    -4.4934034347534180     
   6.4800000000000010E-002    -5.3789949417114258     
   6.5100000000000005E-002    -6.1778225898742676     
   6.5400000000000000E-002    -6.8613290786743164     
   6.5700000000000008E-002    -7.4083113670349121     
   6.5999999999999989E-002    -7.8064923286437988     
   6.6299999999999998E-002    -8.0517368316650391     
   6.6600000000000006E-002    -8.1506347656250000     
   6.6900000000000001E-002    -8.1180381774902344     
   6.7199999999999996E-002    -7.9717588424682617     
   6.7500000000000004E-002    -7.7325453758239746     
   6.7800000000000013E-002    -7.4205341339111328     
   6.8099999999999994E-002    -7.0498666763305664     
   6.8400000000000002E-002    -6.6295604705810547     
   6.8700000000000011E-002    -6.1607322692871094     
   6.8999999999999992E-002    -5.6375126838684082     
   6.9300000000000000E-002    -5.0511536598205566     
   6.9600000000000009E-002    -4.3907756805419922     
   6.9900000000000004E-002    -3.6479735374450684     
   7.0199999999999999E-002    -2.8204355239868164     
   7.0500000000000007E-002    -1.9129227399826050     
   7.0800000000000016E-002   -0.93959355354309082     
   7.1099999999999997E-002     8.0246478319168091E-002
   7.1400000000000005E-002     1.1243366003036499     
   7.1700000000000000E-002     2.1702201366424561     
   7.1999999999999995E-002     3.2051103115081787     
   7.2300000000000003E-002     4.2292041778564453     
   7.2600000000000012E-002     5.2566738128662109     
   7.2900000000000006E-002     6.3190612792968750     
   7.3200000000000001E-002     7.4600968360900879     
   7.3499999999999996E-002     8.7296981811523438     
   7.3800000000000004E-002     10.174035072326660     
   7.4099999999999999E-002     11.820248603820801     
   7.4400000000000008E-002     13.668336868286133     
   7.4700000000000003E-002     15.679027557373047     
   7.5000000000000011E-002     17.762584686279297     
   7.5299999999999992E-002     19.782024383544922     
   7.5600000000000001E-002     21.554773330688477     
   7.5900000000000009E-002     22.862789154052734     
   7.6200000000000004E-002     23.474132537841797     
   7.6499999999999999E-002     23.160690307617188     
   7.6800000000000007E-002     21.724206924438477     
   7.7099999999999988E-002     19.025583267211914     
   7.7399999999999997E-002     15.002699851989746     
   7.7700000000000005E-002     9.6889839172363281     
   7.8000000000000014E-002     3.2241191864013672     
   7.8299999999999995E-002    -4.1467390060424805     
   7.8600000000000003E-002    -12.082388877868652     
   7.8900000000000012E-002    -20.166465759277344     
   7.9199999999999993E-002    -27.933977127075195     
   7.9500000000000001E-002    -34.901828765869141     
   7.9800000000000010E-002    -40.612140655517578     
   8.0100000000000018E-002    -44.666774749755859     
   8.0399999999999999E-002    -46.753990173339844     
   8.0700000000000008E-002    -46.684539794921875     
   8.1000000000000003E-002    -44.406452178955078     
   8.1299999999999997E-002    -40.005348205566406     
   8.1600000000000006E-002    -33.707908630371094     
   8.1900000000000014E-002    -25.860658645629883     
   8.2199999999999995E-002    -16.905254364013672     
   8.2500000000000004E-002    -7.3480033874511719     
   8.2799999999999999E-002     2.2854175567626953     
   8.3100000000000007E-002     11.476166725158691     
   8.3400000000000002E-002     19.755138397216797     
   8.3700000000000011E-002     26.736360549926758     
   8.4000000000000005E-002     32.127731323242188     
   8.4300000000000000E-002     35.755825042724609     
   8.4599999999999995E-002     37.563896179199219     
   8.4900000000000003E-002     37.599754333496094     
   8.5199999999999998E-002     36.015678405761719     
   8.5500000000000007E-002     33.040031433105469     
   8.5800000000000001E-002     28.949592590332031     
   8.6100000000000010E-002     24.059011459350586     
   8.6399999999999991E-002     18.686470031738281     
   8.6699999999999999E-002     13.135674476623535     
   8.7000000000000008E-002     7.6844530105590820     
   8.7300000000000003E-002     2.5651268959045410     
   8.7599999999999997E-002    -2.0352885723114014     
   8.7900000000000006E-002    -5.9808392524719238     
   8.8200000000000014E-002    -9.1910505294799805     
   8.8499999999999995E-002    -11.625879287719727     
   8.8800000000000004E-002    -13.289942741394043     
   8.9100000000000013E-002    -14.227336883544922     
   8.9399999999999993E-002    -14.501852035522461     
   8.9700000000000002E-002    -14.204023361206055     
   9.0000000000000011E-002    -13.438031196594238     
   9.0299999999999991E-002    -12.308619499206543     
   9.0600000000000000E-002    -10.929298400878906     
   9.0900000000000009E-002    -9.4016599655151367     
   9.1200000000000017E-002    -7.8158683776855469     
   9.1499999999999998E-002    -6.2557802200317383     
   9.1800000000000007E-002    -4.7790336608886719     
   9.2100000000000001E-002    -3.4307587146759033     
   9.2399999999999996E-002    -2.2405893802642822     
   9.2700000000000005E-002    -1.2156935930252075     
   9.3000000000000013E-002   -0.35886681079864502     
   9.3300000000000008E-002    0.33981886506080627     
   9.3600000000000003E-002    0.89899480342864990     
   9.3899999999999997E-002     1.3326201438903809     
   9.4200000000000006E-002     1.6601576805114746     
   9.4500000000000001E-002     1.8972139358520508     
   9.4800000000000009E-002     2.0527877807617188     
   9.5100000000000004E-002     2.1405565738677979     
   9.5399999999999999E-002     2.1680824756622314     
   9.5699999999999993E-002     2.1391873359680176     
   9.6000000000000002E-002     2.0652513504028320     
   9.6300000000000011E-002     1.9544550180435181     
   9.6600000000000005E-002     1.8156037330627441     
   9.6900000000000000E-002     1.6629339456558228     
   9.7200000000000009E-002     1.5050799846649170     
   9.7499999999999989E-002     1.3549702167510986     
   9.7799999999999998E-002     1.2223002910614014     
   9.8100000000000007E-002     1.1092847585678101     
   9.8400000000000015E-002     1.0239784717559814     
   9.8699999999999996E-002    0.96428209543228149     
   9.9000000000000005E-002    0.92350912094116211     
   9.9300000000000013E-002    0.90244233608245850     
   9.9599999999999994E-002    0.89097654819488525     
   9.9900000000000003E-002    0.88164871931076050     
  0.10020000000000001         0.87221312522888184     
  0.10049999999999999         0.85419398546218872     
  0.10080000000000000         0.82547581195831299     
  0.10110000000000001         0.78355634212493896     
  0.10140000000000000         0.72332930564880371     
  0.10170000000000000         0.64635854959487915     
  0.10200000000000001         0.54876065254211426     
  0.10230000000000002         0.42868739366531372     
  0.10260000000000000         0.28943282365798950     
  0.10290000000000001         0.12755908071994781     
  0.10320000000000000         -5.1662787795066833E-002
  0.10350000000000001        -0.23882585763931274     
  0.10380000000000000        -0.43091920018196106     
  0.10410000000000001        -0.61411648988723755     
  0.10440000000000001        -0.77301687002182007     
  0.10470000000000000        -0.89830994606018066     
  0.10500000000000000        -0.97601658105850220     
  0.10530000000000000        -0.99742788076400757     
  0.10560000000000000        -0.95894753932952881     
  0.10590000000000001        -0.85948854684829712     
  0.10620000000000000        -0.70838052034378052     
  0.10650000000000001        -0.51618069410324097     
  0.10679999999999999        -0.29890149831771851     
  0.10710000000000000         -8.0433070659637451E-002
  0.10740000000000001         0.12299469113349915     
  0.10770000000000000         0.29219663143157959     
  0.10800000000000000         0.40559837222099304     
  0.10830000000000001         0.45691770315170288     
  0.10859999999999999         0.43960782885551453     
  0.10890000000000000         0.35125485062599182     
  0.10920000000000001         0.20070990920066833     
  0.10950000000000001         -2.8206193819642067E-003
  0.10979999999999999        -0.24323835968971252     
  0.11009999999999999        -0.50282996892929077     
  0.11040000000000001        -0.76547473669052124     
  0.11070000000000001         -1.0099120140075684     
  0.11100000000000000         -1.2221368551254272     
  0.11130000000000000         -1.3905066251754761     
  0.11160000000000002         -1.5002125501632690     
  0.11190000000000001         -1.5472910404205322     
  0.11220000000000001         -1.5303353071212769     
  0.11250000000000000         -1.4457955360412598     
  0.11280000000000000         -1.2988282442092896     
  0.11309999999999999         -1.0957859754562378     
  0.11340000000000001        -0.84265846014022827     
  0.11369999999999998        -0.55040454864501953     
  0.11400000000000000        -0.22795173525810242     
  0.11430000000000000         0.11303482949733734     
  0.11460000000000002         0.45982620120048523     
  0.11489999999999999         0.80234628915786743     
  0.11520000000000001          1.1255013942718506     
  0.11550000000000001          1.4180401563644409     
  0.11580000000000000          1.6695272922515869     
  0.11609999999999999          1.8643411397933960     
  0.11640000000000002          1.9945631027221680     
  0.11670000000000001          2.0545558929443359     
  0.11700000000000001          2.0358707904815674     
  0.11730000000000000          1.9391441345214844     
  0.11760000000000000          1.7674406766891479     
  0.11789999999999999          1.5286054611206055     
  0.11820000000000001          1.2362869977951050     
  0.11850000000000001         0.90572655200958252     
  0.11880000000000000         0.55720615386962891     
  0.11910000000000000         0.21236735582351685     
  0.11940000000000002        -0.11102235317230225     
  0.11970000000000001        -0.39270484447479248     
  0.12000000000000001        -0.61989641189575195     
  0.12030000000000000        -0.78723484277725220     
  0.12060000000000000        -0.89088690280914307     
  0.12089999999999999        -0.93675112724304199     
  0.12119999999999999        -0.93653130531311035     
  0.12150000000000001        -0.90279608964920044     
  0.12180000000000001        -0.85179185867309570     
  0.12210000000000000        -0.79690241813659668     
  0.12239999999999999        -0.74779665470123291     
  0.12270000000000002        -0.71080851554870605     
  0.12300000000000001        -0.68230617046356201     
  0.12330000000000001        -0.65410923957824707     
  0.12360000000000000        -0.61286348104476929     
  0.12390000000000000        -0.54075390100479126     
  0.12419999999999999        -0.42304736375808716     
  0.12450000000000001        -0.24709245562553406     
  0.12480000000000001         -5.9581669047474861E-003
  0.12509999999999999         0.29414236545562744     
  0.12540000000000001         0.63928359746932983     
  0.12570000000000003          1.0042082071304321     
  0.12600000000000000          1.3543432950973511     
  0.12630000000000002          1.6523249149322510     
  0.12659999999999999          1.8573932647705078     
  0.12690000000000001          1.9346944093704224     
  0.12719999999999998          1.8594908714294434     
  0.12750000000000000          1.6180049180984497     
  0.12780000000000002          1.2143677473068237     
  0.12809999999999999         0.66735559701919556     
  0.12840000000000001          1.0675068944692612E-002
  0.12869999999999998        -0.70743244886398315     
  0.12900000000000000         -1.4341959953308105     
  0.12930000000000003         -2.1133670806884766     
  0.12959999999999999         -2.6899898052215576     
  0.12990000000000002         -3.1203045845031738     
  0.13019999999999998         -3.3711574077606201     
  0.13050000000000000         -3.4230525493621826     
  0.13080000000000003         -3.2740736007690430     
  0.13109999999999999         -2.9363274574279785     
  0.13140000000000002         -2.4365949630737305     
  0.13169999999999998         -1.8093665838241577     
  0.13200000000000001         -1.0972741842269897     
  0.13229999999999997        -0.34829968214035034     
  0.13260000000000000         0.39466893672943115     
  0.13290000000000002          1.0909261703491211     
  0.13319999999999999          1.7028815746307373     
  0.13350000000000001          2.2051646709442139     
  0.13380000000000003          2.5789575576782227     
  0.13410000000000000          2.8141369819641113     
  0.13440000000000002          2.9109442234039307     
  0.13469999999999999          2.8740820884704590     
  0.13500000000000001          2.7171771526336670     
  0.13529999999999998          2.4582798480987549     
  0.13560000000000000          2.1165192127227783     
  0.13590000000000002          1.7158248424530029     
  0.13619999999999999          1.2781311273574829     
  0.13650000000000001         0.82339286804199219     
  0.13680000000000003         0.37414041161537170     
  0.13710000000000000         -5.5509582161903381E-002
  0.13740000000000002        -0.45169341564178467     
  0.13769999999999999        -0.80217909812927246     
  0.13800000000000001         -1.1023880243301392     
  0.13829999999999998         -1.3458837270736694     
  0.13860000000000000         -1.5287767648696899     
  0.13890000000000002         -1.6522778272628784     
  0.13919999999999999         -1.7138966321945190     
  0.13950000000000001         -1.7151223421096802     
  0.13979999999999998         -1.6571993827819824     
  0.14010000000000000         -1.5403965711593628     
  0.14040000000000002         -1.3706688880920410     
  0.14069999999999999         -1.1513305902481079     
  0.14100000000000001        -0.88830530643463135     
  0.14130000000000004        -0.59269309043884277     
  0.14160000000000000        -0.27325147390365601     
  0.14189999999999997          5.7004034519195557E-002
  0.14219999999999999         0.38183903694152832     
  0.14250000000000002         0.69032281637191772     
  0.14279999999999998         0.96674811840057373     
  0.14310000000000000          1.1974443197250366     
  0.14339999999999997          1.3754285573959351     
  0.14369999999999999          1.4904751777648926     
  0.14400000000000002          1.5393005609512329     
  0.14429999999999998          1.5223026275634766     
  0.14460000000000001          1.4382947683334351     
  0.14490000000000003          1.2958459854125977     
  0.14520000000000000          1.1012680530548096     
  0.14550000000000002         0.86171692609786987     
  0.14579999999999999         0.59222865104675293     
  0.14610000000000001         0.30103933811187744     
  0.14640000000000003          1.0342765599489212E-003
  0.14670000000000000        -0.29273092746734619     
  0.14699999999999996        -0.57179427146911621     
  0.14729999999999999        -0.82290190458297729     
  0.14760000000000001         -1.0360596179962158     
  0.14789999999999998         -1.2059861421585083     
  0.14820000000000000         -1.3237656354904175     