  -1.4999999999999999E-002     0.0000000000000000     
  -1.4700000000000000E-002    -5.1848872993697035E-015
  -1.4400000000000000E-002    -7.3553810611692860E-012
  -1.4100000000000000E-002    -2.1748922107711621E-010
  -1.3800000000000000E-002     1.4907340639691569E-010
  -1.3500000000000000E-002     1.0533895533626492E-008
  -1.3200000000000000E-002     1.0332880329144700E-008
  -1.2899999999999998E-002    -8.2349075114507286E-008
  -1.2600000000000000E-002    -9.7483628280770063E-008
  -1.2299999999999998E-002     1.6525262935829232E-007
  -1.2000000000000000E-002     3.8679760905324656E-007
  -1.1699999999999999E-002     3.1043700232658011E-007
  -1.1399999999999999E-002    -7.2212986879094387E-007
  -1.1099999999999999E-002    -1.6184030755539425E-006
  -1.0799999999999999E-002    -2.6408301323499472E-008
  -1.0499999999999999E-002     1.7980628399527632E-006
  -1.0199999999999999E-002     1.6646042695356300E-006
  -9.8999999999999991E-003     1.2606684549609781E-006
  -9.5999999999999992E-003     1.5005909972387599E-006
  -9.2999999999999992E-003    -2.1423261387099046E-006
  -8.9999999999999993E-003    -1.0489379747014027E-005
  -8.6999999999999994E-003    -7.8553694038419053E-006
  -8.3999999999999995E-003     1.0761476914922241E-005
  -8.0999999999999996E-003     1.8709231881075539E-005
  -7.7999999999999988E-003    -9.7223517059319420E-007
  -7.4999999999999997E-003    -2.2059099137550220E-005
  -7.1999999999999998E-003    -9.3579565145773813E-006
  -6.8999999999999981E-003     7.4628180300351232E-005
  -6.5999999999999982E-003     3.0055930255912244E-004
  -6.3000000000000000E-003     6.8018073216080666E-004
  -6.0000000000000001E-003     1.1181451845914125E-003
  -5.6999999999999985E-003     1.6000670148059726E-003
  -5.3999999999999986E-003     2.2936665918678045E-003
  -5.1000000000000004E-003     3.4230113960802555E-003
  -4.7999999999999987E-003     5.2458196878433228E-003
  -4.5000000000000005E-003     8.0932099372148514E-003
  -4.1999999999999989E-003     1.2265493161976337E-002
  -3.8999999999999990E-003     1.8147699534893036E-002
  -3.5999999999999990E-003     2.6462510228157043E-002
  -3.2999999999999991E-003     3.8121845573186874E-002
  -2.9999999999999992E-003     5.4080806672573090E-002
  -2.6999999999999993E-003     7.5604610145092010E-002
  -2.3999999999999994E-003    0.10424739867448807     
  -2.0999999999999977E-003    0.14130891859531403     
  -1.7999999999999995E-003    0.18792387843132019     
  -1.4999999999999979E-003    0.24555519223213196     
  -1.1999999999999997E-003    0.31526023149490356     
  -8.9999999999999976E-004    0.39667555689811707     
  -5.9999999999999810E-004    0.48836550116539001     
  -2.9999999999999992E-004    0.58784967660903931     
   0.0000000000000000         0.69004517793655396     
   3.0000000000000165E-004    0.78654575347900391     
   5.9999999999999984E-004    0.86644738912582397     
   9.0000000000000149E-004    0.91591668128967285     
   1.2000000000000031E-003    0.91698580980300903     
   1.5000000000000013E-003    0.84844887256622314     
   1.8000000000000030E-003    0.68780362606048584     
   2.1000000000000012E-003    0.41204294562339783     
   2.3999999999999994E-003    -1.0632798075675964E-003
   2.7000000000000010E-003   -0.56964135169982910     
   2.9999999999999992E-003    -1.3043640851974487     
   3.3000000000000008E-003    -2.2059068679809570     
   3.6000000000000025E-003    -3.2620608806610107     
   3.9000000000000007E-003    -4.4448251724243164     
   4.2000000000000023E-003    -5.7084136009216309     
   4.5000000000000005E-003    -6.9890065193176270     
   4.7999999999999987E-003    -8.2062854766845703     
   5.1000000000000004E-003    -9.2661762237548828     
   5.4000000000000020E-003    -10.065322875976562     
   5.7000000000000037E-003    -10.497763633728027     
   5.9999999999999984E-003    -10.463164329528809     
   6.3000000000000000E-003    -9.8750095367431641     
   6.6000000000000017E-003    -8.6684465408325195     
   6.9000000000000034E-003    -6.8085193634033203     
   7.2000000000000015E-003    -4.2966341972351074     
   7.5000000000000032E-003    -1.1732026338577271     
   7.8000000000000014E-003     2.4815168380737305     
   8.0999999999999996E-003     6.5486097335815430     
   8.4000000000000012E-003     10.875440597534180     
   8.7000000000000029E-003     15.283517837524414     
   9.0000000000000011E-003     19.576707839965820     
   9.2999999999999992E-003     23.549634933471680     
   9.6000000000000009E-003     26.998119354248047     
   9.8999999999999991E-003     29.728435516357422     
   1.0200000000000001E-002     31.563806533813477     
   1.0500000000000002E-002     32.350780487060547     
   1.0800000000000004E-002     31.966081619262695     
   1.1099999999999999E-002     30.321214675903320     
   1.1400000000000000E-002     27.366685867309570     
   1.1700000000000002E-002     23.097169876098633     
   1.2000000000000004E-002     17.557445526123047     
   1.2300000000000002E-002     10.847660064697266     
   1.2600000000000000E-002     3.1283593177795410     
   1.2900000000000002E-002    -5.3768186569213867     
   1.3200000000000000E-002    -14.380682945251465     
   1.3500000000000002E-002    -23.535970687866211     
   1.3800000000000003E-002    -32.444488525390625     
   1.4100000000000001E-002    -40.673191070556641     
   1.4400000000000000E-002    -47.776679992675781     
   1.4700000000000001E-002    -53.322643280029297     
   1.4999999999999999E-002    -56.921821594238281     
   1.5300000000000001E-002    -58.260433197021484     
   1.5600000000000003E-002    -57.129692077636719     
   1.5899999999999997E-002    -53.449249267578125     
   1.6199999999999999E-002    -47.283592224121094     
   1.6500000000000001E-002    -38.848056793212891     
   1.6800000000000002E-002    -28.503105163574219     
   1.7100000000000004E-002    -16.735795974731445     
   1.7400000000000006E-002    -4.1317377090454102     
   1.7700000000000000E-002     8.6626501083374023     
   1.8000000000000002E-002     20.982833862304688     
   1.8300000000000004E-002     32.192611694335938     
   1.8600000000000005E-002     41.725860595703125     
   1.8900000000000000E-002     49.123340606689453     
   1.9200000000000002E-002     54.063976287841797     
   1.9500000000000003E-002     56.381755828857422     
   1.9799999999999998E-002     56.069725036621094     
   2.0100000000000000E-002     53.275474548339844     
   2.0400000000000001E-002     48.285671234130859     
   2.0700000000000003E-002     41.498878479003906     
   2.0999999999999998E-002     33.391517639160156     
   2.1299999999999999E-002     24.481645584106445     
   2.1600000000000001E-002     15.294161796569824     
   2.1900000000000003E-002     6.3259634971618652     
   2.2200000000000004E-002    -1.9856102466583252     
   2.2500000000000006E-002    -9.2851657867431641     
   2.2800000000000001E-002    -15.314171791076660     
   2.3100000000000002E-002    -19.917020797729492     
   2.3400000000000004E-002    -23.041366577148438     
   2.3699999999999999E-002    -24.729358673095703     
   2.4000000000000000E-002    -25.101930618286133     
   2.4300000000000002E-002    -24.340850830078125     
   2.4599999999999997E-002    -22.667905807495117     
   2.4900000000000005E-002    -20.324571609497070     
   2.5200000000000000E-002    -17.551961898803711     
   2.5499999999999995E-002    -14.574642181396484     
   2.5800000000000003E-002    -11.588496208190918     
   2.6099999999999998E-002    -8.7518291473388672     
   2.6400000000000007E-002    -6.1824836730957031     
   2.6700000000000002E-002    -3.9583046436309814     
   2.6999999999999996E-002    -2.1200654506683350     
   2.7300000000000005E-002   -0.67628467082977295     
   2.7600000000000000E-002    0.39032137393951416     
   2.7900000000000008E-002     1.1139295101165771     
   2.8200000000000003E-002     1.5407100915908813     
   2.8499999999999998E-002     1.7244784832000732     
   2.8800000000000006E-002     1.7208427190780640     
   2.9100000000000001E-002     1.5839222669601440     
   2.9400000000000003E-002     1.3632440567016602     
   2.9700000000000004E-002     1.1039302349090576     
   3.0000000000000006E-002    0.84536445140838623     
   3.0300000000000001E-002    0.61854779720306396     
   3.0600000000000002E-002    0.44629216194152832     
   3.0900000000000004E-002    0.34368190169334412     
   3.1199999999999999E-002    0.31838715076446533     
   3.1500000000000007E-002    0.37054848670959473     
   3.1800000000000002E-002    0.49272769689559937     
   3.2099999999999997E-002    0.67363923788070679     
   3.2400000000000005E-002    0.89931136369705200     
   3.2700000000000000E-002     1.1539418697357178     
   3.3000000000000002E-002     1.4221961498260498     
   3.3300000000000003E-002     1.6903737783432007     
   3.3599999999999998E-002     1.9481745958328247     
   3.3900000000000000E-002     2.1880943775177002     
   3.4200000000000001E-002     2.4041752815246582     
   3.4500000000000003E-002     2.5924839973449707     
   3.4799999999999998E-002     2.7486298084259033     
   3.5099999999999999E-002     2.8679165840148926     
   3.5400000000000001E-002     2.9446110725402832     
   3.5699999999999996E-002     2.9711217880249023     
   3.6000000000000004E-002     2.9392054080963135     
   3.6299999999999999E-002     2.8411800861358643     
   3.6600000000000008E-002     2.6723277568817139     
   3.6900000000000002E-002     2.4311888217926025     
   3.7199999999999997E-002     2.1207556724548340     
   3.7500000000000006E-002     1.7510638236999512     
   3.7800000000000000E-002     1.3376500606536865     
   3.8100000000000009E-002    0.90080678462982178     
   3.8400000000000004E-002    0.46399453282356262     
   3.8699999999999998E-002     5.1398552954196930E-002
   3.9000000000000007E-002   -0.31442713737487793     
   3.9300000000000002E-002   -0.61596179008483887     
   3.9600000000000003E-002   -0.84088176488876343     
   3.9900000000000005E-002   -0.98416954278945923     
   4.0200000000000000E-002    -1.0499429702758789     
   4.0500000000000001E-002    -1.0475577116012573     
   4.0800000000000003E-002   -0.99129760265350342     
   4.1100000000000005E-002   -0.89951646327972412     
   4.1399999999999999E-002   -0.79207140207290649     
   4.1700000000000008E-002   -0.68638628721237183     
   4.2000000000000003E-002   -0.59664881229400635     
   4.2299999999999997E-002   -0.53419977426528931     
   4.2600000000000006E-002   -0.50560373067855835     
   4.2900000000000001E-002   -0.51091217994689941     
   4.3200000000000002E-002   -0.54680836200714111     
   4.3500000000000004E-002   -0.60695540904998779     
   4.3799999999999999E-002   -0.68120884895324707     
   4.4100000000000000E-002   -0.75755327939987183     
   4.4400000000000002E-002   -0.82318109273910522     
   4.4700000000000004E-002   -0.86576026678085327     
   4.4999999999999998E-002   -0.87342184782028198     
   4.5300000000000000E-002   -0.83609747886657715     
   4.5600000000000002E-002   -0.74713838100433350     
   4.5899999999999996E-002   -0.60383200645446777     
   4.6200000000000005E-002   -0.40815860033035278     
   4.6500000000000000E-002   -0.16782760620117188     
   4.6799999999999994E-002    0.10363695025444031     
   4.7100000000000003E-002    0.38682946562767029     
   4.7399999999999998E-002    0.65846413373947144     
   4.7700000000000006E-002    0.89324569702148438     
   4.8000000000000001E-002     1.0648293495178223     
   4.8300000000000010E-002     1.1496310234069824     
   4.8600000000000004E-002     1.1304535865783691     
   4.8899999999999999E-002    0.99857175350189209     
   4.9200000000000008E-002    0.75412786006927490     
   4.9500000000000002E-002    0.40845507383346558     
   4.9800000000000011E-002    -1.6101842746138573E-002
   5.0100000000000006E-002   -0.48925915360450745     
   5.0400000000000000E-002   -0.97521191835403442     
   5.0700000000000009E-002    -1.4358650445938110     
   5.1000000000000004E-002    -1.8348805904388428     
   5.1299999999999998E-002    -2.1417942047119141     
   5.1600000000000007E-002    -2.3347003459930420     
   5.1900000000000002E-002    -2.4020648002624512     
   5.2200000000000010E-002    -2.3437814712524414     
   5.2500000000000005E-002    -2.1705875396728516     
   5.2800000000000000E-002    -1.9012885093688965     
   5.3099999999999994E-002    -1.5605764389038086     
   5.3400000000000003E-002    -1.1762495040893555     
   5.3699999999999998E-002   -0.77543419599533081     
   5.4000000000000006E-002   -0.38241171836853027     
   5.4300000000000001E-002    -1.5858480706810951E-002
   5.4599999999999996E-002    0.31171995401382446     
   5.4900000000000004E-002    0.59289568662643433     
   5.5199999999999999E-002    0.82572114467620850     
   5.5499999999999994E-002     1.0122545957565308     
   5.5800000000000002E-002     1.1563131809234619     
   5.6099999999999997E-002     1.2621605396270752     
   5.6400000000000006E-002     1.3326950073242188     
   5.6700000000000000E-002     1.3705289363861084     
   5.6999999999999995E-002     1.3767086267471313     
   5.7300000000000004E-002     1.3503304719924927     
   5.7599999999999998E-002     1.2915569543838501     
   5.7900000000000007E-002     1.2019267082214355     
   5.8200000000000002E-002     1.0848370790481567     
   5.8499999999999996E-002    0.94680994749069214     
   5.8800000000000005E-002    0.79709911346435547     
   5.9100000000000000E-002    0.64738118648529053     
   5.9400000000000008E-002    0.51097744703292847     
   5.9700000000000003E-002    0.40107205510139465     
   6.0000000000000012E-002    0.32908174395561218     
   6.0300000000000006E-002    0.30238488316535950     
   6.0600000000000001E-002    0.32354784011840820     
   6.0900000000000010E-002    0.39025309681892395     
   6.1200000000000004E-002    0.49331194162368774     
   6.1500000000000013E-002    0.61798614263534546     
   6.1800000000000008E-002    0.74626028537750244     
   6.2100000000000002E-002    0.85801976919174194     
   6.2399999999999997E-002    0.93328177928924561     
   6.2700000000000006E-002    0.95456278324127197     
   6.3000000000000000E-002    0.90923970937728882     
   6.3300000000000009E-002    0.79201322793960571     
   6.3600000000000004E-002    0.60529267787933350     
   6.3899999999999998E-002    0.35993501543998718     
   6.4199999999999993E-002     7.3473528027534485E-002
   6.4500000000000002E-002   -0.23015025258064270     
   6.4800000000000010E-002   -0.52291613817214966     
   6.5100000000000005E-002   -0.77666789293289185     
   6.5400000000000000E-002   -0.96601939201354980     
   6.5700000000000008E-002    -1.0709606409072876     
   6.5999999999999989E-002    -1.0791283845901489     
   6.6299999999999998E-002   -0.98864299058914185     
   6.6600000000000006E-002   -0.80851006507873535     
   6.6900000000000001E-002   -0.55751198530197144     
   6.7199999999999996E-002   -0.26370793581008911     
   6.7500000000000004E-002     3.9250995963811874E-002
   6.7800000000000013E-002    0.31615132093429565     
   6.8099999999999994E-002    0.53221410512924194     
   6.8400000000000002E-002    0.65755617618560791     
   6.8700000000000011E-002    0.67136770486831665     
   6.8999999999999992E-002    0.56430840492248535     
   6.9300000000000000E-002    0.33858162164688110     
   6.9600000000000009E-002     7.1040894836187363E-003
   6.9900000000000004E-002   -0.40569368004798889     
   7.0199999999999999E-002   -0.86762583255767822     
   7.0500000000000007E-002    -1.3434059619903564     
   7.0800000000000016E-002    -1.7959017753601074     
   7.1099999999999997E-002    -2.1904826164245605     
   7.1400000000000005E-002    -2.4983105659484863     
   7.1700000000000000E-002    -2.6974048614501953     
   7.1999999999999995E-002    -2.7750909328460693     
   7.2300000000000003E-002    -2.7265186309814453     
   7.2600000000000012E-002    -2.5549523830413818     
   7.2900000000000006E-002    -2.2704453468322754     
   7.3200000000000001E-002    -1.8870841264724731     
   7.3499999999999996E-002    -1.4235863685607910     
   7.3800000000000004E-002   -0.90066111087799072     
   7.4099999999999999E-002   -0.33954703807830811     
   7.4400000000000008E-002    0.23774512112140656     
   7.4700000000000003E-002    0.80945402383804321     
   7.5000000000000011E-002     1.3536694049835205     
   7.5299999999999992E-002     1.8495566844940186     
   7.5600000000000001E-002     2.2780413627624512     
   7.5900000000000009E-002     2.6213150024414062     
   7.6200000000000004E-002     2.8644051551818848     
   7.6499999999999999E-002     2.9967358112335205     
   7.6800000000000007E-002     3.0128936767578125     
   7.7099999999999988E-002     2.9131793975830078     
   7.7399999999999997E-002     2.7043378353118896     
   7.7700000000000005E-002     2.3994784355163574     
   7.8000000000000014E-002     2.0175521373748779     
   7.8299999999999995E-002     1.5816742181777954     
   7.8600000000000003E-002     1.1178964376449585     
   7.8900000000000012E-002    0.65338337421417236     
   7.9199999999999993E-002    0.21383169293403625     
   7.9500000000000001E-002   -0.17846265435218811     
   7.9800000000000010E-002   -0.50565016269683838     
   8.0100000000000018E-002   -0.75523215532302856     
   8.0399999999999999E-002   -0.92093884944915771     
   8.0700000000000008E-002    -1.0024340152740479     
   8.1000000000000003E-002    -1.0046453475952148     
   8.1299999999999997E-002   -0.93709158897399902     
   8.1600000000000006E-002   -0.81206119060516357     
   8.1900000000000014E-002   -0.64452141523361206     
   8.2199999999999995E-002   -0.45085892081260681     
   8.2500000000000004E-002   -0.24698516726493835     
   8.2799999999999999E-002    -4.8387620598077774E-002
   8.3100000000000007E-002    0.13121421635150909     
   8.3400000000000002E-002    0.27926495671272278     
   8.3700000000000011E-002    0.38575199246406555     
   8.4000000000000005E-002    0.44400119781494141     
   8.4300000000000000E-002    0.44993558526039124     
   8.4599999999999995E-002    0.40320107340812683     
   8.4900000000000003E-002    0.30681797862052917     
   8.5199999999999998E-002    0.16641990840435028     
   8.5500000000000007E-002    -8.9036077260971069E-003
   8.5800000000000001E-002   -0.20824134349822998     
   8.6100000000000010E-002   -0.42005306482315063     
   8.6399999999999991E-002   -0.63246268033981323     
   8.6699999999999999E-002   -0.83428543806076050     
   8.7000000000000008E-002    -1.0158410072326660     
   8.7300000000000003E-002    -1.1699558496475220     
   8.7599999999999997E-002    -1.2926942110061646     
   8.7900000000000006E-002    -1.3820031881332397     
   8.8200000000000014E-002    -1.4375220537185669     
   8.8499999999999995E-002    -1.4609524011611938     
   8.8800000000000004E-002    -1.4544311761856079     
   8.9100000000000013E-002    -1.4202185869216919     
   8.9399999999999993E-002    -1.3597149848937988     
   8.9700000000000002E-002    -1.2732201814651489     
   9.0000000000000011E-002    -1.1612832546234131     
   9.0299999999999991E-002    -1.0230768918991089     
   9.0600000000000000E-002   -0.85729986429214478     
   9.0900000000000009E-002   -0.66383916139602661     
   9.1200000000000017E-002   -0.44376015663146973     
   9.1499999999999998E-002   -0.19992996752262115     
   9.1800000000000007E-002     6.2762439250946045E-002
   9.2100000000000001E-002    0.33760508894920349     
   9.2399999999999996E-002    0.61585086584091187     
   9.2700000000000005E-002    0.88776963949203491     
   9.3000000000000013E-002     1.1428933143615723     
   9.3300000000000008E-002     1.3705927133560181     
   9.3600000000000003E-002     1.5615272521972656     
   9.3899999999999997E-002     1.7080519199371338     
   9.4200000000000006E-002     1.8042683601379395     
   9.4500000000000001E-002     1.8469738960266113     
   9.4800000000000009E-002     1.8350046873092651     
   9.5100000000000004E-002     1.7701442241668701     
   9.5399999999999999E-002     1.6568449735641479     
   9.5699999999999993E-002     1.5009827613830566     
   9.6000000000000002E-002     1.3100807666778564     
   9.6300000000000011E-002     1.0933679342269897     
   9.6600000000000005E-002    0.86155265569686890     
   9.6900000000000000E-002    0.62474417686462402     
   9.7200000000000009E-002    0.39245122671127319     
   9.7499999999999989E-002    0.17420457303524017     
   9.7799999999999998E-002    -2.2077493369579315E-002
   9.8100000000000007E-002   -0.19075694680213928     
   9.8400000000000015E-002   -0.32929065823554993     
   9.8699999999999996E-002   -0.43663081526756287     
   9.9000000000000005E-002   -0.51390981674194336     
   9.9300000000000013E-002   -0.56542277336120605     
   9.9599999999999994E-002   -0.59627741575241089     
   9.9900000000000003E-002   -0.61278760433197021     
  0.10020000000000001        -0.62058824300765991     
  0.10049999999999999        -0.62395375967025757     
  0.10080000000000000        -0.62663543224334717     
  0.10110000000000001        -0.62998402118682861     
  0.10140000000000000        -0.63300257921218872     
  0.10170000000000000        -0.63271981477737427     
  0.10200000000000001        -0.62500894069671631     
  0.10230000000000002        -0.60620379447937012     
  0.10260000000000000        -0.57208937406539917     
  0.10290000000000001        -0.51917839050292969     
  0.10320000000000000        -0.44711595773696899     
  0.10350000000000001        -0.35768896341323853     
  0.10380000000000000        -0.25470986962318420     
  0.10410000000000001        -0.14449575543403625     
  0.10440000000000001         -3.4855827689170837E-002
  0.10470000000000000          6.5195612609386444E-002
  0.10500000000000000         0.14691869914531708     
  0.10530000000000000         0.20247964560985565     
  0.10560000000000000         0.22528709471225739     
  0.10590000000000001         0.21200464665889740     
  0.10620000000000000         0.16147027909755707     
  0.10650000000000001          7.4969738721847534E-002
  0.10679999999999999         -4.2237009853124619E-002
  0.10710000000000000        -0.18260264396667480     
  0.10740000000000001        -0.33678573369979858     
  0.10770000000000000        -0.49451947212219238     
  0.10800000000000000        -0.64420992136001587     
  0.10830000000000001        -0.77397543191909790     
  0.10859999999999999        -0.87308651208877563     
  0.10890000000000000        -0.93249684572219849     
  0.10920000000000001        -0.94537657499313354     
  0.10950000000000001        -0.90748304128646851     
  0.10979999999999999        -0.81775712966918945     
  0.11009999999999999        -0.67854768037796021     
  0.11040000000000001        -0.49580690264701843     
  0.11070000000000001        -0.27871844172477722     
  0.11100000000000000         -3.7921480834484100E-002
  0.11130000000000000         0.21345251798629761     
  0.11160000000000002         0.46124902367591858     
  0.11190000000000001         0.69242411851882935     
  0.11220000000000001         0.89530998468399048     
  0.11250000000000000          1.0604796409606934     
  0.11280000000000000          1.1810697317123413     
  0.11309999999999999          1.2538777589797974     
  0.11340000000000001          1.2791391611099243     
  0.11369999999999998          1.2595725059509277     
  0.11400000000000000          1.2004343271255493     
  0.11430000000000000          1.1089472770690918     
  0.11460000000000002         0.99303972721099854     
  0.11489999999999999         0.86006951332092285     
  0.11520000000000001         0.71730375289916992     
  0.11550000000000001         0.57095503807067871     
  0.11580000000000000         0.42619311809539795     
  0.11609999999999999         0.28656822443008423     
  0.11640000000000002         0.15445612370967865     
  0.11670000000000001          3.2499562948942184E-002
  0.11700000000000001         -7.7765420079231262E-002
  0.11730000000000000        -0.17537355422973633     
  0.11760000000000000        -0.25910314917564392     
  0.11789999999999999        -0.32781895995140076     
  0.11820000000000001        -0.37984699010848999     
  0.11850000000000001        -0.41442522406578064     
  0.11880000000000000        -0.43142929673194885     
  0.11910000000000000        -0.43021804094314575     
  0.11940000000000002        -0.41066291928291321     
  0.11970000000000001        -0.37383413314819336     
  0.12000000000000001        -0.32174888253211975     
  0.12030000000000000        -0.25602364540100098     
  0.12060000000000000        -0.17879843711853027     
  0.12089999999999999         -9.3320727348327637E-002
  0.12119999999999999         -3.8012331351637840E-003
  0.12150000000000001          8.5393674671649933E-002
  0.12180000000000001         0.16977232694625854     
  0.12210000000000000         0.24362432956695557     
  0.12239999999999999         0.30132335424423218     
  0.12270000000000002         0.33688202500343323     
  0.12300000000000001         0.34505090117454529     
  0.12330000000000001         0.32177343964576721     
  0.12360000000000000         0.26403096318244934     
  0.12390000000000000         0.17113848030567169     
  0.12419999999999999          4.4906388968229294E-002
  0.12450000000000001        -0.11044657975435257     
  0.12480000000000001        -0.28760978579521179     
  0.12509999999999999        -0.47769281268119812     
  0.12540000000000001        -0.67048680782318115     
  0.12570000000000003        -0.85484570264816284     
  0.12600000000000000         -1.0198861360549927     
  0.12630000000000002         -1.1562927961349487     
  0.12659999999999999         -1.2568724155426025     
  0.12690000000000001         -1.3174191713333130     
  0.12719999999999998         -1.3362265825271606     
  0.12750000000000000         -1.3143196105957031     
  0.12780000000000002         -1.2555201053619385     
  0.12809999999999999         -1.1652067899703979     
  0.12840000000000001         -1.0501540899276733     
  0.12869999999999998        -0.91663652658462524     
  0.12900000000000000        -0.77015358209609985     
  0.12930000000000003        -0.61625474691390991     
  0.12959999999999999        -0.45851379632949829     
  0.12990000000000002        -0.29887476563453674     
  0.13019999999999998        -0.13775441050529480     
  0.13050000000000000          2.4738721549510956E-002
  0.13080000000000003         0.18876041471958160     
  0.13109999999999999         0.35510325431823730     
  0.13140000000000002         0.52436518669128418     
  0.13169999999999998         0.69619548320770264     
  0.13200000000000001         0.86875510215759277     
  0.13229999999999997          1.0398154258728027     
  0.13260000000000000          1.2063426971435547     
  0.13290000000000002          1.3641134500503540     
  0.13319999999999999          1.5085484981536865     
  0.13350000000000001          1.6340727806091309     
  0.13380000000000003          1.7355725765228271     
  0.13410000000000000          1.8078811168670654     
  0.13440000000000002          1.8463095426559448     
  0.13469999999999999          1.8472528457641602     
  0.13500000000000001          1.8076915740966797     
  0.13529999999999998          1.7271788120269775     
  0.13560000000000000          1.6073062419891357     
  0.13590000000000002          1.4509603977203369     
  0.13619999999999999          1.2635949850082397     
  0.13650000000000001          1.0528633594512939     
  0.13680000000000003         0.82790571451187134     
  0.13710000000000000         0.59861308336257935     
  0.13740000000000002         0.37549751996994019     
  0.13769999999999999         0.16806034743785858     
  0.13800000000000001         -1.6060989350080490E-002
  0.13829999999999998        -0.17118626832962036     
  0.13860000000000000        -0.29453998804092407     
  0.13890000000000002        -0.38655501604080200     
  0.13919999999999999        -0.45110058784484863     
  0.13950000000000001        -0.49391555786132812     
  0.13979999999999998        -0.52305936813354492     
  0.14010000000000000        -0.54831939935684204     
  0.14040000000000002        -0.57886886596679688     
  0.14069999999999999        -0.62301397323608398     
  0.14100000000000001        -0.68748569488525391     
  0.14130000000000004        -0.77674794197082520     
  0.14160000000000000        -0.89296752214431763     
  0.14189999999999997         -1.0357608795166016     
  0.14219999999999999         -1.2017745971679688     
  0.14250000000000002         -1.3857668638229370     
  0.14279999999999998         -1.5813343524932861     
  0.14310000000000000         -1.7807140350341797     
  0.14339999999999997         -1.9755604267120361     
  0.14369999999999999         -2.1572031974792480     
  0.14400000000000002         -2.3179683685302734     
  0.14429999999999998         -2.4502618312835693     
  0.14460000000000001         -2.5463662147521973     
  0.14490000000000003         -2.6007800102233887     
  0.14520000000000000         -2.6083030700683594     
  0.14550000000000002         -2.5648610591888428     
  0.14579999999999999         -2.4685435295104980     
  0.14610000000000001         -2.3182415962219238     
  0.14640000000000003         -2.1145057678222656     
  0.14670000000000000         -1.8590685129165649     
  0.14699999999999996         -1.5557014942169189     
  0.14729999999999999         -1.2090824842453003     
  0.14760000000000001        -0.82419681549072266     
  0.14789999999999998        -0.40735206007957458     
  0.14820000000000000          3.5228431224822998E-002