  -1.4999999999999999E-002     0.0000000000000000     
  -1.4700000000000000E-002     0.0000000000000000     
  -1.4400000000000000E-002     0.0000000000000000     
  -1.4100000000000000E-002     0.0000000000000000     
  -1.3800000000000000E-002     0.0000000000000000     
  -1.3500000000000000E-002     0.0000000000000000     
  -1.3200000000000000E-002     0.0000000000000000     
  -1.2899999999999998E-002     0.0000000000000000     
  -1.2600000000000000E-002     0.0000000000000000     
  -1.2299999999999998E-002     0.0000000000000000     
  -1.2000000000000000E-002     0.0000000000000000     
  -1.1699999999999999E-002     0.0000000000000000     
  -1.1399999999999999E-002     0.0000000000000000     
  -1.1099999999999999E-002     0.0000000000000000     
  -1.0799999999999999E-002     0.0000000000000000     
  -1.0499999999999999E-002     0.0000000000000000     
  -1.0199999999999999E-002     0.0000000000000000     
  -9.8999999999999991E-003     0.0000000000000000     
  -9.5999999999999992E-003     0.0000000000000000     
  -9.2999999999999992E-003     0.0000000000000000     
  -8.9999999999999993E-003     0.0000000000000000     
  -8.6999999999999994E-003     0.0000000000000000     
  -8.3999999999999995E-003     0.0000000000000000     
  -8.0999999999999996E-003     0.0000000000000000     
  -7.7999999999999988E-003     0.0000000000000000     
  -7.4999999999999997E-003     0.0000000000000000     
  -7.1999999999999998E-003     0.0000000000000000     
  -6.8999999999999981E-003     0.0000000000000000     
  -6.5999999999999982E-003     0.0000000000000000     
  -6.3000000000000000E-003     0.0000000000000000     
  -6.0000000000000001E-003     0.0000000000000000     
  -5.6999999999999985E-003     0.0000000000000000     
  -5.3999999999999986E-003     0.0000000000000000     
  -5.1000000000000004E-003    -1.7762538268277235E-036
  -4.7999999999999987E-003     4.9037317375028988E-036
  -4.5000000000000005E-003     6.8598188373579399E-035
  -4.1999999999999989E-003    -3.8477805560351337E-034
  -3.8999999999999990E-003    -5.1820226638710864E-034
  -3.5999999999999990E-003     6.1097589887255220E-033
  -3.2999999999999991E-003    -8.5683487698245229E-033
  -2.9999999999999992E-003    -4.3186575116936332E-032
  -2.6999999999999993E-003     2.1594282614436137E-031
  -2.3999999999999994E-003    -1.4398200072289799E-031
  -2.0999999999999977E-003    -1.9704121552551203E-030
  -1.7999999999999995E-003     7.7770939468481745E-030
  -1.4999999999999979E-003    -8.7041839599292730E-030
  -1.1999999999999997E-003    -2.2046414981423423E-029
  -8.9999999999999976E-004     1.0617166689802089E-028
  -5.9999999999999810E-004    -2.6617273870392475E-028
  -2.9999999999999992E-004     7.3494541124461472E-028
   0.0000000000000000         -2.0266556952926994E-027
   3.0000000000000165E-004     3.0709083926490694E-027
   5.9999999999999984E-004     4.8168790578467731E-027
   9.0000000000000149E-004    -4.4305590043808729E-026
   1.2000000000000031E-003     1.3450446979972409E-025
   1.5000000000000013E-003    -1.9713638951853743E-025
   1.8000000000000030E-003    -1.3739870185336683E-025
   2.1000000000000012E-003     1.6467753414262238E-024
   2.3999999999999994E-003    -5.0235802348482076E-024
   2.7000000000000010E-003     9.1440291180496138E-024
   2.9999999999999992E-003    -8.3726099274430385E-024
   3.3000000000000008E-003    -8.4394154020625851E-024
   3.6000000000000025E-003     5.1547563649033362E-023
   3.9000000000000007E-003    -1.1084773041932950E-022
   4.2000000000000023E-003     1.2790271386359052E-022
   4.5000000000000005E-003     1.2237794860198051E-023
   4.7999999999999987E-003    -4.1742833546146752E-022
   5.1000000000000004E-003     1.0111478224119693E-021
   5.4000000000000020E-003    -1.2722653763660362E-021
   5.7000000000000037E-003     3.9205856874955978E-023
   5.9999999999999984E-003     4.3751497068683296E-021
   6.3000000000000000E-003    -1.3348195773309735E-020
   6.6000000000000017E-003     2.4973666751942747E-020
   6.9000000000000034E-003    -2.3626208921139472E-020
   7.2000000000000015E-003    -5.0879239705631711E-020
   7.5000000000000032E-003     3.6263859133205570E-019
   7.8000000000000014E-003    -1.1780248232716019E-018
   8.0999999999999996E-003     2.3083856384915201E-018
   8.4000000000000012E-003    -5.3364864455095567E-019
   8.7000000000000029E-003    -1.7309922296697029E-017
   9.0000000000000011E-003     8.3719518896753367E-017
   9.2999999999999992E-003    -2.3649048714265738E-016
   9.6000000000000009E-003     3.8941429189598160E-016
   9.8999999999999991E-003     8.9567593183274667E-017
   1.0200000000000001E-002    -3.1500486152359099E-015
   1.0500000000000002E-002     1.2357879510557866E-014
   1.0800000000000004E-002    -3.0279035843298191E-014
   1.1099999999999999E-002     5.2993664279932587E-014
   1.1400000000000000E-002    -8.4191917218250090E-014
   1.1700000000000002E-002     2.3926745459056098E-013
   1.2000000000000004E-002    -9.3429734435157563E-013
   1.2300000000000002E-002     2.3375626521243698E-012
   1.2600000000000000E-002    -3.4646764623946780E-014
   1.2900000000000002E-002    -2.5707113521233893E-011
   1.3200000000000000E-002     1.0668007449643468E-010
   1.3500000000000002E-002    -1.8561868708744100E-010
   1.3800000000000003E-002    -1.2867192034082819E-010
   1.4100000000000001E-002     1.3935480547289103E-009
   1.4400000000000000E-002    -2.3208337474045493E-009
   1.4700000000000001E-002    -2.3159105744241515E-009
   1.4999999999999999E-002     1.2213669187133291E-008
   1.5300000000000001E-002    -1.5926268082111505E-009
   1.5600000000000003E-002    -4.2903923969106472E-008
   1.5899999999999997E-002    -2.1459563015469030E-009
   1.6199999999999999E-002     1.4559333294528187E-007
   1.6500000000000001E-002     1.0378348491713041E-007
   1.6800000000000002E-002    -4.7156669324976974E-007
   1.7100000000000004E-002    -7.4052650234079920E-007
   1.7400000000000006E-002     2.0375496205815580E-006
   1.7700000000000000E-002     1.0987231689796317E-005
   1.8000000000000002E-002     2.7946265618083999E-005
   1.8300000000000004E-002     5.4467676818603650E-005
   1.8600000000000005E-002     9.3984213890507817E-005
   1.8900000000000000E-002     1.5318802616093308E-004
   1.9200000000000002E-002     2.4376314831897616E-004
   1.9500000000000003E-002     3.8410886190831661E-004
   1.9799999999999998E-002     5.9977994533255696E-004
   2.0100000000000000E-002     9.2530716210603714E-004
   2.0400000000000001E-002     1.4098348328843713E-003
   2.0700000000000003E-002     2.1226762328296900E-003
   2.0999999999999998E-002     3.1563804950565100E-003
   2.1299999999999999E-002     4.6320050023496151E-003
   2.1600000000000001E-002     6.7070415243506432E-003
   2.1900000000000003E-002     9.5824450254440308E-003
   2.2200000000000004E-002     1.3508770614862442E-002
   2.2500000000000006E-002     1.8790099769830704E-002
   2.2800000000000001E-002     2.5782262906432152E-002
   2.3100000000000002E-002     3.4886173903942108E-002
   2.3400000000000004E-002     4.6536967158317566E-002
   2.3699999999999999E-002     6.1183825135231018E-002
   2.4000000000000000E-002     7.9254597425460815E-002
   2.4300000000000002E-002    0.10110873728990555     
   2.4599999999999997E-002    0.12697413563728333     
   2.4900000000000005E-002    0.15687856078147888     
   2.5200000000000000E-002    0.19056682288646698     
   2.5499999999999995E-002    0.22740507125854492     
   2.5800000000000003E-002    0.26630103588104248     
   2.6099999999999998E-002    0.30562144517898560     
   2.6400000000000007E-002    0.34314557909965515     
   2.6700000000000002E-002    0.37605303525924683     
   2.6999999999999996E-002    0.40094596147537231     
   2.7300000000000005E-002    0.41397336125373840     
   2.7600000000000000E-002    0.41096913814544678     
   2.7900000000000008E-002    0.38768565654754639     
   2.8200000000000003E-002    0.34013849496841431     
   2.8499999999999998E-002    0.26488399505615234     
   2.8800000000000006E-002    0.15948572754859924     
   2.9100000000000001E-002     2.2871373221278191E-002
   2.9400000000000003E-002   -0.14436809718608856     
   2.9700000000000004E-002   -0.33958354592323303     
   3.0000000000000006E-002   -0.55806094408035278     
   3.0300000000000001E-002   -0.79286694526672363     
   3.0600000000000002E-002    -1.0350520610809326     
   3.0900000000000004E-002    -1.2740247249603271     
   3.1199999999999999E-002    -1.4978979825973511     
   3.1500000000000007E-002    -1.6943664550781250     
   3.1800000000000002E-002    -1.8512792587280273     
   3.2099999999999997E-002    -1.9574900865554810     
   3.2400000000000005E-002    -2.0036718845367432     
   3.2700000000000000E-002    -1.9828854799270630     
   3.3000000000000002E-002    -1.8912656307220459     
   3.3300000000000003E-002    -1.7283476591110229     
   3.3599999999999998E-002    -1.4971926212310791     
   3.3900000000000000E-002    -1.2043728828430176     
   3.4200000000000001E-002   -0.85938119888305664     
   3.4500000000000003E-002   -0.47443568706512451     
   3.4799999999999998E-002    -6.3367158174514771E-002
   3.5099999999999999E-002    0.35887870192527771     
   3.5400000000000001E-002    0.77715194225311279     
   3.5699999999999996E-002     1.1771399974822998     
   3.6000000000000004E-002     1.5457906723022461     
   3.6299999999999999E-002     1.8722558021545410     
   3.6600000000000008E-002     2.1480455398559570     
   3.6900000000000002E-002     2.3674061298370361     
   3.7199999999999997E-002     2.5275194644927979     
   3.7500000000000006E-002     2.6278922557830811     
   3.7800000000000000E-002     2.6707828044891357     
   3.8100000000000009E-002     2.6601514816284180     
   3.8400000000000004E-002     2.6013782024383545     
   3.8699999999999998E-002     2.5009274482727051     
   3.9000000000000007E-002     2.3652298450469971     
   3.9300000000000002E-002     2.2007033824920654     
   3.9600000000000003E-002     2.0127549171447754     
   3.9900000000000005E-002     1.8054901361465454     
   4.0200000000000000E-002     1.5816557407379150     
   4.0500000000000001E-002     1.3419575691223145     
   4.0800000000000003E-002     1.0856114625930786     
   4.1100000000000005E-002    0.81030440330505371     
   4.1399999999999999E-002    0.51264280080795288     
   4.1700000000000008E-002    0.18900269269943237     
   4.2000000000000003E-002   -0.16383589804172516     
   4.2299999999999997E-002   -0.54757338762283325     
   4.2600000000000006E-002   -0.96141755580902100     
   4.2900000000000001E-002    -1.4012148380279541     
   4.3200000000000002E-002    -1.8585863113403320     
   4.3500000000000004E-002    -2.3205273151397705     
   4.3799999999999999E-002    -2.7694222927093506     
   4.4100000000000000E-002    -3.1836805343627930     
   4.4400000000000002E-002    -3.5386650562286377     
   4.4700000000000004E-002    -3.8085639476776123     
   4.4999999999999998E-002    -3.9680492877960205     
   4.5300000000000000E-002    -3.9948005676269531     
   4.5600000000000002E-002    -3.8718564510345459     
   4.5899999999999996E-002    -3.5895028114318848     
   4.6200000000000005E-002    -3.1473424434661865     
   4.6500000000000000E-002    -2.5549559593200684     
   4.6799999999999994E-002    -1.8321510553359985     
   4.7100000000000003E-002    -1.0085631608963013     
   4.7399999999999998E-002   -0.12130415439605713     
   4.7700000000000006E-002    0.78674983978271484     
   4.8000000000000001E-002     1.6703636646270752     
   4.8300000000000010E-002     2.4853262901306152     
   4.8600000000000004E-002     3.1909482479095459     
   4.8899999999999999E-002     3.7541148662567139     
   4.9200000000000008E-002     4.1503582000732422     
   4.9500000000000002E-002     4.3660449981689453     
   4.9800000000000011E-002     4.3987622261047363     
   5.0100000000000006E-002     4.2558894157409668     
   5.0400000000000000E-002     3.9545235633850098     
   5.0700000000000009E-002     3.5180881023406982     
   5.1000000000000004E-002     2.9745757579803467     
   5.1299999999999998E-002     2.3540573120117188     
   5.1600000000000007E-002     1.6853158473968506     
   5.1900000000000002E-002    0.99531584978103638     
   5.2200000000000010E-002    0.30657011270523071     
   5.2500000000000005E-002   -0.36270004510879517     
   5.2800000000000000E-002   -0.99798077344894409     
   5.3099999999999994E-002    -1.5891541242599487     
   5.3400000000000003E-002    -2.1274273395538330     
   5.3699999999999998E-002    -2.6055567264556885     
   5.4000000000000006E-002    -3.0160350799560547     
   5.4300000000000001E-002    -3.3496229648590088     
   5.4599999999999996E-002    -3.5966951847076416     
   5.4900000000000004E-002    -3.7457318305969238     
   5.5199999999999999E-002    -3.7856068611145020     
   5.5499999999999994E-002    -3.7068381309509277     
   5.5800000000000002E-002    -3.5025086402893066     
   5.6099999999999997E-002    -3.1716523170471191     
   5.6400000000000006E-002    -2.7190551757812500     
   5.6700000000000000E-002    -2.1572532653808594     
   5.6999999999999995E-002    -1.5068064928054810     
   5.7300000000000004E-002   -0.79451584815979004     
   5.7599999999999998E-002    -5.3549297153949738E-002
   5.7900000000000007E-002    0.68020915985107422     
   5.8200000000000002E-002     1.3703945875167847     
   5.8499999999999996E-002     1.9825931787490845     
   5.8800000000000005E-002     2.4883787631988525     
   5.9100000000000000E-002     2.8662924766540527     
   5.9400000000000008E-002     3.1041150093078613     
   5.9700000000000003E-002     3.1998262405395508     
   6.0000000000000012E-002     3.1603178977966309     
   6.0300000000000006E-002     3.0010879039764404     
   6.0600000000000001E-002     2.7437610626220703     
   6.0900000000000010E-002     2.4136073589324951     
   6.1200000000000004E-002     2.0372478961944580     
   6.1500000000000013E-002     1.6394671201705933     
   6.1800000000000008E-002     1.2415353059768677     
   6.2100000000000002E-002    0.85978639125823975     
   6.2399999999999997E-002    0.50439143180847168     
   6.2700000000000006E-002    0.18023960292339325     
   6.3000000000000000E-002   -0.11269799619913101     
   6.3300000000000009E-002   -0.37821039557456970     
   6.3600000000000004E-002   -0.62126797437667847     
   6.3899999999999998E-002   -0.84699881076812744     
   6.4199999999999993E-002    -1.0585204362869263     
   6.4500000000000002E-002    -1.2556900978088379     
   6.4800000000000010E-002    -1.4350014925003052     
   6.5100000000000005E-002    -1.5886189937591553     
   6.5400000000000000E-002    -1.7061208486557007     
   6.5700000000000008E-002    -1.7750810384750366     
   6.5999999999999989E-002    -1.7825257778167725     
   6.6299999999999998E-002    -1.7180024385452271     
   6.6600000000000006E-002    -1.5742948055267334     
   6.6900000000000001E-002    -1.3496308326721191     
   6.7199999999999996E-002    -1.0492814779281616     
   6.7500000000000004E-002   -0.68513834476470947     
   6.7800000000000013E-002   -0.27668043971061707     
   6.8099999999999994E-002    0.15073165297508240     
   6.8400000000000002E-002    0.56725215911865234     
   6.8700000000000011E-002    0.94029885530471802     
   6.8999999999999992E-002     1.2383358478546143     
   6.9300000000000000E-002     1.4323538541793823     
   6.9600000000000009E-002     1.4995968341827393     
   6.9900000000000004E-002     1.4259150028228760     
   7.0199999999999999E-002     1.2068209648132324     
   7.0500000000000007E-002    0.84994977712631226     
   7.0800000000000016E-002    0.37409821152687073     
   7.1099999999999997E-002   -0.19110605120658875     
   7.1400000000000005E-002   -0.80622881650924683     
   7.1700000000000000E-002    -1.4258965253829956     
   7.1999999999999995E-002    -2.0005469322204590     
   7.2300000000000003E-002    -2.4807357788085938     
   7.2600000000000012E-002    -2.8208143711090088     
   7.2900000000000006E-002    -2.9817728996276855     
   7.3200000000000001E-002    -2.9357070922851562     
   7.3499999999999996E-002    -2.6670932769775391     
   7.3800000000000004E-002    -2.1750593185424805     
   7.4099999999999999E-002    -1.4742889404296875     
   7.4400000000000008E-002   -0.59406054019927979     
   7.4700000000000003E-002    0.42191204428672791     
   7.5000000000000011E-002     1.5187770128250122     
   7.5299999999999992E-002     2.6332986354827881     
   7.5600000000000001E-002     3.6972830295562744     
   7.5900000000000009E-002     4.6429243087768555     
   7.6200000000000004E-002     5.4062027931213379     
   7.6499999999999999E-002     5.9324727058410645     
   7.6800000000000007E-002     6.1804242134094238     
   7.7099999999999988E-002     6.1246252059936523     
   7.7399999999999997E-002     5.7597117424011230     
   7.7700000000000005E-002     5.0999550819396973     
   7.8000000000000014E-002     4.1797604560852051     
   7.8299999999999995E-002     3.0516648292541504     
   7.8600000000000003E-002     1.7820625305175781     
   7.8900000000000012E-002    0.44732984900474548     
   7.9199999999999993E-002   -0.87303429841995239     
   7.9500000000000001E-002    -2.1021711826324463     
   7.9800000000000010E-002    -3.1722114086151123     
   8.0100000000000018E-002    -4.0304741859436035     
   8.0399999999999999E-002    -4.6429982185363770     
   8.0700000000000008E-002    -4.9974284172058105     
   8.1000000000000003E-002    -5.1035943031311035     
   8.1299999999999997E-002    -4.9917426109313965     
   8.1600000000000006E-002    -4.7089428901672363     
   8.1900000000000014E-002    -4.3140449523925781     
   8.2199999999999995E-002    -3.8711528778076172     
   8.2500000000000004E-002    -3.4428691864013672     
   8.2799999999999999E-002    -3.0839693546295166     
   8.3100000000000007E-002    -2.8353731632232666     
   8.3400000000000002E-002    -2.7209455966949463     
   8.3700000000000011E-002    -2.7446119785308838     
   8.4000000000000005E-002    -2.8904590606689453     
   8.4300000000000000E-002    -3.1252355575561523     
   8.4599999999999995E-002    -3.4008016586303711     
   8.4900000000000003E-002    -3.6602993011474609     
   8.5199999999999998E-002    -3.8431744575500488     
   8.5500000000000007E-002    -3.8909130096435547     
   8.5800000000000001E-002    -3.7532582283020020     
   8.6100000000000010E-002    -3.3917520046234131     
   8.6399999999999991E-002    -2.7838933467864990     
   8.6699999999999999E-002    -1.9245121479034424     
   8.7000000000000008E-002   -0.82592767477035522     
   8.7300000000000003E-002    0.48285639286041260     
   8.7599999999999997E-002     1.9589430093765259     
   8.7900000000000006E-002     3.5476028919219971     
   8.8200000000000014E-002     5.1868743896484375     
   8.8499999999999995E-002     6.8100061416625977     
   8.8800000000000004E-002     8.3490848541259766     
   8.9100000000000013E-002     9.7382812500000000     
   8.9399999999999993E-002     10.915441513061523     
   8.9700000000000002E-002     11.824695587158203     
   9.0000000000000011E-002     12.417434692382812     
   9.0299999999999991E-002     12.654093742370605     
   9.0600000000000000E-002     12.505493164062500     
   9.0900000000000009E-002     11.953614234924316     
   9.1200000000000017E-002     10.993966102600098     
   9.1499999999999998E-002     9.6362543106079102     
   9.1800000000000007E-002     7.9048786163330078     
   9.2100000000000001E-002     5.8416991233825684     
   9.2399999999999996E-002     3.5037362575531006     
   9.2700000000000005E-002    0.96336555480957031     
   9.3000000000000013E-002    -1.6932489871978760     
   9.3300000000000008E-002    -4.3714299201965332     
   9.3600000000000003E-002    -6.9687242507934570     
   9.3899999999999997E-002    -9.3832101821899414     
   9.4200000000000006E-002    -11.516842842102051     
   9.4500000000000001E-002    -13.280426025390625     
   9.4800000000000009E-002    -14.601197242736816     
   9.5100000000000004E-002    -15.423020362854004     
   9.5399999999999999E-002    -15.713006973266602     
   9.5699999999999993E-002    -15.460712432861328     
   9.6000000000000002E-002    -14.678889274597168     
   9.6300000000000011E-002    -13.404321670532227     
   9.6600000000000005E-002    -11.692212104797363     
   9.6900000000000000E-002    -9.6158504486083984     
   9.7200000000000009E-002    -7.2618598937988281     
   9.7499999999999989E-002    -4.7252984046936035     
   9.7799999999999998E-002    -2.1075608730316162     
   9.8100000000000007E-002    0.49041688442230225     
   9.8400000000000015E-002     2.9694924354553223     
   9.8699999999999996E-002     5.2372651100158691     
   9.9000000000000005E-002     7.2120351791381836     
   9.9300000000000013E-002     8.8226842880249023     
   9.9599999999999994E-002     10.014824867248535     
   9.9900000000000003E-002     10.751000404357910     
  0.10020000000000001          11.011329650878906     
  0.10049999999999999          10.798014640808105     
  0.10080000000000000          10.131916046142578     
  0.10110000000000001          9.0545272827148438     
  0.10140000000000000          7.6272382736206055     
  0.10170000000000000          5.9258656501770020     
  0.10200000000000001          4.0422639846801758     
  0.10230000000000002          2.0762889385223389     
  0.10260000000000000         0.13220021128654480     
  0.10290000000000001         -1.6845426559448242     
  0.10320000000000000         -3.2774350643157959     
  0.10350000000000001         -4.5599317550659180     
  0.10380000000000000         -5.4633178710937500     
  0.10410000000000001         -5.9413051605224609     
  0.10440000000000001         -5.9704508781433105     
  0.10470000000000000         -5.5566558837890625     
  0.10500000000000000         -4.7315416336059570     
  0.10530000000000000         -3.5529708862304688     
  0.10560000000000000         -2.1036441326141357     
  0.10590000000000001        -0.48210799694061279     
  0.10620000000000000          1.1985549926757812     
  0.10650000000000001          2.8206977844238281     
  0.10679999999999999          4.2698512077331543     
  0.10710000000000000          5.4405622482299805     
  0.10740000000000001          6.2474856376647949     
  0.10770000000000000          6.6286416053771973     
  0.10800000000000000          6.5513620376586914     
  0.10830000000000001          6.0169067382812500     
  0.10859999999999999          5.0580463409423828     
  0.10890000000000000          3.7398071289062500     
  0.10920000000000001          2.1537692546844482     
  0.10950000000000001         0.41059863567352295     
  0.10979999999999999         -1.3656617403030396     
  0.11009999999999999         -3.0499734878540039     
  0.11040000000000001         -4.5244860649108887     
  0.11070000000000001         -5.6869592666625977     
  0.11100000000000000         -6.4617400169372559     
  0.11130000000000000         -6.8023734092712402     
  0.11160000000000002         -6.6975779533386230     
  0.11190000000000001         -6.1712770462036133     
  0.11220000000000001         -5.2784886360168457     
  0.11250000000000000         -4.1041374206542969     
  0.11280000000000000         -2.7514879703521729     
  0.11309999999999999         -1.3351434469223022     
  0.11340000000000001          2.8468415141105652E-002
  0.11369999999999998          1.2336553335189819     
  0.11400000000000000          2.1913022994995117     
  0.11430000000000000          2.8391263484954834     
  0.11460000000000002          3.1452243328094482     
  0.11489999999999999          3.1091461181640625     
  0.11520000000000001          2.7630696296691895     
  0.11550000000000001          2.1652386188507080     
  0.11580000000000000          1.3952999114990234     
  0.11609999999999999         0.54498946666717529     
  0.11640000000000002        -0.29192185401916504     
  0.11670000000000001         -1.0269173383712769     
  0.11700000000000001         -1.5880700349807739     
  0.11730000000000000         -1.9247063398361206     
  0.11760000000000000         -2.0118401050567627     
  0.11789999999999999         -1.8527741432189941     
  0.11820000000000001         -1.4752624034881592     
  0.11850000000000001        -0.92924827337265015     
  0.11880000000000000        -0.27902147173881531     
  0.11910000000000000         0.40439760684967041     
  0.11940000000000002          1.0508646965026855     
  0.11970000000000001          1.5996289253234863     
  0.12000000000000001          2.0048854351043701     
  0.12030000000000000          2.2404158115386963     
  0.12060000000000000          2.3005409240722656     
  0.12089999999999999          2.1992645263671875     
  0.12119999999999999          1.9669917821884155     
  0.12150000000000001          1.6452406644821167     
  0.12180000000000001          1.2804768085479736     
  0.12210000000000000         0.91758871078491211     
  0.12239999999999999         0.59469228982925415     
  0.12270000000000002         0.33824920654296875     
  0.12300000000000001         0.16124053299427032     
  0.12330000000000001          6.2895178794860840E-002
  0.12360000000000000          3.0048387125134468E-002
  0.12390000000000000          4.0568832308053970E-002
  0.12419999999999999          6.7704789340496063E-002
  0.12450000000000001          8.4748037159442902E-002
  0.12480000000000001          6.8920873105525970E-002
  0.12509999999999999          4.8388065770268440E-003
  0.12540000000000001        -0.11318866163492203     
  0.12570000000000003        -0.28143203258514404     
  0.12600000000000000        -0.48729342222213745     
  0.12630000000000002        -0.71139258146286011     
  0.12659999999999999        -0.93195319175720215     
  0.12690000000000001         -1.1265690326690674     
  0.12719999999999998         -1.2761802673339844     
  0.12750000000000000         -1.3682092428207397     
  0.12780000000000002         -1.3965246677398682     
  0.12809999999999999         -1.3635448217391968     
  0.12840000000000001         -1.2779662609100342     
  0.12869999999999998         -1.1544545888900757     
  0.12900000000000000         -1.0113099813461304     
  0.12930000000000003        -0.86611962318420410     
  0.12959999999999999        -0.73665255308151245     
  0.12990000000000002        -0.63597619533538818     
  0.13019999999999998        -0.57199120521545410     
  0.13050000000000000        -0.54774713516235352     
  0.13080000000000003        -0.55918514728546143     
  0.13109999999999999        -0.59862637519836426     
  0.13140000000000002        -0.65309280157089233     
  0.13169999999999998        -0.70700913667678833     
  0.13200000000000001        -0.74466156959533691     
  0.13229999999999997        -0.74887084960937500     
  0.13260000000000000        -0.70568764209747314     
  0.13290000000000002        -0.60339897871017456     
  0.13319999999999999        -0.43365091085433960     
  0.13350000000000001        -0.19421991705894470     
  0.13380000000000003         0.11343777179718018     
  0.13410000000000000         0.48132804036140442     
  0.13440000000000002         0.89643239974975586     
  0.13469999999999999          1.3416869640350342     
  0.13500000000000001          1.7951039075851440     
  0.13529999999999998          2.2341988086700439     
  0.13560000000000000          2.6354124546051025     
  0.13590000000000002          2.9773874282836914     
  0.13619999999999999          3.2435398101806641     
  0.13650000000000001          3.4211716651916504     
  0.13680000000000003          3.5053076744079590     
  0.13710000000000000          3.4965605735778809     
  0.13740000000000002          3.4010007381439209     
  0.13769999999999999          3.2292351722717285     
  0.13800000000000001          2.9930872917175293     
  0.13829999999999998          2.7046442031860352     
  0.13860000000000000          2.3734993934631348     
  0.13890000000000002          2.0056021213531494     
  0.13919999999999999          1.6038078069686890     
  0.13950000000000001          1.1681289672851562     
  0.13979999999999998         0.69738596677780151     
  0.14010000000000000         0.19239372014999390     
  0.14040000000000002        -0.34295353293418884     
  0.14069999999999999        -0.89879024028778076     
  0.14100000000000001         -1.4590231180191040     
  0.14130000000000004         -2.0027756690979004     
  0.14160000000000000         -2.5048213005065918     
  0.14189999999999997         -2.9410345554351807     
  0.14219999999999999         -3.2917995452880859     
  0.14250000000000002         -3.5454123020172119     
  0.14279999999999998         -3.7036213874816895     
  0.14310000000000000         -3.7810227870941162     
  0.14339999999999997         -3.8057968616485596     
  0.14369999999999999         -3.8174321651458740     
  0.14400000000000002         -3.8593120574951172     
  0.14429999999999998         -3.9747185707092285     
  0.14460000000000001         -4.1969757080078125     
  0.14490000000000003         -4.5424094200134277     
  0.14520000000000000         -5.0071806907653809     
  0.14550000000000002         -5.5606060028076172     
  0.14579999999999999         -6.1489562988281250     
  0.14610000000000001         -6.6989560127258301     
  0.14640000000000003         -7.1237845420837402     
  0.14670000000000000         -7.3373708724975586     
  0.14699999999999996         -7.2610850334167480     
  0.14729999999999999         -6.8382182121276855     
  0.14760000000000001         -6.0435533523559570     
  0.14789999999999998         -4.8849081993103027     
  0.14820000000000000         -3.4100384712219238     