  -1.4999999999999999E-002     0.0000000000000000     
  -1.4700000000000000E-002     0.0000000000000000     
  -1.4400000000000000E-002     0.0000000000000000     
  -1.4100000000000000E-002     0.0000000000000000     
  -1.3800000000000000E-002     0.0000000000000000     
  -1.3500000000000000E-002     0.0000000000000000     
  -1.3200000000000000E-002     0.0000000000000000     
  -1.2899999999999998E-002     0.0000000000000000     
  -1.2600000000000000E-002     0.0000000000000000     
  -1.2299999999999998E-002     0.0000000000000000     
  -1.2000000000000000E-002     0.0000000000000000     
  -1.1699999999999999E-002     0.0000000000000000     
  -1.1399999999999999E-002     0.0000000000000000     
  -1.1099999999999999E-002     0.0000000000000000     
  -1.0799999999999999E-002     0.0000000000000000     
  -1.0499999999999999E-002     0.0000000000000000     
  -1.0199999999999999E-002     0.0000000000000000     
  -9.8999999999999991E-003     0.0000000000000000     
  -9.5999999999999992E-003     0.0000000000000000     
  -9.2999999999999992E-003     0.0000000000000000     
  -8.9999999999999993E-003     0.0000000000000000     
  -8.6999999999999994E-003     0.0000000000000000     
  -8.3999999999999995E-003     0.0000000000000000     
  -8.0999999999999996E-003     0.0000000000000000     
  -7.7999999999999988E-003     0.0000000000000000     
  -7.4999999999999997E-003     0.0000000000000000     
  -7.1999999999999998E-003     0.0000000000000000     
  -6.8999999999999981E-003     0.0000000000000000     
  -6.5999999999999982E-003     0.0000000000000000     
  -6.3000000000000000E-003     0.0000000000000000     
  -6.0000000000000001E-003     0.0000000000000000     
  -5.6999999999999985E-003     0.0000000000000000     
  -5.3999999999999986E-003     0.0000000000000000     
  -5.1000000000000004E-003     0.0000000000000000     
  -4.7999999999999987E-003     0.0000000000000000     
  -4.5000000000000005E-003     0.0000000000000000     
  -4.1999999999999989E-003     0.0000000000000000     
  -3.8999999999999990E-003     0.0000000000000000     
  -3.5999999999999990E-003     0.0000000000000000     
  -3.2999999999999991E-003     0.0000000000000000     
  -2.9999999999999992E-003     0.0000000000000000     
  -2.6999999999999993E-003     0.0000000000000000     
  -2.3999999999999994E-003     0.0000000000000000     
  -2.0999999999999977E-003     0.0000000000000000     
  -1.7999999999999995E-003     0.0000000000000000     
  -1.4999999999999979E-003     0.0000000000000000     
  -1.1999999999999997E-003     0.0000000000000000     
  -8.9999999999999976E-004     0.0000000000000000     
  -5.9999999999999810E-004     0.0000000000000000     
  -2.9999999999999992E-004     0.0000000000000000     
   0.0000000000000000          0.0000000000000000     
   3.0000000000000165E-004     0.0000000000000000     
   5.9999999999999984E-004     0.0000000000000000     
   9.0000000000000149E-004     0.0000000000000000     
   1.2000000000000031E-003     0.0000000000000000     
   1.5000000000000013E-003     0.0000000000000000     
   1.8000000000000030E-003     0.0000000000000000     
   2.1000000000000012E-003     0.0000000000000000     
   2.3999999999999994E-003     0.0000000000000000     
   2.7000000000000010E-003     0.0000000000000000     
   2.9999999999999992E-003     0.0000000000000000     
   3.3000000000000008E-003     0.0000000000000000     
   3.6000000000000025E-003     0.0000000000000000     
   3.9000000000000007E-003     0.0000000000000000     
   4.2000000000000023E-003     0.0000000000000000     
   4.5000000000000005E-003     0.0000000000000000     
   4.7999999999999987E-003     0.0000000000000000     
   5.1000000000000004E-003     0.0000000000000000     
   5.4000000000000020E-003     0.0000000000000000     
   5.7000000000000037E-003     0.0000000000000000     
   5.9999999999999984E-003     0.0000000000000000     
   6.3000000000000000E-003     0.0000000000000000     
   6.6000000000000017E-003     0.0000000000000000     
   6.9000000000000034E-003     0.0000000000000000     
   7.2000000000000015E-003     0.0000000000000000     
   7.5000000000000032E-003     0.0000000000000000     
   7.8000000000000014E-003     0.0000000000000000     
   8.0999999999999996E-003     0.0000000000000000     
   8.4000000000000012E-003     0.0000000000000000     
   8.7000000000000029E-003     0.0000000000000000     
   9.0000000000000011E-003     0.0000000000000000     
   9.2999999999999992E-003     0.0000000000000000     
   9.6000000000000009E-003    -8.9069687237665804E-037
   9.8999999999999991E-003    -6.2759674958853734E-036
   1.0200000000000001E-002     6.6287371961785435E-035
   1.0500000000000002E-002     2.8528226224562160E-034
   1.0800000000000004E-002    -3.2497984982481742E-033
   1.1099999999999999E-002    -3.6176250069578686E-033
   1.1400000000000000E-002     1.1478017022573108E-031
   1.1700000000000002E-002    -3.9808821487207260E-031
   1.2000000000000004E-002    -9.0900874705584621E-031
   1.2300000000000002E-002     1.2476546576350854E-029
   1.2600000000000000E-002    -4.0795767296474037E-029
   1.2900000000000002E-002    -2.1876758608916136E-029
   1.3200000000000000E-002     7.4368282577156490E-028
   1.3500000000000002E-002    -3.2673817507397444E-027
   1.3800000000000003E-002     6.1796116197127828E-027
   1.4100000000000001E-002     7.7736556864334882E-027
   1.4400000000000000E-002    -9.7810666423126949E-026
   1.4700000000000001E-002     3.8438882028081805E-025
   1.4999999999999999E-002    -1.0840534448156196E-024
   1.5300000000000001E-002     3.0487983039681239E-024
   1.5600000000000003E-002    -1.0298327471031544E-023
   1.5899999999999997E-002     3.2362387547967833E-023
   1.6199999999999999E-002    -4.5071160767575415E-023
   1.6500000000000001E-002    -3.1857252773539679E-022
   1.6800000000000002E-002     3.2154449114496857E-021
   1.7100000000000004E-002    -1.7768122285387466E-020
   1.7400000000000006E-002     7.5250487942675707E-020
   1.7700000000000000E-002    -2.6651733487064409E-019
   1.8000000000000002E-002     8.2091601188264560E-019
   1.8300000000000004E-002    -2.2688315159604594E-018
   1.8600000000000005E-002     5.9821131145212300E-018
   1.8900000000000000E-002    -1.7480384368609507E-017
   1.9200000000000002E-002     6.8147268147736285E-017
   1.9500000000000003E-002    -3.3979086668108841E-016
   1.9799999999999998E-002     1.7738398809974843E-015
   2.0100000000000000E-002    -8.5821784791620392E-015
   2.0400000000000001E-002     3.6605457163704780E-014
   2.0700000000000003E-002    -1.3291043341866898E-013
   2.0999999999999998E-002     3.8786554805610163E-013
   2.1299999999999999E-002    -7.7748517259695893E-013
   2.1600000000000001E-002     2.6922607481057181E-013
   2.1900000000000003E-002     5.5487372509210875E-012
   2.2200000000000004E-002    -2.5514838505880100E-011
   2.2500000000000006E-002     5.5500846973810525E-011
   2.2800000000000001E-002    -1.4045023824516001E-011
   2.3100000000000002E-002    -3.0070287926342587E-010
   2.3400000000000004E-002     8.4377588249751057E-010
   2.3699999999999999E-002    -2.5273022563609970E-010
   2.4000000000000000E-002    -3.5310396828691637E-009
   2.4300000000000002E-002     5.8433338168129012E-009
   2.4599999999999997E-002     8.3016873375640898E-009
   2.4900000000000005E-002    -2.7229049237575964E-008
   2.5200000000000000E-002    -2.4268345555356063E-008
   2.5499999999999995E-002     8.2837438242222561E-008
   2.5800000000000003E-002     9.2839989918047650E-008
   2.6099999999999998E-002    -1.9375100634988485E-007
   2.6400000000000007E-002    -3.3692305123622646E-007
   2.6700000000000002E-002     4.0385134525422473E-007
   2.6999999999999996E-002     1.7787835986382561E-006
   2.7300000000000005E-002     2.6606901428749552E-006
   2.7600000000000000E-002     3.0282647003332386E-006
   2.7900000000000008E-002     4.6499280870193616E-006
   2.8200000000000003E-002     8.8903734649647959E-006
   2.8499999999999998E-002     1.5027397239464335E-005
   2.8800000000000006E-002     2.2304526282823645E-005
   2.9100000000000001E-002     3.2734427804825827E-005
   2.9400000000000003E-002     4.9951093387790024E-005
   2.9700000000000004E-002     7.6187330705579370E-005
   3.0000000000000006E-002     1.1287432425888255E-004
   3.0300000000000001E-002     1.6409765521530062E-004
   3.0600000000000002E-002     2.3701369354967028E-004
   3.0900000000000004E-002     3.3866858575493097E-004
   3.1199999999999999E-002     4.7546133282594383E-004
   3.1500000000000007E-002     6.5679068211466074E-004
   3.1800000000000002E-002     8.9619000209495425E-004
   3.2099999999999997E-002     1.2071147793903947E-003
   3.2400000000000005E-002     1.6000452451407909E-003
   3.2700000000000000E-002     2.0856764167547226E-003
   3.3000000000000002E-002     2.6772317942231894E-003
   3.3300000000000003E-002     3.3856290392577648E-003
   3.3599999999999998E-002     4.2128260247409344E-003
   3.3900000000000000E-002     5.1512965001165867E-003
   3.4200000000000001E-002     6.1869053170084953E-003
   3.4500000000000003E-002     7.2958716191351414E-003
   3.4799999999999998E-002     8.4366137161850929E-003
   3.5099999999999999E-002     9.5485718920826912E-003
   3.5400000000000001E-002     1.0557746514678001E-002
   3.5699999999999996E-002     1.1378084309399128E-002
   3.6000000000000004E-002     1.1908993124961853E-002
   3.6299999999999999E-002     1.2038389220833778E-002
   3.6600000000000008E-002     1.1653976514935493E-002
   3.6900000000000002E-002     1.0655825026333332E-002
   3.7199999999999997E-002     8.9582912623882294E-003
   3.7500000000000006E-002     6.4961323514580727E-003
   3.7800000000000000E-002     3.2399191986769438E-003
   3.8100000000000009E-002    -7.9177913721650839E-004
   3.8400000000000004E-002    -5.5305454879999161E-003
   3.8699999999999998E-002    -1.0863088071346283E-002
   3.9000000000000007E-002    -1.6630576923489571E-002
   3.9300000000000002E-002    -2.2619083523750305E-002
   3.9600000000000003E-002    -2.8572281822562218E-002
   3.9900000000000005E-002    -3.4210667014122009E-002
   4.0200000000000000E-002    -3.9236649870872498E-002
   4.0500000000000001E-002    -4.3338458985090256E-002
   4.0800000000000003E-002    -4.6196833252906799E-002
   4.1100000000000005E-002    -4.7499522566795349E-002
   4.1399999999999999E-002    -4.6943843364715576E-002
   4.1700000000000008E-002    -4.4236116111278534E-002
   4.2000000000000003E-002    -3.9091762155294418E-002
   4.2299999999999997E-002    -3.1251393258571625E-002
   4.2600000000000006E-002    -2.0487356930971146E-002
   4.2900000000000001E-002    -6.6175651736557484E-003
   4.3200000000000002E-002     1.0465173982083797E-002
   4.3500000000000004E-002     3.0755866318941116E-002
   4.3799999999999999E-002     5.4103530943393707E-002
   4.4100000000000000E-002     8.0165177583694458E-002
   4.4400000000000002E-002    0.10837819427251816     
   4.4700000000000004E-002    0.13793368637561798     
   4.4999999999999998E-002    0.16775991022586823     
   4.5300000000000000E-002    0.19655321538448334     
   4.5600000000000002E-002    0.22282135486602783     
   4.5899999999999996E-002    0.24496050179004669     
   4.6200000000000005E-002    0.26134225726127625     
   4.6500000000000000E-002    0.27044585347175598     
   4.6799999999999994E-002    0.27096891403198242     
   4.7100000000000003E-002    0.26196646690368652     
   4.7399999999999998E-002    0.24291986227035522     
   4.7700000000000006E-002    0.21381774544715881     
   4.8000000000000001E-002    0.17519021034240723     
   4.8300000000000010E-002    0.12807302176952362     
   4.8600000000000004E-002     7.3960810899734497E-002
   4.8899999999999999E-002     1.4686295762658119E-002
   4.9200000000000008E-002    -4.7732077538967133E-002
   4.9500000000000002E-002   -0.11120506376028061     
   4.9800000000000011E-002   -0.17374102771282196     
   5.0100000000000006E-002   -0.23358064889907837     
   5.0400000000000000E-002   -0.28930562734603882     
   5.0700000000000009E-002   -0.33991035819053650     
   5.1000000000000004E-002   -0.38480389118194580     
   5.1299999999999998E-002   -0.42377260327339172     
   5.1600000000000007E-002   -0.45698413252830505     
   5.1900000000000002E-002   -0.48484194278717041     
   5.2200000000000010E-002   -0.50786238908767700     
   5.2500000000000005E-002   -0.52657985687255859     
   5.2800000000000000E-002   -0.54138541221618652     
   5.3099999999999994E-002   -0.55244803428649902     
   5.3400000000000003E-002   -0.55961561203002930     
   5.3699999999999998E-002   -0.56229323148727417     
   5.4000000000000006E-002   -0.55947959423065186     
   5.4300000000000001E-002   -0.54976475238800049     
   5.4599999999999996E-002   -0.53134614229202271     
   5.4900000000000004E-002   -0.50220781564712524     
   5.5199999999999999E-002   -0.46019414067268372     
   5.5499999999999994E-002   -0.40321043133735657     
   5.5800000000000002E-002   -0.32950025796890259     
   5.6099999999999997E-002   -0.23779836297035217     
   5.6400000000000006E-002   -0.12765656411647797     
   5.6700000000000000E-002     4.3617794290184975E-004
   5.6999999999999995E-002    0.14486713707447052     
   5.7300000000000004E-002    0.30271202325820923     
   5.7599999999999998E-002    0.46987259387969971     
   5.7900000000000007E-002    0.64105385541915894     
   5.8200000000000002E-002    0.80995053052902222     
   5.8499999999999996E-002    0.96960824728012085     
   5.8800000000000005E-002     1.1127539873123169     
   5.9100000000000000E-002     1.2321755886077881     
   5.9400000000000008E-002     1.3211932182312012     
   5.9700000000000003E-002     1.3741930723190308     
   6.0000000000000012E-002     1.3870013952255249     
   6.0300000000000006E-002     1.3571128845214844     
   6.0600000000000001E-002     1.2840222120285034     
   6.0900000000000010E-002     1.1693996191024780     
   6.1200000000000004E-002     1.0170336961746216     
   6.1500000000000013E-002    0.83267343044281006     
   6.1800000000000008E-002    0.62370735406875610     
   6.2100000000000002E-002    0.39900085330009460     
   6.2399999999999997E-002    0.16824537515640259     
   6.2700000000000006E-002    -5.8609578758478165E-002
   6.3000000000000000E-002   -0.27171874046325684     
   6.3300000000000009E-002   -0.46203231811523438     
   6.3600000000000004E-002   -0.62183594703674316     
   6.3899999999999998E-002   -0.74518424272537231     
   6.4199999999999993E-002   -0.82838052511215210     
   6.4500000000000002E-002   -0.87012314796447754     
   6.4800000000000010E-002   -0.87165135145187378     
   6.5100000000000005E-002   -0.83688414096832275     
   6.5400000000000000E-002   -0.77200013399124146     
   6.5700000000000008E-002   -0.68516379594802856     
   6.5999999999999989E-002   -0.58604800701141357     
   6.6299999999999998E-002   -0.48505511879920959     
   6.6600000000000006E-002   -0.39270600676536560     
   6.6900000000000001E-002   -0.31880500912666321     
   6.7199999999999996E-002   -0.27145650982856750     
   6.7500000000000004E-002   -0.25675603747367859     
   6.7800000000000013E-002   -0.27795484662055969     
   6.8099999999999994E-002   -0.33500373363494873     
   6.8400000000000002E-002   -0.42458257079124451     
   6.8700000000000011E-002   -0.54003137350082397     
   6.8999999999999992E-002   -0.67196589708328247     
   6.9300000000000000E-002   -0.80876022577285767     
   6.9600000000000009E-002   -0.93711286783218384     
   6.9900000000000004E-002    -1.0434631109237671     
   7.0199999999999999E-002    -1.1149443387985229     
   7.0500000000000007E-002    -1.1404017210006714     
   7.0800000000000016E-002    -1.1113595962524414     
   7.1099999999999997E-002    -1.0228065252304077     
   7.1400000000000005E-002   -0.87403184175491333     
   7.1700000000000000E-002   -0.66851133108139038     
   7.1999999999999995E-002   -0.41421616077423096     
   7.2300000000000003E-002   -0.12282331287860870     
   7.2600000000000012E-002    0.19094929099082947     
   7.2900000000000006E-002    0.50998157262802124     
   7.3200000000000001E-002    0.81614166498184204     
   7.3499999999999996E-002     1.0920633077621460     
   7.3800000000000004E-002     1.3217089176177979     
   7.4099999999999999E-002     1.4915431737899780     
   7.4400000000000008E-002     1.5918993949890137     
   7.4700000000000003E-002     1.6175820827484131     
   7.5000000000000011E-002     1.5676901340484619     
   7.5299999999999992E-002     1.4462543725967407     
   7.5600000000000001E-002     1.2614177465438843     
   7.5900000000000009E-002     1.0251128673553467     
   7.6200000000000004E-002    0.75221508741378784     
   7.6499999999999999E-002    0.45931515097618103     
   7.6800000000000007E-002    0.16375206410884857     
   7.7099999999999988E-002   -0.11747846007347107     
   7.7399999999999997E-002   -0.36853730678558350     
   7.7700000000000005E-002   -0.57596069574356079     
   7.8000000000000014E-002   -0.72939527034759521     
   7.8299999999999995E-002   -0.82171916961669922     
   7.8600000000000003E-002   -0.84955489635467529     
   7.8900000000000012E-002   -0.81350469589233398     
   7.9199999999999993E-002   -0.71739691495895386     
   7.9500000000000001E-002   -0.56856077909469604     
   7.9800000000000010E-002   -0.37671074271202087     
   8.0100000000000018E-002   -0.15327292680740356     
   8.0399999999999999E-002     8.8997110724449158E-002
   8.0700000000000008E-002    0.33745935559272766     
   8.1000000000000003E-002    0.58005869388580322     
   8.1299999999999997E-002    0.80574285984039307     
   8.1600000000000006E-002     1.0058455467224121     
   8.1900000000000014E-002     1.1733769178390503     
   8.2199999999999995E-002     1.3034832477569580     
   8.2500000000000004E-002     1.3936129808425903     
   8.2799999999999999E-002     1.4424978494644165     
   8.3100000000000007E-002     1.4502819776535034     
   8.3400000000000002E-002     1.4173877239227295     
   8.3700000000000011E-002     1.3443983793258667     
   8.4000000000000005E-002     1.2320103645324707     
   8.4300000000000000E-002     1.0800557136535645     
   8.4599999999999995E-002    0.88827633857727051     
   8.4900000000000003E-002    0.65689712762832642     
   8.5199999999999998E-002    0.38648062944412231     
   8.5500000000000007E-002     7.9160392284393311E-002
   8.5800000000000001E-002   -0.26051029562950134     
   8.6100000000000010E-002   -0.62551164627075195     
   8.6399999999999991E-002    -1.0055638551712036     
   8.6699999999999999E-002    -1.3870006799697876     
   8.7000000000000008E-002    -1.7535609006881714     
   8.7300000000000003E-002    -2.0868542194366455     
   8.7599999999999997E-002    -2.3677113056182861     
   8.7900000000000006E-002    -2.5776295661926270     
   8.8200000000000014E-002    -2.6999945640563965     
   8.8499999999999995E-002    -2.7222673892974854     
   8.8800000000000004E-002    -2.6370160579681396     
   8.9100000000000013E-002    -2.4430642127990723     
   8.9399999999999993E-002    -2.1460289955139160     
   8.9700000000000002E-002    -1.7579554319381714     
   9.0000000000000011E-002    -1.2979105710983276     
   9.0299999999999991E-002   -0.78979688882827759     
   9.0600000000000000E-002   -0.26094540953636169     
   9.0900000000000009E-002    0.25917938351631165     
   9.1200000000000017E-002    0.74139767885208130     
   9.1499999999999998E-002     1.1588087081909180     
   9.1800000000000007E-002     1.4886349439620972     
   9.2100000000000001E-002     1.7139120101928711     
   9.2399999999999996E-002     1.8243228197097778     
   9.2700000000000005E-002     1.8168867826461792     
   9.3000000000000013E-002     1.6961787939071655     
   9.3300000000000008E-002     1.4737509489059448     
   9.3600000000000003E-002     1.1671400070190430     
   9.3899999999999997E-002    0.79833757877349854     
   9.4200000000000006E-002    0.39276659488677979     
   9.4500000000000001E-002    -2.3084597662091255E-002
   9.4800000000000009E-002   -0.42313036322593689     
   9.5100000000000004E-002   -0.78309172391891479     
   9.5399999999999999E-002    -1.0819444656372070     
   9.5699999999999993E-002    -1.3031553030014038     
   9.6000000000000002E-002    -1.4352444410324097     
   9.6300000000000011E-002    -1.4719263315200806     
   9.6600000000000005E-002    -1.4120744466781616     
   9.6900000000000000E-002    -1.2600382566452026     
   9.7200000000000009E-002    -1.0245985984802246     
   9.7499999999999989E-002   -0.71808248758316040     
   9.7799999999999998E-002   -0.35631707310676575     
   9.8100000000000007E-002     4.2530618607997894E-002
   9.8400000000000015E-002    0.45888859033584595     
   9.8699999999999996E-002    0.87241470813751221     
   9.9000000000000005E-002     1.2626334428787231     
   9.9300000000000013E-002     1.6103252172470093     
   9.9599999999999994E-002     1.8978179693222046     
   9.9900000000000003E-002     2.1094429492950439     
  0.10020000000000001          2.2331933975219727     
  0.10049999999999999          2.2610106468200684     
  0.10080000000000000          2.1886978149414062     
  0.10110000000000001          2.0173556804656982     
  0.10140000000000000          1.7527725696563721     
  0.10170000000000000          1.4055197238922119     
  0.10200000000000001         0.99074161052703857     
  0.10230000000000002         0.52725017070770264     
  0.10260000000000000          3.6869660019874573E-002
  0.10290000000000001        -0.45709222555160522     
  0.10320000000000000        -0.93060070276260376     
  0.10350000000000001         -1.3605093955993652     
  0.10380000000000000         -1.7257709503173828     
  0.10410000000000001         -2.0081622600555420     
  0.10440000000000001         -2.1935000419616699     
  0.10470000000000000         -2.2723639011383057     
  0.10500000000000000         -2.2402775287628174     
  0.10530000000000000         -2.0978260040283203     
  0.10560000000000000         -1.8508609533309937     
  0.10590000000000001         -1.5098923444747925     
  0.10620000000000000         -1.0896830558776855     
  0.10650000000000001        -0.60856467485427856     
  0.10679999999999999         -8.7643988430500031E-002
  0.10710000000000000         0.44991740584373474     
  0.10740000000000001         0.98021966218948364     
  0.10770000000000000          1.4798084497451782     
  0.10800000000000000          1.9259424209594727     
  0.10830000000000001          2.2988212108612061     
  0.10859999999999999          2.5820639133453369     
  0.10890000000000000          2.7630143165588379     
  0.10920000000000001          2.8347291946411133     
  0.10950000000000001          2.7951092720031738     
  0.10979999999999999          2.6478350162506104     
  0.11009999999999999          2.4020719528198242     
  0.11040000000000001          2.0708777904510498     
  0.11070000000000001          1.6722419261932373     
  0.11100000000000000          1.2269055843353271     
  0.11130000000000000         0.75659322738647461     
  0.11160000000000002         0.28419804573059082     
  0.11190000000000001        -0.16836878657341003     
  0.11220000000000001        -0.58082056045532227     
  0.11250000000000000        -0.93573486804962158     
  0.11280000000000000         -1.2200309038162231     
  0.11309999999999999         -1.4239909648895264     
  0.11340000000000001         -1.5420192480087280     
  0.11369999999999998         -1.5741143226623535     
  0.11400000000000000         -1.5244770050048828     
  0.11430000000000000         -1.4014579057693481     
  0.11460000000000002         -1.2174667119979858     
  0.11489999999999999        -0.98772573471069336     
  0.11520000000000001        -0.73106944561004639     
  0.11550000000000001        -0.46777734160423279     
  0.11580000000000000        -0.21777775883674622     
  0.11609999999999999         -1.8303850665688515E-003
  0.11640000000000002         0.16142798960208893     
  0.11670000000000001         0.25656253099441528     
  0.11700000000000001         0.27105212211608887     
  0.11730000000000000         0.19858747720718384     
  0.11760000000000000          3.7534080445766449E-002
  0.11789999999999999        -0.20836897194385529     
  0.11820000000000001        -0.52824270725250244     
  0.11850000000000001        -0.90687000751495361     
  0.11880000000000000         -1.3249586820602417     
  0.11910000000000000         -1.7592540979385376     
  0.11940000000000002         -2.1853315830230713     
  0.11970000000000001         -2.5788164138793945     
  0.12000000000000001         -2.9168901443481445     
  0.12030000000000000         -3.1799757480621338     
  0.12060000000000000         -3.3525643348693848     
  0.12089999999999999         -3.4246444702148438     
  0.12119999999999999         -3.3916721343994141     
  0.12150000000000001         -3.2542514801025391     
  0.12180000000000001         -3.0184054374694824     
  0.12210000000000000         -2.6937537193298340     
  0.12239999999999999         -2.2926216125488281     
  0.12270000000000002         -1.8297333717346191     
  0.12300000000000001         -1.3187856674194336     
  0.12330000000000001        -0.77348023653030396     
  0.12360000000000000        -0.20699398219585419     
  0.12390000000000000         0.37125369906425476     
  0.12419999999999999         0.95228683948516846     
  0.12450000000000001          1.5280832052230835     
  0.12480000000000001          2.0917398929595947     
  0.12509999999999999          2.6356751918792725     
  0.12540000000000001          3.1512887477874756     
  0.12570000000000003          3.6279027462005615     
  0.12600000000000000          4.0520067214965820     
  0.12630000000000002          4.4090023040771484     
  0.12659999999999999          4.6825518608093262     
  0.12690000000000001          4.8563523292541504     
  0.12719999999999998          4.9152030944824219     
  0.12750000000000000          4.8470716476440430     
  0.12780000000000002          4.6457610130310059     
  0.12809999999999999          4.3109288215637207     
  0.12840000000000001          3.8495078086853027     
  0.12869999999999998          3.2773365974426270     
  0.12900000000000000          2.6177148818969727     
  0.12930000000000003          1.9001405239105225     
  0.12959999999999999          1.1592686176300049     
  0.12990000000000002         0.43117514252662659     
  0.13019999999999998        -0.24762946367263794     
  0.13050000000000000        -0.84395676851272583     
  0.13080000000000003         -1.3316466808319092     
  0.13109999999999999         -1.6922941207885742     
  0.13140000000000002         -1.9166383743286133     
  0.13169999999999998         -2.0064280033111572     
  0.13200000000000001         -1.9733831882476807     
  0.13229999999999997         -1.8385696411132812     
  0.13260000000000000         -1.6295864582061768     
  0.13290000000000002         -1.3788754940032959     
  0.13319999999999999         -1.1211478710174561     
  0.13350000000000001        -0.88923096656799316     
  0.13380000000000003        -0.71205651760101318     
  0.13410000000000000        -0.61235499382019043     
  0.13440000000000002        -0.60407418012619019     
  0.13469999999999999        -0.69215214252471924     
  0.13500000000000001        -0.87090241909027100     
  0.13529999999999998         -1.1254431009292603     
  0.13560000000000000         -1.4336110353469849     
  0.13590000000000002         -1.7656240463256836     
  0.13619999999999999         -2.0880990028381348     
  0.13650000000000001         -2.3678107261657715     
  0.13680000000000003         -2.5717203617095947     
  0.13710000000000000         -2.6720087528228760     
  0.13740000000000002         -2.6481816768646240     
  0.13769999999999999         -2.4874393939971924     
  0.13800000000000001         -2.1880741119384766     
  0.13829999999999998         -1.7588382959365845     
  0.13860000000000000         -1.2181551456451416     
  0.13890000000000002        -0.59429359436035156     
  0.13919999999999999          7.7790491282939911E-002
  0.13950000000000001         0.75763988494873047     
  0.13979999999999998          1.4030095338821411     
  0.14010000000000000          1.9735938310623169     
  0.14040000000000002          2.4314181804656982     
  0.14069999999999999          2.7465965747833252     
  0.14100000000000001          2.8985903263092041     
  0.14130000000000004          2.8761396408081055     
  0.14160000000000000          2.6804745197296143     
  0.14189999999999997          2.3243694305419922     
  0.14219999999999999          1.8306230306625366     
  0.14250000000000002          1.2310372591018677     
  0.14279999999999998         0.56393760442733765     
  0.14310000000000000        -0.12773521244525909     
  0.14339999999999997        -0.80050039291381836     
  0.14369999999999999         -1.4140964746475220     
  0.14400000000000002         -1.9318054914474487     
  0.14429999999999998         -2.3240871429443359     
  0.14460000000000001         -2.5730640888214111     
  0.14490000000000003         -2.6706457138061523     
  0.14520000000000000         -2.6188633441925049     
  0.14550000000000002         -2.4324052333831787     
  0.14579999999999999         -2.1350266933441162     
  0.14610000000000001         -1.7592579126358032     
  0.14640000000000003         -1.3420644998550415     
  0.14670000000000000        -0.92183470726013184     
  0.14699999999999996        -0.53755104541778564     
  0.14729999999999999        -0.22246135771274567     
  0.14760000000000001         -1.0683760046958923E-003
  0.14789999999999998         0.11109064519405365     
  0.14820000000000000         0.11168852448463440     