  -1.4999999999999999E-002     0.0000000000000000     
  -1.4700000000000000E-002     0.0000000000000000     
  -1.4400000000000000E-002     0.0000000000000000     
  -1.4100000000000000E-002     0.0000000000000000     
  -1.3800000000000000E-002     0.0000000000000000     
  -1.3500000000000000E-002     0.0000000000000000     
  -1.3200000000000000E-002     0.0000000000000000     
  -1.2899999999999998E-002     0.0000000000000000     
  -1.2600000000000000E-002     0.0000000000000000     
  -1.2299999999999998E-002     0.0000000000000000     
  -1.2000000000000000E-002     0.0000000000000000     
  -1.1699999999999999E-002     0.0000000000000000     
  -1.1399999999999999E-002     0.0000000000000000     
  -1.1099999999999999E-002     0.0000000000000000     
  -1.0799999999999999E-002     0.0000000000000000     
  -1.0499999999999999E-002     0.0000000000000000     
  -1.0199999999999999E-002     0.0000000000000000     
  -9.8999999999999991E-003     0.0000000000000000     
  -9.5999999999999992E-003     0.0000000000000000     
  -9.2999999999999992E-003     0.0000000000000000     
  -8.9999999999999993E-003     0.0000000000000000     
  -8.6999999999999994E-003     0.0000000000000000     
  -8.3999999999999995E-003     0.0000000000000000     
  -8.0999999999999996E-003     0.0000000000000000     
  -7.7999999999999988E-003     0.0000000000000000     
  -7.4999999999999997E-003     0.0000000000000000     
  -7.1999999999999998E-003     0.0000000000000000     
  -6.8999999999999981E-003     0.0000000000000000     
  -6.5999999999999982E-003     0.0000000000000000     
  -6.3000000000000000E-003     0.0000000000000000     
  -6.0000000000000001E-003     0.0000000000000000     
  -5.6999999999999985E-003     0.0000000000000000     
  -5.3999999999999986E-003     0.0000000000000000     
  -5.1000000000000004E-003     0.0000000000000000     
  -4.7999999999999987E-003     0.0000000000000000     
  -4.5000000000000005E-003     0.0000000000000000     
  -4.1999999999999989E-003     0.0000000000000000     
  -3.8999999999999990E-003     0.0000000000000000     
  -3.5999999999999990E-003     0.0000000000000000     
  -3.2999999999999991E-003     0.0000000000000000     
  -2.9999999999999992E-003     0.0000000000000000     
  -2.6999999999999993E-003     0.0000000000000000     
  -2.3999999999999994E-003     0.0000000000000000     
  -2.0999999999999977E-003     0.0000000000000000     
  -1.7999999999999995E-003    -4.1752568881032292E-037
  -1.4999999999999979E-003     8.9140246314772504E-036
  -1.1999999999999997E-003    -2.2709562191373269E-036
  -8.9999999999999976E-004    -1.7611518095183562E-034
  -5.9999999999999810E-004     1.0254688996449679E-034
  -2.9999999999999992E-004     1.8571194438259762E-033
   0.0000000000000000         -3.8596012537586057E-033
   3.0000000000000165E-004    -4.0895143571260138E-033
   5.9999999999999984E-004     3.9752518246538749E-032
   9.0000000000000149E-004    -9.0250406678096652E-032
   1.2000000000000031E-003    -6.3348912830997389E-032
   1.5000000000000013E-003     9.7115948437252219E-031
   1.8000000000000030E-003    -2.3086398719641110E-030
   2.1000000000000012E-003    -2.6386528579913632E-031
   2.3999999999999994E-003     1.4248282506881972E-029
   2.7000000000000010E-003    -3.6134237431282557E-029
   2.9999999999999992E-003     3.0132043657678817E-029
   3.3000000000000008E-003     7.5118002567376477E-029
   3.6000000000000025E-003    -3.2986882716164936E-028
   3.9000000000000007E-003     5.7364439691156024E-028
   4.2000000000000023E-003    -2.0773665381381334E-028
   4.5000000000000005E-003    -1.4404241906366020E-027
   4.7999999999999987E-003     3.6162724342572475E-027
   5.1000000000000004E-003    -2.9850377245906535E-027
   5.4000000000000020E-003    -3.7225013373858031E-027
   5.7000000000000037E-003     1.2701862354343588E-026
   5.9999999999999984E-003    -8.3738370868627713E-027
   6.3000000000000000E-003    -2.7307067346686638E-026
   6.6000000000000017E-003     8.2833778521932539E-026
   6.9000000000000034E-003    -7.6450630388651036E-026
   7.2000000000000015E-003    -1.4667452280740810E-025
   7.5000000000000032E-003     7.8464045007427282E-025
   7.8000000000000014E-003    -2.1702496330650459E-024
   8.0999999999999996E-003     4.8547060198543773E-024
   8.4000000000000012E-003    -7.7774080635665433E-024
   8.7000000000000029E-003    -1.0276080804643406E-024
   9.0000000000000011E-003     7.0988343305164982E-023
   9.2999999999999992E-003    -3.5237878948629599E-022
   9.6000000000000009E-003     1.2973797793365931E-021
   9.8999999999999991E-003    -4.6359620158282867E-021
   1.0200000000000001E-002     1.8434508357265561E-020
   1.0500000000000002E-002    -8.0761262118732011E-020
   1.0800000000000004E-002     3.5987792773644826E-019
   1.1099999999999999E-002    -1.5549499353063965E-018
   1.1400000000000000E-002     6.4751656991620379E-018
   1.1700000000000002E-002    -2.6305238488609062E-017
   1.2000000000000004E-002     1.0542326247993202E-016
   1.2300000000000002E-002    -4.1628649155696308E-016
   1.2600000000000000E-002     1.5918903217845642E-015
   1.2900000000000002E-002    -5.7083866950578040E-015
   1.3200000000000000E-002     1.8260683560416581E-014
   1.3500000000000002E-002    -4.7535316205190095E-014
   1.3800000000000003E-002     7.5402459612499556E-014
   1.4100000000000001E-002     9.8464463037066519E-014
   1.4400000000000000E-002    -1.3255219404734175E-012
   1.4700000000000001E-002     5.6493399368251485E-012
   1.4999999999999999E-002    -1.3964959397205767E-011
   1.5300000000000001E-002     1.2173213825850127E-011
   1.5600000000000003E-002     5.4736895571672051E-011
   1.5899999999999997E-002    -2.4557009203896030E-010
   1.6199999999999999E-002     3.3392622000860683E-010
   1.6500000000000001E-002     5.5864696202334585E-010
   1.6800000000000002E-002    -2.6284268095366770E-009
   1.7100000000000004E-002     1.1977969727183790E-009
   1.7400000000000006E-002     9.5926377952082476E-009
   1.7700000000000000E-002    -1.1221540141548303E-008
   1.8000000000000002E-002    -3.3301017055009652E-008
   1.8300000000000004E-002     3.2158556706463060E-008
   1.8600000000000005E-002     1.0816752649134287E-007
   1.8900000000000000E-002    -4.1026211761163722E-008
   1.9200000000000002E-002    -3.0833425057608110E-007
   1.9500000000000003E-002    -3.5015428778706337E-008
   1.9799999999999998E-002     1.2239675015734974E-006
   2.0100000000000000E-002     2.9386142159637529E-006
   2.0400000000000001E-002     4.2581586967571639E-006
   2.0700000000000003E-002     5.4453357734018937E-006
   2.0999999999999998E-002     8.1238686107099056E-006
   2.1299999999999999E-002     1.4001495401316788E-005
   2.1600000000000001E-002     2.3868617063271813E-005
   2.1900000000000003E-002     3.8408903492381796E-005
   2.2200000000000004E-002     5.9835710999323055E-005
   2.2500000000000006E-002     9.2208669229876250E-005
   2.2800000000000001E-002     1.4070847828406841E-004
   2.3100000000000002E-002     2.1190977713558823E-004
   2.3400000000000004E-002     3.1492431298829615E-004
   2.3699999999999999E-002     4.6173771261237562E-004
   2.4000000000000000E-002     6.6756462911143899E-004
   2.4300000000000002E-002     9.5288734883069992E-004
   2.4599999999999997E-002     1.3455084990710020E-003
   2.4900000000000005E-002     1.8802698468789458E-003
   2.5200000000000000E-002     2.5982738006860018E-003
   2.5499999999999995E-002     3.5488973371684551E-003
   2.5800000000000003E-002     4.7933948226273060E-003
   2.6099999999999998E-002     6.4059747382998466E-003
   2.6400000000000007E-002     8.4719583392143250E-003
   2.6700000000000002E-002     1.1086831800639629E-002
   2.6999999999999996E-002     1.4357860200107098E-002
   2.7300000000000005E-002     1.8403310328722000E-002
   2.7600000000000000E-002     2.3346602916717529E-002
   2.7900000000000008E-002     2.9311068356037140E-002
   2.8200000000000003E-002     3.6417450755834579E-002
   2.8499999999999998E-002     4.4777467846870422E-002
   2.8800000000000006E-002     5.4481375962495804E-002
   2.9100000000000001E-002     6.5581336617469788E-002
   2.9400000000000003E-002     7.8078895807266235E-002
   2.9700000000000004E-002     9.1914497315883636E-002
   3.0000000000000006E-002    0.10694754868745804     
   3.0300000000000001E-002    0.12293218821287155     
   3.0600000000000002E-002    0.13950598239898682     
   3.0900000000000004E-002    0.15617923438549042     
   3.1199999999999999E-002    0.17232401669025421     
   3.1500000000000007E-002    0.18717750906944275     
   3.1800000000000002E-002    0.19986116886138916     
   3.2099999999999997E-002    0.20940713584423065     
   3.2400000000000005E-002    0.21478749811649323     
   3.2700000000000000E-002    0.21498189866542816     
   3.3000000000000002E-002    0.20905961096286774     
   3.3300000000000003E-002    0.19625172019004822     
   3.3599999999999998E-002    0.17602345347404480     
   3.3900000000000000E-002    0.14815858006477356     
   3.4200000000000001E-002    0.11284037679433823     
   3.4500000000000003E-002     7.0692427456378937E-002
   3.4799999999999998E-002     2.2792454808950424E-002
   3.5099999999999999E-002    -2.9378037899732590E-002
   3.5400000000000001E-002    -8.4025368094444275E-002
   3.5699999999999996E-002   -0.13912993669509888     
   3.6000000000000004E-002   -0.19258439540863037     
   3.6299999999999999E-002   -0.24243313074111938     
   3.6600000000000008E-002   -0.28707993030548096     
   3.6900000000000002E-002   -0.32543808221817017     
   3.7199999999999997E-002   -0.35711061954498291     
   3.7500000000000006E-002   -0.38249996304512024     
   3.7800000000000000E-002   -0.40283042192459106     
   3.8100000000000009E-002   -0.42007240653038025     
   3.8400000000000004E-002   -0.43682110309600830     
   3.8699999999999998E-002   -0.45605009794235229     
   3.9000000000000007E-002   -0.48076117038726807     
   3.9300000000000002E-002   -0.51363998651504517     
   3.9600000000000003E-002   -0.55665701627731323     
   3.9900000000000005E-002   -0.61070060729980469     
   4.0200000000000000E-002   -0.67530202865600586     
   4.0500000000000001E-002   -0.74838995933532715     
   4.0800000000000003E-002   -0.82617962360382080     
   4.1100000000000005E-002   -0.90322637557983398     
   4.1399999999999999E-002   -0.97268420457839966     
   4.1700000000000008E-002    -1.0266304016113281     
   4.2000000000000003E-002    -1.0565207004547119     
   4.2299999999999997E-002    -1.0537861585617065     
   4.2600000000000006E-002    -1.0104863643646240     
   4.2900000000000001E-002   -0.92000263929367065     
   4.3200000000000002E-002   -0.77762317657470703     
   4.3500000000000004E-002   -0.58115619421005249     
   4.3799999999999999E-002   -0.33138310909271240     
   4.4100000000000000E-002    -3.2355241477489471E-002
   4.4400000000000002E-002    0.30853453278541565     
   4.4700000000000004E-002    0.68058115243911743     
   4.4999999999999998E-002     1.0700317621231079     
   4.5300000000000000E-002     1.4607405662536621     
   4.5600000000000002E-002     1.8349336385726929     
   4.5899999999999996E-002     2.1739637851715088     
   4.6200000000000005E-002     2.4594149589538574     
   4.6500000000000000E-002     2.6743507385253906     
   4.6799999999999994E-002     2.8043737411499023     
   4.7100000000000003E-002     2.8386147022247314     
   4.7399999999999998E-002     2.7706329822540283     
   4.7700000000000006E-002     2.5990662574768066     
   4.8000000000000001E-002     2.3280601501464844     
   4.8300000000000010E-002     1.9672687053680420     
   4.8600000000000004E-002     1.5313144922256470     
   4.8899999999999999E-002     1.0390326976776123     
   4.9200000000000008E-002    0.51258337497711182     
   4.9500000000000002E-002    -2.3725552484393120E-002
   4.9800000000000011E-002   -0.54513633251190186     
   5.0100000000000006E-002    -1.0280431509017944     
   5.0400000000000000E-002    -1.4510942697525024     
   5.0700000000000009E-002    -1.7964965105056763     
   5.1000000000000004E-002    -2.0511546134948730     
   5.1299999999999998E-002    -2.2074048519134521     
   5.1600000000000007E-002    -2.2631990909576416     
   5.1900000000000002E-002    -2.2219898700714111     
   5.2200000000000010E-002    -2.0924379825592041     
   5.2500000000000005E-002    -1.8877757787704468     
   5.2800000000000000E-002    -1.6247872114181519     
   5.3099999999999994E-002    -1.3225275278091431     
   5.3400000000000003E-002    -1.0010976791381836     
   5.3699999999999998E-002   -0.68057322502136230     
   5.4000000000000006E-002   -0.37967938184738159     
   5.4300000000000001E-002   -0.11455593258142471     
   5.4599999999999996E-002    0.10212071985006332     
   5.4900000000000004E-002    0.26160928606987000     
   5.5199999999999999E-002    0.35944187641143799     
   5.5499999999999994E-002    0.39557555317878723     
   5.5800000000000002E-002    0.37417826056480408     
   5.6099999999999997E-002    0.30302220582962036     
   5.6400000000000006E-002    0.19251465797424316     
   5.6700000000000000E-002     5.4667606949806213E-002
   5.6999999999999995E-002    -9.7671657800674438E-002
   5.7300000000000004E-002   -0.25179937481880188     
   5.7599999999999998E-002   -0.39621579647064209     
   5.7900000000000007E-002   -0.52140802145004272     
   5.8200000000000002E-002   -0.61989897489547729     
   5.8499999999999996E-002   -0.68633592128753662     
   5.8800000000000005E-002   -0.71756237745285034     
   5.9100000000000000E-002   -0.71215707063674927     
   5.9400000000000008E-002   -0.66976523399353027     
   5.9700000000000003E-002   -0.59056121110916138     
   6.0000000000000012E-002   -0.47498643398284912     
   6.0300000000000006E-002   -0.32360616326332092     
   6.0600000000000001E-002   -0.13700886070728302     
   6.0900000000000010E-002     8.4350377321243286E-002
   6.1200000000000004E-002    0.33950981497764587     
   6.1500000000000013E-002    0.62582391500473022     
   6.1800000000000008E-002    0.93866157531738281     
   6.2100000000000002E-002     1.2714312076568604     
   6.2399999999999997E-002     1.6149576902389526     
   6.2700000000000006E-002     1.9566633701324463     
   6.3000000000000000E-002     2.2812819480895996     
   6.3300000000000009E-002     2.5721693038940430     
   6.3600000000000004E-002     2.8118364810943604     
   6.3899999999999998E-002     2.9825615882873535     
   6.4199999999999993E-002     3.0682160854339600     
   6.4500000000000002E-002     3.0560722351074219     
   6.4800000000000010E-002     2.9379324913024902     
   6.5100000000000005E-002     2.7106163501739502     
   6.5400000000000000E-002     2.3768427371978760     
   6.5700000000000008E-002     1.9459286928176880     
   6.5999999999999989E-002     1.4336503744125366     
   6.6299999999999998E-002    0.86107403039932251     
   6.6600000000000006E-002    0.25342062115669250     
   6.6900000000000001E-002   -0.36094695329666138     
   6.7199999999999996E-002   -0.95213776826858521     
   6.7500000000000004E-002    -1.4910411834716797     
   6.7800000000000013E-002    -1.9517140388488770     
   6.8099999999999994E-002    -2.3125808238983154     
   6.8400000000000002E-002    -2.5578672885894775     
   6.8700000000000011E-002    -2.6793427467346191     
   6.8999999999999992E-002    -2.6772489547729492     
   6.9300000000000000E-002    -2.5599334239959717     
   6.9600000000000009E-002    -2.3432357311248779     
   6.9900000000000004E-002    -2.0496983528137207     
   7.0199999999999999E-002    -1.7069833278656006     
   7.0500000000000007E-002    -1.3457027673721313     
   7.0800000000000016E-002   -0.99716764688491821     
   7.1099999999999997E-002   -0.69078332185745239     
   7.1400000000000005E-002   -0.45196390151977539     
   7.1700000000000000E-002   -0.30065768957138062     
   7.1999999999999995E-002   -0.24961550533771515     
   7.2300000000000003E-002   -0.30351683497428894     
   7.2600000000000012E-002   -0.45915263891220093     
   7.2900000000000006E-002   -0.70587813854217529     
   7.3200000000000001E-002    -1.0263756513595581     
   7.3499999999999996E-002    -1.3982640504837036     
   7.3800000000000004E-002    -1.7958612442016602     
   7.4099999999999999E-002    -2.1916687488555908     
   7.4400000000000008E-002    -2.5580160617828369     
   7.4700000000000003E-002    -2.8687174320220947     
   7.5000000000000011E-002    -3.1006186008453369     
   7.5299999999999992E-002    -3.2342946529388428     
   7.5600000000000001E-002    -3.2544450759887695     
   7.5900000000000009E-002    -3.1506216526031494     
   7.6200000000000004E-002    -2.9180264472961426     
   7.6499999999999999E-002    -2.5573050975799561     
   7.6800000000000007E-002    -2.0741040706634521     
   7.7099999999999988E-002    -1.4792420864105225     
   7.7399999999999997E-002   -0.78882461786270142     
   7.7700000000000005E-002    -2.3854564875364304E-002
   7.8000000000000014E-002    0.79086506366729736     
   7.8299999999999995E-002     1.6272945404052734     
   7.8600000000000003E-002     2.4545860290527344     
   7.8900000000000012E-002     3.2407593727111816     
   7.9199999999999993E-002     3.9540991783142090     
   7.9500000000000001E-002     4.5648603439331055     
   7.9800000000000010E-002     5.0465826988220215     
   8.0100000000000018E-002     5.3774619102478027     
   8.0399999999999999E-002     5.5421137809753418     
   8.0700000000000008E-002     5.5324344635009766     
   8.1000000000000003E-002     5.3481411933898926     
   8.1299999999999997E-002     4.9970302581787109     
   8.1600000000000006E-002     4.4946460723876953     
   8.1900000000000014E-002     3.8632855415344238     
   8.2199999999999995E-002     3.1304998397827148     
   8.2500000000000004E-002     2.3282368183135986     
   8.2799999999999999E-002     1.4906433820724487     
   8.3100000000000007E-002    0.65161436796188354     
   8.3400000000000002E-002   -0.15636861324310303     
   8.3700000000000011E-002   -0.90368914604187012     
   8.4000000000000005E-002    -1.5652612447738647     
   8.4300000000000000E-002    -2.1218628883361816     
   8.4599999999999995E-002    -2.5599315166473389     
   8.4900000000000003E-002    -2.8714451789855957     
   8.5199999999999998E-002    -3.0542182922363281     
   8.5500000000000007E-002    -3.1113338470458984     
   8.5800000000000001E-002    -3.0501556396484375     
   8.6100000000000010E-002    -2.8812265396118164     
   8.6399999999999991E-002    -2.6176044940948486     
   8.6699999999999999E-002    -2.2742581367492676     
   8.7000000000000008E-002    -1.8674359321594238     
   8.7300000000000003E-002    -1.4140642881393433     
   8.7599999999999997E-002   -0.93148481845855713     
   8.7900000000000006E-002   -0.43739110231399536     
   8.8200000000000014E-002     5.0191879272460938E-002
   8.8499999999999995E-002    0.51333862543106079     
   8.8800000000000004E-002    0.93452954292297363     
   8.9100000000000013E-002     1.2970858812332153     
   8.9399999999999993E-002     1.5859584808349609     
   8.9700000000000002E-002     1.7888287305831909     
   9.0000000000000011E-002     1.8969978094100952     
   9.0299999999999991E-002     1.9064056873321533     
   9.0600000000000000E-002     1.8185751438140869     
   9.0900000000000009E-002     1.6413316726684570     
   9.1200000000000017E-002     1.3886756896972656     
   9.1499999999999998E-002     1.0798877477645874     
   9.1800000000000007E-002    0.73855316638946533     
   9.2100000000000001E-002    0.39091861248016357     
   9.2399999999999996E-002     6.3476726412773132E-002
   9.2700000000000005E-002   -0.21970237791538239     
   9.3000000000000013E-002   -0.43957048654556274     
   9.3300000000000008E-002   -0.58387237787246704     
   9.3600000000000003E-002   -0.64882326126098633     
   9.3899999999999997E-002   -0.64008748531341553     
   9.4200000000000006E-002   -0.57239139080047607     
   9.4500000000000001E-002   -0.46787840127944946     
   9.4800000000000009E-002   -0.35465252399444580     
   9.5100000000000004E-002   -0.26398423314094543     
   9.5399999999999999E-002   -0.22678613662719727     
   9.5699999999999993E-002   -0.27036508917808533     
   9.6000000000000002E-002   -0.41591295599937439     
   9.6300000000000011E-002   -0.67610663175582886     
   9.6600000000000005E-002    -1.0536296367645264     
   9.6900000000000000E-002    -1.5404844284057617     
   9.7200000000000009E-002    -2.1185810565948486     
   9.7499999999999989E-002    -2.7609643936157227     
   9.7799999999999998E-002    -3.4335567951202393     
   9.8100000000000007E-002    -4.0973753929138184     
   9.8400000000000015E-002    -4.7114415168762207     
   9.8699999999999996E-002    -5.2353429794311523     
   9.9000000000000005E-002    -5.6311812400817871     
   9.9300000000000013E-002    -5.8652920722961426     
   9.9599999999999994E-002    -5.9106378555297852     
   9.9900000000000003E-002    -5.7479929924011230     
  0.10020000000000001         -5.3661980628967285     
  0.10049999999999999         -4.7623748779296875     
  0.10080000000000000         -3.9432349205017090     
  0.10110000000000001         -2.9243118762969971     
  0.10140000000000000         -1.7288520336151123     
  0.10170000000000000        -0.38761484622955322     
  0.10200000000000001          1.0610450506210327     
  0.10230000000000002          2.5734710693359375     
  0.10260000000000000          4.1023941040039062     
  0.10290000000000001          5.5981745719909668     
  0.10320000000000000          7.0101933479309082     
  0.10350000000000001          8.2892332077026367     
  0.10380000000000000          9.3898220062255859     
  0.10410000000000001          10.272379875183105     
  0.10440000000000001          10.904000282287598     
  0.10470000000000000          11.259611129760742     
  0.10500000000000000          11.323698043823242     
  0.10530000000000000          11.091382980346680     
  0.10560000000000000          10.567005157470703     
  0.10590000000000001          9.7633066177368164     
  0.10620000000000000          8.7020750045776367     
  0.10650000000000001          7.4129753112792969     
  0.10679999999999999          5.9309678077697754     
  0.10710000000000000          4.2947311401367188     
  0.10740000000000001          2.5461390018463135     
  0.10770000000000000         0.72872000932693481     
  0.10800000000000000         -1.1139844655990601     
  0.10830000000000001         -2.9390599727630615     
  0.10859999999999999         -4.7057614326477051     
  0.10890000000000000         -6.3750634193420410     
  0.10920000000000001         -7.9086318016052246     
  0.10950000000000001         -9.2705097198486328     
  0.10979999999999999         -10.428126335144043     
  0.11009999999999999         -11.349926948547363     
  0.11040000000000001         -12.004694938659668     
  0.11070000000000001         -12.364915847778320     
  0.11100000000000000         -12.407855987548828     
  0.11130000000000000         -12.114279747009277     
  0.11160000000000002         -11.471375465393066     
  0.11190000000000001         -10.476796150207520     
  0.11220000000000001         -9.1397991180419922     
  0.11250000000000000         -7.4825015068054199     
  0.11280000000000000         -5.5429425239562988     
  0.11309999999999999         -3.3758063316345215     
  0.11340000000000001         -1.0513826608657837     
  0.11369999999999998          1.3452777862548828     
  0.11400000000000000          3.7176089286804199     
  0.11430000000000000          5.9626221656799316     
  0.11460000000000002          7.9761590957641602     
  0.11489999999999999          9.6589708328247070     
  0.11520000000000001          10.923453330993652     
  0.11550000000000001          11.700117111206055     
  0.11580000000000000          11.942807197570801     
  0.11609999999999999          11.632545471191406     
  0.11640000000000002          10.779973983764648     
  0.11670000000000001          9.4255466461181641     
  0.11700000000000001          7.6376109123229980     
  0.11730000000000000          5.5090389251708984     
  0.11760000000000000          3.1514618396759033     
  0.11789999999999999         0.68891811370849609     
  0.11820000000000001         -1.7488311529159546     
  0.11850000000000001         -4.0343809127807617     
  0.11880000000000000         -6.0504484176635742     
  0.11910000000000000         -7.6959838867187500     
  0.11940000000000002         -8.8913326263427734     
  0.11970000000000001         -9.5829696655273438     
  0.12000000000000001         -9.7469120025634766     
  0.12030000000000000         -9.3887348175048828     
  0.12060000000000000         -8.5424003601074219     
  0.12089999999999999         -7.2688293457031250     
  0.12119999999999999         -5.6518211364746094     
  0.12150000000000001         -3.7926330566406250     
  0.12180000000000001         -1.8030060529708862     
  0.12210000000000000         0.20139697194099426     
  0.12239999999999999          2.1073207855224609     
  0.12270000000000002          3.8110814094543457     
  0.12300000000000001          5.2257685661315918     
  0.12330000000000001          6.2852377891540527     
  0.12360000000000000          6.9471039772033691     
  0.12390000000000000          7.1953573226928711     
  0.12419999999999999          7.0405488014221191     
  0.12450000000000001          6.5179862976074219     
  0.12480000000000001          5.6845860481262207     
  0.12509999999999999          4.6138658523559570     
  0.12540000000000001          3.3905868530273438     
  0.12570000000000003          2.1054334640502930     
  0.12600000000000000         0.84801214933395386     
  0.12630000000000002        -0.29951030015945435     
  0.12659999999999999         -1.2675271034240723     
  0.12690000000000001         -2.0026764869689941     
  0.12719999999999998         -2.4713006019592285     
  0.12750000000000000         -2.6620671749114990     
  0.12780000000000002         -2.5849683284759521     
  0.12809999999999999         -2.2693099975585938     
  0.12840000000000001         -1.7616643905639648     
  0.12869999999999998         -1.1215411424636841     
  0.12900000000000000        -0.41568452119827271     
  0.12930000000000003         0.28699666261672974     
  0.12959999999999999         0.92142975330352783     
  0.12990000000000002          1.4313633441925049     
  0.13019999999999998          1.7742341756820679     
  0.13050000000000000          1.9238049983978271     
  0.13080000000000003          1.8720407485961914     
  0.13109999999999999          1.6296025514602661     
  0.13140000000000002          1.2238363027572632     
  0.13169999999999998         0.69583231210708618     
  0.13200000000000001          9.6948504447937012E-002
  0.13229999999999997        -0.51700264215469360     
  0.13260000000000000         -1.0908803939819336     
  0.13290000000000002         -1.5745949745178223     
  0.13319999999999999         -1.9282083511352539     
  0.13350000000000001         -2.1261069774627686     
  0.13380000000000003         -2.1578640937805176     
  0.13410000000000000         -2.0289804935455322     
  0.13440000000000002         -1.7612549066543579     
  0.13469999999999999         -1.3899550437927246     
  0.13500000000000001        -0.95899534225463867     
  0.13529999999999998        -0.51736176013946533     
  0.13560000000000000        -0.11553864181041718     
  0.13590000000000002         0.20035146176815033     
  0.13619999999999999         0.39417296648025513     
  0.13650000000000001         0.44131389260292053     
  0.13680000000000003         0.33068642020225525     
  0.13710000000000000          6.6843636333942413E-002
  0.13740000000000002        -0.33033296465873718     
  0.13769999999999999        -0.82888001203536987     
  0.13800000000000001         -1.3873820304870605     
  0.13829999999999998         -1.9580961465835571     
  0.13860000000000000         -2.4913539886474609     
  0.13890000000000002         -2.9407041072845459     
  0.13919999999999999         -3.2661709785461426     
  0.13950000000000001         -3.4374809265136719     
  0.13979999999999998         -3.4361104965209961     
  0.14010000000000000         -3.2568111419677734     
  0.14040000000000002         -2.9072501659393311     
  0.14069999999999999         -2.4069812297821045     
  0.14100000000000001         -1.7845997810363770     
  0.14130000000000004         -1.0757771730422974     
  0.14160000000000000        -0.32027173042297363     
  0.14189999999999997         0.44233009219169617     
  0.14219999999999999          1.1754772663116455     
  0.14250000000000002          1.8468587398529053     
  0.14279999999999998          2.4309072494506836     
  0.14310000000000000          2.9104256629943848     
  0.14339999999999997          3.2766585350036621     
  0.14369999999999999          3.5276310443878174     
  0.14400000000000002          3.6679677963256836     
  0.14429999999999998          3.7080838680267334     
  0.14460000000000001          3.6620230674743652     
  0.14490000000000003          3.5451602935791016     
  0.14520000000000000          3.3733291625976562     
  0.14550000000000002          3.1617639064788818     
  0.14579999999999999          2.9243066310882568     
  0.14610000000000001          2.6723122596740723     
  0.14640000000000003          2.4145152568817139     
  0.14670000000000000          2.1574616432189941     
  0.14699999999999996          1.9058259725570679     
  0.14729999999999999          1.6622675657272339     
  0.14760000000000001          1.4279109239578247     
  0.14789999999999998          1.2029987573623657     
  0.14820000000000000         0.98712408542633057     